 Q-Chem 5.4, Q-Chem, Inc., Pleasanton, CA (2021)
 Q-Chem 5.4.0 for Intel X86 EM64T Linux

User input:
--------------------------------------------------------------
$molecule
0 1
C                 -0.9066440000      3.8561250000     -0.0210390000
C                 -2.0215790000      3.1002540000      0.3323100000
C                 -1.9070250000      1.7187460000      0.4918130000
C                  0.3249790000      3.2279440000     -0.2126340000
C                  0.4407490000      1.8402370000     -0.0512010000
C                 -0.6791700000      1.0878590000      0.2986620000
C                  1.5132420000      4.0278520000     -0.5905380000
C                  2.8303180000      3.3275220000     -0.8051310000
C                  2.9305070000      1.9729320000     -0.5767430000
C                  1.7532480000      1.1641520000     -0.2544870000
O                  1.4616140000      5.2377780000     -0.7428320000
O                  1.8498670000     -0.0615920000     -0.1694170000
N                  3.8102100000      4.1400840000     -1.2483650000
H                 -0.9723630000      4.9289390000     -0.1533540000
H                 -2.9783990000      3.5866950000      0.4828440000
H                 -2.7760420000      1.1319390000      0.7669440000
H                 -0.5702880000      0.0170050000      0.4159550000
H                  3.5794030000      5.1253750000     -1.2456150000
H                  4.7732870000      3.8505230000     -1.0768530000
N                  4.0745660000      1.1674340000     -0.7536780000
H                  3.8126980000      0.1857930000     -0.7705310000
C                  5.4079190000      1.4431400000     -0.6217090000
C                  6.3237720000      0.2448530000     -0.8372220000
C                  7.5351920000      0.2595960000      0.0982610000
O                  5.8597880000      2.5587540000     -0.3782340000
H                  6.6599630000      0.2959050000     -1.8798470000
H                  5.7644570000     -0.6899830000     -0.7370680000
H                  8.0788590000      1.2003180000      0.0053990000
H                  8.2127860000     -0.5618330000     -0.1452410000
H                  7.2290160000      0.1492750000      1.1416330000
$end

$rem
BASIS  =  6-311++G(d,p)
GUI  =  2
JOB_TYPE  =  SP
METHOD  =  B3LYP
SCF_CONVERGENCE  = 8
SOLVENT_METHOD = sm12
$end

$smx
solvent dimethylformamide
charges CM5
$end

--------------------------------------------------------------

             Standard Nuclear Orientation (Angstroms)
    I     Atom           X                Y                Z
 ----------------------------------------------------------------
    1      C      -0.9066440000     3.8561250000    -0.0210390000
    2      C      -2.0215790000     3.1002540000     0.3323100000
    3      C      -1.9070250000     1.7187460000     0.4918130000
    4      C       0.3249790000     3.2279440000    -0.2126340000
    5      C       0.4407490000     1.8402370000    -0.0512010000
    6      C      -0.6791700000     1.0878590000     0.2986620000
    7      C       1.5132420000     4.0278520000    -0.5905380000
    8      C       2.8303180000     3.3275220000    -0.8051310000
    9      C       2.9305070000     1.9729320000    -0.5767430000
   10      C       1.7532480000     1.1641520000    -0.2544870000
   11      O       1.4616140000     5.2377780000    -0.7428320000
   12      O       1.8498670000    -0.0615920000    -0.1694170000
   13      N       3.8102100000     4.1400840000    -1.2483650000
   14      H      -0.9723630000     4.9289390000    -0.1533540000
   15      H      -2.9783990000     3.5866950000     0.4828440000
   16      H      -2.7760420000     1.1319390000     0.7669440000
   17      H      -0.5702880000     0.0170050000     0.4159550000
   18      H       3.5794030000     5.1253750000    -1.2456150000
   19      H       4.7732870000     3.8505230000    -1.0768530000
   20      N       4.0745660000     1.1674340000    -0.7536780000
   21      H       3.8126980000     0.1857930000    -0.7705310000
   22      C       5.4079190000     1.4431400000    -0.6217090000
   23      C       6.3237720000     0.2448530000    -0.8372220000
   24      C       7.5351920000     0.2595960000     0.0982610000
   25      O       5.8597880000     2.5587540000    -0.3782340000
   26      H       6.6599630000     0.2959050000    -1.8798470000
   27      H       5.7644570000    -0.6899830000    -0.7370680000
   28      H       8.0788590000     1.2003180000     0.0053990000
   29      H       8.2127860000    -0.5618330000    -0.1452410000
   30      H       7.2290160000     0.1492750000     1.1416330000
 ----------------------------------------------------------------

   15    -838.0624410819      5.63e-09  Convergence criterion met
 Total energy in the final basis set =     -838.0839807972

                    Orbital Energies (a.u.)
 --------------------------------------------------------------

 Alpha MOs
 -- Occupied --
-19.1409 -19.1253 -19.1099 -14.3659 -14.3384 -10.2929 -10.2902 -10.2781
-10.2532 -10.2356 -10.2089 -10.2084 -10.1984 -10.1972 -10.1959 -10.1957
-10.1834 -10.1601  -1.0772  -1.0654  -1.0567  -0.9605  -0.9375  -0.8897
 -0.8211  -0.7867  -0.7782  -0.7599  -0.7053  -0.6704  -0.6495  -0.6311
 -0.6108  -0.5920  -0.5652  -0.5431  -0.5382  -0.5103  -0.5072  -0.4859
 -0.4767  -0.4697  -0.4591  -0.4577  -0.4508  -0.4503  -0.4380  -0.4312
 -0.4234  -0.4152  -0.3890  -0.3835  -0.3739  -0.3690  -0.3689  -0.3599
 -0.3485  -0.3204  -0.2978  -0.2858  -0.2827  -0.2813  -0.2777  -0.2248

          Ground-State Mulliken Net Atomic Charges

     Atom                 Charge (a.u.)
  ----------------------------------------
      1 C                     0.258864
      2 C                     0.473679
      3 C                     0.386351
      4 C                     0.180635
      5 C                    -0.203195
      6 C                     0.186253
      7 C                    -1.106733
      8 C                     0.044070
      9 C                     0.260140
     10 C                    -1.462631
     11 O                    -0.262142
     12 O                    -0.265862
     13 N                    -0.408370
     14 H                     0.201646
     15 H                     0.320239
     16 H                     0.320628
     17 H                     0.196515
     18 H                     0.325429
     19 H                     0.282916
     20 N                    -0.003091
     21 H                     0.397541
     22 C                    -0.335304
     23 C                     0.309845
     24 C                    -0.541655
     25 O                    -0.447642
     26 H                     0.216596
     27 H                     0.222468
     28 H                     0.129713
     29 H                     0.208901
     30 H                     0.114194
  ----------------------------------------
  Sum of atomic charges =     0.000000

                    Cartesian Multipole Moments
 -----------------------------------------------------------------
    Charge (ESU x 10^10)
                 0.0000
    Dipole Moment (Debye)
         X      -1.9694      Y      -1.7625      Z      -0.0062
       Tot       2.6429
    Quadrupole Moments (Debye-Ang)
        XX     -94.2973     XY     -16.6724     YY    -116.0569
        XZ      -6.6235     YZ       2.1132     ZZ    -106.5226

 Total job time:  662.44s(wall), 5184.07s(cpu)
        *  Thank you very much for using Q-Chem.  Have a nice day.  *
