 Q-Chem 5.4, Q-Chem, Inc., Pleasanton, CA (2021)
 Q-Chem 5.4.0 for Intel X86 EM64T Linux

User input:
--------------------------------------------------------------
$molecule
-1 2
C                  4.8887530000     -2.9377560000     -0.3164240000
C                  5.6471980000     -2.0819760000     -1.0765310000
C                  5.1050370000     -0.8614360000     -1.5266880000
C                  3.5574660000     -2.6077410000      0.0243950000
C                  2.9745820000     -1.3759160000     -0.4158350000
C                  3.7996830000     -0.5097740000     -1.2077060000
C                  2.8158070000     -3.5628460000      0.8315890000
C                  1.4548200000     -3.2411290000      1.1887180000
C                  0.8616110000     -2.0154620000      0.7559310000
C                  1.5979160000     -1.0513970000     -0.0539790000
C                  0.6990390000     -4.1533020000      1.9783340000
C                 -0.6118710000     -3.8438430000      2.3224490000
C                 -0.4840980000     -1.7323290000      1.1278810000
C                 -1.1960880000     -2.6460450000      1.9012050000
O                  3.3607910000     -4.6570550000      1.2118260000
O                  1.0273290000      0.0277590000     -0.4160780000
O                  1.2386570000     -5.3219000000      2.4011640000
H                  5.2764580000     -3.8816940000      0.0439350000
H                  6.6698730000     -2.3359130000     -1.3381360000
H                  5.7192470000     -0.2020260000     -2.1240710000
O                  3.2519190000      0.6653260000     -1.6311390000
H                  2.1745170000     -5.3164500000      2.0328250000
O                 -1.0935340000     -0.5867750000      0.7448320000
H                 -2.2185310000     -2.4026420000      2.1685060000
H                 -1.1694400000     -4.5529460000      2.9245610000
H                 -0.3883730000     -0.1034370000      0.2074060000
C                  4.0325410000      1.5430340000     -2.4114240000
H                  3.3888230000      2.3972060000     -2.6232780000
H                  4.3453530000      1.0836090000     -3.3582770000
H                  4.9247800000      1.8886870000     -1.8730090000
$end
$rem
MAX_SCF_CYCLES=200
BASIS  =  6-311++G(d,p)
GUI  =  2
JOB_TYPE  =  SP
METHOD  =  B3LYP
SOLVENT_METHOD = COSMO
$end
$solvent
dielectric 37.219
opticaldielectric 1.43
$end

--------------------------------------------------------------

             Standard Nuclear Orientation (Angstroms)
    I     Atom           X                Y                Z
 ----------------------------------------------------------------
    1      C      -1.5770512577    -2.4863037620    -0.0001651306
    2      C      -2.9375463521    -2.3007937206    -0.0001476362
    3      C      -3.4770138991    -0.9987674129     0.0000139847
    4      C      -0.7008555691    -1.3773972408    -0.0000650836
    5      C      -1.2144234059    -0.0405363220    -0.0000224573
    6      C      -2.6410403943     0.1105175085     0.0000937231
    7      C       0.7270037523    -1.6513744699     0.0000865743
    8      C       1.6357862715    -0.5300168589     0.0000084686
    9      C       1.1362470783     0.8086099353    -0.0000095712
   10      C      -0.2943588290     1.0930168366    -0.0002033557
   11      C       3.0405029989    -0.7613798749     0.0000092319
   12      C       3.9161391546     0.3184008235     0.0000184436
   13      C       2.0636150780     1.8900129143     0.0000204031
   14      C       3.4318086369     1.6294690934     0.0000451759
   15      O       1.1596152585    -2.8562513697     0.0002013333
   16      O      -0.6924713500     2.3024668330    -0.0003015742
   17      O       3.5392176102    -2.0210932614    -0.0000179146
   18      H      -1.1326487029    -3.4730656848    -0.0001923600
   19      H      -3.6102892130    -3.1529688031    -0.0002054268
   20      H      -4.5510660258    -0.8748563706     0.0000741325
   21      O      -3.1382325420     1.3805572026     0.0003362851
   22      H       2.7273353555    -2.6147130585    -0.0000611966
   23      O       1.6441644705     3.1762842423     0.0000259783
   24      H       4.1130845343     2.4732390175     0.0000397673
   25      H       4.9822774353     0.1194076551     0.0000354344
   26      H       0.6369393053     3.1042298991     0.0000683600
   27      C      -4.5357543098     1.5690235019     0.0000468679
   28      H      -4.6852809991     2.6490728240     0.0001793002
   29      H      -5.0087300997     1.1393793873     0.8928811855
   30      H      -5.0083228883     1.1396802496    -0.8931498921
 ----------------------------------------------------------------

    9    -954.0905120544      8.71e-06  Convergence criterion met
 Total energy in the final basis set =     -954.0905120544
    4    -954.1733743848      8.43e-06  Convergence criterion met
 Total energy in the final basis set =     -954.1733743848

                    Orbital Energies (a.u.)
 --------------------------------------------------------------

 Alpha MOs
 -- Occupied --
-19.1546 -19.1331 -19.1309 -19.0933 -19.0928 -10.2444 -10.2431 -10.2362
-10.2328 -10.2326 -10.2148 -10.1859 -10.1821 -10.1810 -10.1800 -10.1774
-10.1721 -10.1715 -10.1709 -10.1666  -1.0741  -1.0568  -1.0553  -1.0112
 -1.0091  -0.8661  -0.8485  -0.7928  -0.7650  -0.7493  -0.7376  -0.6997
 -0.6788  -0.6411  -0.6368  -0.5979  -0.5740  -0.5509  -0.5357  -0.5234
 -0.5116  -0.4979  -0.4854  -0.4711  -0.4703  -0.4555  -0.4423  -0.4419
 -0.4302  -0.4286  -0.4100  -0.4090  -0.4077  -0.4039  -0.4016  -0.3772
 -0.3755  -0.3692  -0.3636  -0.3589  -0.3522  -0.3360  -0.3237  -0.3110
 -0.2761  -0.2636  -0.2557  -0.2475  -0.2383  -0.2157  -0.1479

 Beta MOs
 -- Occupied --
-19.1546 -19.1325 -19.1304 -19.0887 -19.0884 -10.2444 -10.2413 -10.2339
-10.2324 -10.2319 -10.2148 -10.1854 -10.1813 -10.1809 -10.1801 -10.1769
-10.1713 -10.1707 -10.1698 -10.1664  -1.0739  -1.0549  -1.0534  -1.0042
 -1.0015  -0.8636  -0.8470  -0.7889  -0.7633  -0.7474  -0.7347  -0.6986
 -0.6725  -0.6388  -0.6347  -0.5968  -0.5728  -0.5487  -0.5345  -0.5219
 -0.5105  -0.4960  -0.4844  -0.4696  -0.4695  -0.4541  -0.4407  -0.4338
 -0.4270  -0.4263  -0.4089  -0.4075  -0.4028  -0.3982  -0.3947  -0.3762
 -0.3686  -0.3616  -0.3575  -0.3538  -0.3507  -0.3355  -0.3189  -0.3041
 -0.2597  -0.2597  -0.2510  -0.2440  -0.2303  -0.2060

          Ground-State Mulliken Net Atomic Charges

     Atom                 Charge (a.u.)    Spin (a.u.)
  --------------------------------------------------------
      1 C                    -0.251649       0.042819
      2 C                    -0.420574       0.037013
      3 C                    -0.004660       0.067114
      4 C                     0.129850       0.013784
      5 C                     0.048456       0.026413
      6 C                     0.078715       0.017311
      7 C                    -0.318992       0.136884
      8 C                     0.357171      -0.027263
      9 C                     0.699228       0.017124
     10 C                    -0.394903       0.098970
     11 C                    -0.254237       0.063875
     12 C                    -0.116602       0.048564
     13 C                    -0.306740       0.042349
     14 C                    -0.206111       0.079199
     15 O                    -0.523848       0.166018
     16 O                    -0.521307       0.160141
     17 O                    -0.432978       0.018982
     18 H                     0.178061      -0.001549
     19 H                     0.219055      -0.003170
     20 H                     0.207825      -0.004219
     21 O                    -0.176017       0.002257
     22 H                     0.372605      -0.003596
     23 O                    -0.449884       0.015278
     24 H                     0.216274      -0.006804
     25 H                     0.217118      -0.004820
     26 H                     0.410230      -0.003007
     27 C                    -0.302847      -0.000109
     28 H                     0.208258      -0.000133
     29 H                     0.169243       0.000287
     30 H                     0.169258       0.000287
  --------------------------------------------------------
  Sum of atomic charges =    -1.000000

                    Cartesian Multipole Moments
 -----------------------------------------------------------------
    Charge (ESU x 10^10)
                -4.8032
    Dipole Moment (Debye)
         X      -8.1345      Y      -0.2401      Z       0.0003
       Tot       8.1380
    Quadrupole Moments (Debye-Ang)
        XX    -116.1963     XY       9.5795     YY    -154.2750
        XZ      -0.0045     YZ       0.0015     ZZ    -121.6430

 Total job time:  99.35s(wall), 740.33s(cpu)
        *  Thank you very much for using Q-Chem.  Have a nice day.  *
