 Gaussian 16, Revision A.03,
 Gaussian 16:  ES64L-G16RevA.03 25-Dec-2016

 --------------------------------------
 #P UB3LYP/6-311++G(d,p) nosym opt freq
 --------------------------------------

 -------
 Reduced
 -------
 Symbolic Z-matrix:
 Charge = -2 Multiplicity = 1

 SCF Done:  E(UB3LYP) =  -6108.82292141     A.U. after   48 cycles
 SCF Done:  E(UB3LYP) =  -6108.85273455     A.U. after   34 cycles
 SCF Done:  E(UB3LYP) =  -6108.86281151     A.U. after   32 cycles
 SCF Done:  E(UB3LYP) =  -6108.86972711     A.U. after   37 cycles
 SCF Done:  E(UB3LYP) =  -6108.87447927     A.U. after   35 cycles
 SCF Done:  E(UB3LYP) =  -6108.87792298     A.U. after   31 cycles
 SCF Done:  E(UB3LYP) =  -6108.87966663     A.U. after   26 cycles
 SCF Done:  E(UB3LYP) =  -6108.88088041     A.U. after   27 cycles
 SCF Done:  E(UB3LYP) =  -6108.88156957     A.U. after   25 cycles
 SCF Done:  E(UB3LYP) =  -6108.88223401     A.U. after   26 cycles
 SCF Done:  E(UB3LYP) =  -6108.88270794     A.U. after   29 cycles
 SCF Done:  E(UB3LYP) =  -6108.88325439     A.U. after   25 cycles
 SCF Done:  E(UB3LYP) =  -6108.88334025     A.U. after   23 cycles
 SCF Done:  E(UB3LYP) =  -6108.88337497     A.U. after   27 cycles
 SCF Done:  E(UB3LYP) =  -6108.88337674     A.U. after   19 cycles
 SCF Done:  E(UB3LYP) =  -6108.88337660     A.U. after   22 cycles
 SCF Done:  E(UB3LYP) =  -6108.88337721     A.U. after   20 cycles
 Optimization completed.
    -- Stationary point found.
 Normal termination of Gaussian 16 at Mon Dec 18 06:48:13 2023.

 ----------------------------------------------------------------------
 #P Geom=AllCheck Guess=TCheck SCRF=Check GenChk UB3LYP/6-311++G(d,p) F
 req
 ----------------------------------------------------------------------

 Structure from the checkpoint file:  "025-an.chk"
 -------
 Reduced
 -------
 Charge = -2 Multiplicity = 1

                          Input orientation:
 ---------------------------------------------------------------------
 Center     Atomic      Atomic             Coordinates (Angstroms)
 Number     Number       Type             X           Y           Z
 ---------------------------------------------------------------------
      1          6           0       -1.877874   -0.186982    1.390753
      2          6           0       -2.734780    0.670011    0.588279
      3          6           0       -2.197491    1.480428   -0.410602
      4          6           0       -0.811187    1.591307   -0.723417
      5          6           0        0.045707    0.734232    0.078983
      6          6           0       -0.491580   -0.076162    1.077884
      7          8           0       -0.297584    2.346406   -1.628849
      8          8           0       -2.391480   -0.942035    2.296221
      9         35           0        0.699636   -1.114974    2.237192
     10         35           0       -3.388690    2.519162   -1.569996
     11          7           0        1.431421    0.862244   -0.220566
     12          7           0       -4.120494    0.541889    0.887787
     13          6           0       -4.797459    1.687530    1.517577
     14          6           0       -6.296619    1.380430    1.641614
     15          6           0       -7.075265    2.538548    2.283550
     16          6           0       -6.482910    2.943962    3.641476
     17          6           0       -4.982286    3.251641    3.524468
     18          6           0       -4.216858    2.079724    2.893127
     19          6           0        2.108224   -0.283478   -0.850380
     20          6           0        3.607542    0.023093   -0.973822
     21          6           0        1.527946   -0.675142   -2.226215
     22          6           0        2.293158   -1.847190   -2.857582
     23          6           0        4.385975   -1.135161   -1.615777
     24          6           0        3.793934   -1.540026   -2.974004
     25          1           0        1.448236    1.647370   -0.879839
     26          1           0       -4.137262   -0.243261    1.547038
     27          1           0       -4.686443    2.543283    0.844252
     28          1           0       -6.422002    0.473109    2.250426
     29          1           0       -6.691589    1.148526    0.647003
     30          1           0       -8.135228    2.272429    2.397915
     31          1           0       -7.045290    3.405995    1.609807
     32          1           0       -6.622707    2.118113    4.353367
     33          1           0       -7.026189    3.805804    4.053339
     34          1           0       -4.569814    3.492936    4.513445
     35          1           0       -4.848718    4.149960    2.905556
     36          1           0       -4.256148    1.205148    3.555267
     37          1           0       -3.157384    2.322890    2.772809
     38          1           0        1.996664   -1.139336   -0.177284
     39          1           0        4.002240    0.254600    0.020987
     40          1           0        3.733473    0.930520   -1.582361
     41          1           0        1.567795    0.199570   -2.888143
     42          1           0        0.468339   -0.917928   -2.106321
     43          1           0        1.880936   -2.088092   -3.846760
     44          1           0        2.159051   -2.745611   -2.238935
     45          1           0        4.355443   -2.002759   -0.942255
     46          1           0        5.446078   -0.869413   -1.729715
     47          1           0        4.337038   -2.401964   -3.385895
     48          1           0        3.934273   -0.714054   -3.685647
 ---------------------------------------------------------------------

 SCF Done:  E(UB3LYP) =  -6108.88337721     A.U. after    3 cycles

 Alpha  occ. eigenvalues -- -482.58861-482.58861 -62.24134 -62.24134 -56.06135
 Alpha  occ. eigenvalues --  -56.06135 -56.05813 -56.05813 -56.05782 -56.05782
 Alpha  occ. eigenvalues --  -18.80805 -18.80804 -14.07742 -14.07742  -9.99988
 Alpha  occ. eigenvalues --   -9.99987  -9.99812  -9.99812  -9.99235  -9.99234
 Alpha  occ. eigenvalues --   -9.99111  -9.99111  -9.97954  -9.97954  -9.96974
 Alpha  occ. eigenvalues --   -9.96972  -9.96591  -9.96590  -9.96478  -9.96478
 Alpha  occ. eigenvalues --   -9.95655  -9.95654  -8.45089  -8.45089  -6.28112
 Alpha  occ. eigenvalues --   -6.28112  -6.27036  -6.27036  -6.26940  -6.26940
 Alpha  occ. eigenvalues --   -2.39227  -2.39227  -2.38936  -2.38935  -2.38862
 Alpha  occ. eigenvalues --   -2.38862  -2.38007  -2.38007  -2.38004  -2.38004
 Alpha  occ. eigenvalues --   -0.73719  -0.73115  -0.69046  -0.68824  -0.64146
 Alpha  occ. eigenvalues --   -0.64110  -0.58886  -0.56652  -0.56251  -0.56203
 Alpha  occ. eigenvalues --   -0.54339  -0.54171  -0.51789  -0.45616  -0.43312
 Alpha  occ. eigenvalues --   -0.43141  -0.42910  -0.42202  -0.40502  -0.37603
 Alpha  occ. eigenvalues --   -0.37453  -0.33741  -0.32130  -0.30531  -0.29606
 Alpha  occ. eigenvalues --   -0.28089  -0.27245  -0.26254  -0.26060  -0.26031
 Alpha  occ. eigenvalues --   -0.25341  -0.25093  -0.22078  -0.21754  -0.21473
 Alpha  occ. eigenvalues --   -0.20597  -0.20130  -0.20104  -0.20056  -0.19191
 Alpha  occ. eigenvalues --   -0.16693  -0.16683  -0.16470  -0.16339  -0.15974
 Alpha  occ. eigenvalues --   -0.15527  -0.15379  -0.14715  -0.13996  -0.13725
 Alpha  occ. eigenvalues --   -0.13502  -0.13307  -0.12426  -0.12104  -0.11589
 Alpha  occ. eigenvalues --   -0.10646  -0.08588  -0.06496  -0.05218  -0.04990
 Alpha  occ. eigenvalues --   -0.03869  -0.03794   0.00324   0.00845   0.01352
 Alpha  occ. eigenvalues --    0.03021   0.10287
 Alpha virt. eigenvalues --    0.11760   0.11873   0.13972   0.13986   0.14912
 Alpha virt. eigenvalues --    0.14924   0.15885   0.15948   0.17355   0.17404
 Alpha virt. eigenvalues --    0.18017   0.18071   0.18365   0.18390   0.18885

  Beta  occ. eigenvalues -- -482.58861-482.58861 -62.24134 -62.24134 -56.06135
  Beta  occ. eigenvalues --  -56.06135 -56.05813 -56.05813 -56.05782 -56.05782
  Beta  occ. eigenvalues --  -18.80805 -18.80804 -14.07742 -14.07742  -9.99988
  Beta  occ. eigenvalues --   -9.99987  -9.99812  -9.99812  -9.99235  -9.99234
  Beta  occ. eigenvalues --   -9.99111  -9.99111  -9.97954  -9.97954  -9.96974
  Beta  occ. eigenvalues --   -9.96972  -9.96591  -9.96590  -9.96478  -9.96478
  Beta  occ. eigenvalues --   -9.95655  -9.95654  -8.45089  -8.45089  -6.28112
  Beta  occ. eigenvalues --   -6.28112  -6.27036  -6.27036  -6.26940  -6.26940
  Beta  occ. eigenvalues --   -2.39227  -2.39227  -2.38936  -2.38935  -2.38862
  Beta  occ. eigenvalues --   -2.38862  -2.38007  -2.38007  -2.38004  -2.38004
  Beta  occ. eigenvalues --   -0.73719  -0.73115  -0.69046  -0.68824  -0.64146
  Beta  occ. eigenvalues --   -0.64110  -0.58886  -0.56652  -0.56251  -0.56203
  Beta  occ. eigenvalues --   -0.54339  -0.54171  -0.51789  -0.45616  -0.43312
  Beta  occ. eigenvalues --   -0.43141  -0.42910  -0.42202  -0.40502  -0.37603
  Beta  occ. eigenvalues --   -0.37453  -0.33741  -0.32130  -0.30531  -0.29606
  Beta  occ. eigenvalues --   -0.28089  -0.27245  -0.26254  -0.26060  -0.26031
  Beta  occ. eigenvalues --   -0.25341  -0.25093  -0.22078  -0.21754  -0.21473
  Beta  occ. eigenvalues --   -0.20597  -0.20130  -0.20104  -0.20056  -0.19191
  Beta  occ. eigenvalues --   -0.16693  -0.16683  -0.16470  -0.16339  -0.15974
  Beta  occ. eigenvalues --   -0.15527  -0.15379  -0.14715  -0.13996  -0.13725
  Beta  occ. eigenvalues --   -0.13502  -0.13307  -0.12426  -0.12104  -0.11589
  Beta  occ. eigenvalues --   -0.10646  -0.08588  -0.06496  -0.05218  -0.04990
  Beta  occ. eigenvalues --   -0.03869  -0.03794   0.00324   0.00845   0.01352
  Beta  occ. eigenvalues --    0.03021   0.10287
  Beta virt. eigenvalues --    0.11760   0.11873   0.13972   0.13986   0.14912
  Beta virt. eigenvalues --    0.14924   0.15885   0.15948   0.17355   0.17404
  Beta virt. eigenvalues --    0.18017   0.18071   0.18365   0.18390   0.18885

 Mulliken charges and spin densities:
               1          2
     1  C   -0.856014  -0.000000
     2  C   -0.148483   0.000000
     3  C    1.051312   0.000000
     4  C   -0.856069  -0.000000
     5  C   -0.148745   0.000000
     6  C    1.051136   0.000000
     7  O   -0.442682   0.000000
     8  O   -0.442688   0.000000
     9  Br  -0.256745  -0.000000
    10  Br  -0.256756  -0.000000
    11  N    0.332613   0.000000
    12  N    0.332577   0.000000
    13  C   -0.648019   0.000000
    14  C   -0.216628  -0.000000
    15  C   -0.263564   0.000000
    16  C   -0.030189   0.000000
    17  C   -0.452609  -0.000000
    18  C   -0.167948   0.000000
    19  C   -0.648145   0.000000
    20  C   -0.216400  -0.000000
    21  C   -0.168075   0.000000
    22  C   -0.452442  -0.000000
    23  C   -0.263519   0.000000
    24  C   -0.030283   0.000000
    25  H    0.227806  -0.000000
    26  H    0.227783  -0.000000
    27  H    0.070750   0.000000
    28  H    0.090038  -0.000000
    29  H    0.162059   0.000000
    30  H   -0.087380  -0.000000
    31  H    0.139315   0.000000
    32  H    0.131117   0.000000
    33  H   -0.217030  -0.000000
    34  H    0.095272  -0.000000
    35  H    0.117986  -0.000000
    36  H    0.181444  -0.000000
    37  H    0.187834   0.000000
    38  H    0.070689   0.000000
    39  H    0.162098   0.000000
    40  H    0.089979  -0.000000
    41  H    0.181413  -0.000000
    42  H    0.187840   0.000000
    43  H    0.095251  -0.000000
    44  H    0.117986  -0.000000
    45  H    0.139329   0.000000
    46  H   -0.087298  -0.000000
    47  H   -0.217003  -0.000000
    48  H    0.131089   0.000000
 Sum of Mulliken charges =  -2.00000  -0.00000

 Dipole moment (field-independent basis, Debye):
    X=             12.9167    Y=             -6.7448    Z=             -3.2054  Tot=             14.9200
 Quadrupole moment (field-independent basis, Debye-Ang):
   XX=           -307.4499   YY=           -231.3243   ZZ=           -240.9248
   XY=             40.4653   XZ=             40.3792   YZ=              2.8471

  Exact polarizability:7474.445********2033.551********1795.3672511.844
 Approx polarizability:6166.753********1798.942********1320.1212184.016

                      1                      2                      3
                      A                      A                      A
 Frequencies --     21.1960                27.2978                28.1750
 Red. masses --      4.6980                 3.0841                 3.0646
 Frc consts  --      0.0012                 0.0014                 0.0014
 IR Inten    --      1.0007                 0.9909                 0.0000

                      4                      5                      6
                      A                      A                      A
 Frequencies --     29.1784                38.4023                57.8365
 Red. masses --      4.7217                 6.2251                 5.5361
 Frc consts  --      0.0024                 0.0054                 0.0109
 IR Inten    --      1.5953                 0.0000                 0.0000

                      7                      8                      9
                      A                      A                      A
 Frequencies --     61.8510               116.2384               116.9985
 Red. masses --      9.9194                 7.7116                 8.2540
 Frc consts  --      0.0224                 0.0614                 0.0666
 IR Inten    --      9.0356                23.8554                 0.0003

                     10                     11                     12
                      A                      A                      A
 Frequencies --    131.8299               136.7466               146.6192
 Red. masses --      8.4731                 3.9762                 3.6074
 Frc consts  --      0.0868                 0.0438                 0.0457
 IR Inten    --      5.9314                 0.0000                 8.4489

                     13                     14                     15
                      A                      A                      A
 Frequencies --    186.4271               192.7064               201.4009
 Red. masses --      8.4660                 8.4494                 6.1801
 Frc consts  --      0.1734                 0.1849                 0.1477
 IR Inten    --      0.0000                 0.0000                18.4224

                     16                     17                     18
                      A                      A                      A
 Frequencies --    217.6556               227.9719               232.7418
 Red. masses --      3.4087                 1.9127                 2.0824
 Frc consts  --      0.0951                 0.0586                 0.0665
 IR Inten    --      0.0000                 4.2881                 0.0000

                     19                     20                     21
                      A                      A                      A
 Frequencies --    255.9045               291.8272               310.3503
 Red. masses --      5.7096                 5.8999                 9.7072
 Frc consts  --      0.2203                 0.2960                 0.5509
 IR Inten    --     12.8049                72.6882                 0.0000

                     22                     23                     24
                      A                      A                      A
 Frequencies --    321.2399               325.4536               342.8419
 Red. masses --      2.0438                 2.1917                 8.2509
 Frc consts  --      0.1243                 0.1368                 0.5714
 IR Inten    --      0.0000                 1.3743                 0.0000

                     25                     26                     27
                      A                      A                      A
 Frequencies --    368.2517               376.9381               425.5434
 Red. masses --      3.4096                 3.5463                 2.8792
 Frc consts  --      0.2724                 0.2969                 0.3072
 IR Inten    --     57.8673                 0.0000                60.2244

                     28                     29                     30
                      A                      A                      A
 Frequencies --    427.9797               430.6052               449.7540
 Red. masses --      2.8605                 3.6057                 3.7971
 Frc consts  --      0.3087                 0.3939                 0.4525
 IR Inten    --      0.0002                69.8278                 0.0000

                     31                     32                     33
                      A                      A                      A
 Frequencies --    452.0110               456.9288               475.9089
 Red. masses --      2.6842                 2.6066                 4.2960
 Frc consts  --      0.3231                 0.3206                 0.5733
 IR Inten    --     15.7151                 0.0000                 0.0000

                     34                     35                     36
                      A                      A                      A
 Frequencies --    501.7549               538.4913               551.0170
 Red. masses --      3.2146                 2.5102                 2.2327
 Frc consts  --      0.4768                 0.4289                 0.3994
 IR Inten    --     31.7550                17.2276                 0.0000

                     37                     38                     39
                      A                      A                      A
 Frequencies --    592.3368               593.0340               720.0531
 Red. masses --      5.5616                 6.2380                 7.1272
 Frc consts  --      1.1497                 1.2926                 2.1772
 IR Inten    --      0.0004                13.3793                39.0042

                     40                     41                     42
                      A                      A                      A
 Frequencies --    731.3294               741.5180               750.6770
 Red. masses --      6.0576                 7.9751                 9.4188
 Frc consts  --      1.9089                 2.5836                 3.1272
 IR Inten    --      0.0000                 0.0000               194.7100

                     43                     44                     45
                      A                      A                      A
 Frequencies --    785.4091               785.5340               790.8180
 Red. masses --      1.7375                 1.6785                 1.9986
 Frc consts  --      0.6315                 0.6103                 0.7364
 IR Inten    --      0.0085                56.9649                 0.0001

                     46                     47                     48
                      A                      A                      A
 Frequencies --    791.9213               815.7702               840.7100
 Red. masses --      2.0862                 7.7369                 2.4570
 Frc consts  --      0.7709                 3.0336                 1.0232
 IR Inten    --     18.7755                 0.0000                16.0783

                     49                     50                     51
                      A                      A                      A
 Frequencies --    842.7631               870.7640               877.8447
 Red. masses --      2.4743                 1.5450                 1.5458
 Frc consts  --      1.0354                 0.6902                 0.7018
 IR Inten    --      0.0000               237.7631                 0.0001

                     52                     53                     54
                      A                      A                      A
 Frequencies --    895.5693               897.7296               903.4396
 Red. masses --      1.9300                 1.8225                 2.1042
 Frc consts  --      0.9120                 0.8654                 1.0119
 IR Inten    --     62.6788                 0.0000               181.9850

                     55                     56                     57
                      A                      A                      A
 Frequencies --    925.8342               925.9264               930.1558
 Red. masses --      1.5588                 1.5158                 2.2716
 Frc consts  --      0.7872                 0.7657                 1.1580
 IR Inten    --      0.0110                82.2074                 0.0001

                     58                     59                     60
                      A                      A                      A
 Frequencies --    983.3732               989.4911              1026.0454
 Red. masses --      2.0681                 1.8149                 1.7559
 Frc consts  --      1.1783                 1.0470                 1.0891
 IR Inten    --    142.8320                 0.0000               173.5161

                     61                     62                     63
                      A                      A                      A
 Frequencies --   1026.6343              1041.5434              1057.4140
 Red. masses --      1.7541                 3.6338                 1.3978
 Frc consts  --      1.0892                 2.3225                 0.9208
 IR Inten    --      0.0033               387.8708                 0.0001

                     64                     65                     66
                      A                      A                      A
 Frequencies --   1058.1252              1080.7987              1080.9952
 Red. masses --      1.4363                 1.1440                 1.0718
 Frc consts  --      0.9474                 0.7874                 0.7379
 IR Inten    --     10.3034                27.5835                 0.0001

                     67                     68                     69
                      A                      A                      A
 Frequencies --   1086.3632              1089.9498              1093.1712
 Red. masses --      3.2071                 3.0205                 3.4299
 Frc consts  --      2.2300                 2.1142                 2.4149
 IR Inten    --    169.9050                 0.0001               646.8927

                     70                     71                     72
                      A                      A                      A
 Frequencies --   1105.2545              1127.2826              1156.2485
 Red. masses --      3.0620                 5.7255                 3.2721
 Frc consts  --      2.2038                 4.2868                 2.5774
 IR Inten    --      0.0002               710.5587               830.2748

                     73                     74                     75
                      A                      A                      A
 Frequencies --   1159.1863              1174.9888              1195.1294
 Red. masses --      7.4515                 2.4531                 2.0928
 Frc consts  --      5.8993                 1.9954                 1.7612
 IR Inten    --      0.0000                 0.0000               271.7564

                     76                     77                     78
                      A                      A                      A
 Frequencies --   1197.9041              1201.4401              1266.3346
 Red. masses --      1.5624                 2.0947                 1.3778
 Frc consts  --      1.3210                 1.7815                 1.3018
 IR Inten    --      0.0007                67.7421                 0.0000

                     79                     80                     81
                      A                      A                      A
 Frequencies --   1270.9065              1273.4181              1276.7016
 Red. masses --      1.2915                 1.2759                 1.3771
 Frc consts  --      1.2291                 1.2191                 1.3225
 IR Inten    --     44.8198                 0.0001               484.6040

                     82                     83                     84
                      A                      A                      A
 Frequencies --   1279.2511              1279.6245              1321.9239
 Red. masses --      1.2717                 1.2928                 1.5202
 Frc consts  --      1.2261                 1.2472                 1.5651
 IR Inten    --      0.0015               234.8424                 0.0001

                     85                     86                     87
                      A                      A                      A
 Frequencies --   1326.6362              1328.8088              1342.1503
 Red. masses --      1.3330                 1.3969                 1.2434
 Frc consts  --      1.3822                 1.4533                 1.3197
 IR Inten    --     98.0894                 0.0005                39.5856

                     88                     89                     90
                      A                      A                      A
 Frequencies --   1352.0526              1356.7328              1358.2091
 Red. masses --      2.1672                 1.3656                 1.5401
 Frc consts  --      2.3342                 1.4811                 1.6739
 IR Inten    --      0.0000                 0.0925                 0.0000

                     91                     92                     93
                      A                      A                      A
 Frequencies --   1365.4630              1365.6764              1367.4753
 Red. masses --      1.4273                 1.4243                 1.4652
 Frc consts  --      1.5679                 1.5652                 1.6143
 IR Inten    --     44.3501                 0.0001               207.7902

                     94                     95                     96
                      A                      A                      A
 Frequencies --   1368.4706              1378.1737              1378.3151
 Red. masses --      1.5051                 1.3540                 1.3395
 Frc consts  --      1.6606                 1.5152                 1.4993
 IR Inten    --      0.0001                 0.1734                52.5448

                     97                     98                     99
                      A                      A                      A
 Frequencies --   1388.6955              1394.0971              1398.0718
 Red. masses --      1.4647                 2.4956                 2.1324
 Frc consts  --      1.6642                 2.8577                 2.4557
 IR Inten    --    221.9483                 0.0001                 0.0001

                    100                    101                    102
                      A                      A                      A
 Frequencies --   1446.0770              1455.1164              1478.1864
 Red. masses --      5.9048                 8.5506                 1.0920
 Frc consts  --      7.2751                10.6670                 1.4058
 IR Inten    --   2489.4313               249.3771                 0.0076

                    103                    104                    105
                      A                      A                      A
 Frequencies --   1478.2963              1478.7637              1479.0964
 Red. masses --      1.0986                 1.0895                 1.0907
 Frc consts  --      1.4145                 1.4038                 1.4059
 IR Inten    --    178.4580               484.7494                 0.0073

                    106                    107                    108
                      A                      A                      A
 Frequencies --   1483.6239              1483.7537              1487.7530
 Red. masses --      1.0987                 1.1048                 1.0856
 Frc consts  --      1.4249                 1.4330                 1.4157
 IR Inten    --      0.0076                38.2359                 0.0071

                    109                    110                    111
                      A                      A                      A
 Frequencies --   1487.8575              1501.5567              1502.4074
 Red. masses --      1.0869                 1.0996                 1.1002
 Frc consts  --      1.4176                 1.4608                 1.4632
 IR Inten    --     31.8800              1092.6972                 0.0061

                    112                    113                    114
                      A                      A                      A
 Frequencies --   1553.4858              1557.8764              1580.4218
 Red. masses --      1.6501                 1.2886                 4.1068
 Frc consts  --      2.3463                 1.8426                 6.0436
 IR Inten    --      0.0018               199.5556                 0.0000

                    115                    116                    117
                      A                      A                      A
 Frequencies --   2967.3741              2967.4477              2976.3909
 Red. masses --      1.0608                 1.0608                 1.0607
 Frc consts  --      5.5036                 5.5036                 5.5363
 IR Inten    --    147.9184                 0.0099                 0.6658

                    118                    119                    120
                      A                      A                      A
 Frequencies --   2976.3923              2977.8158              2977.8289
 Red. masses --      1.0607                 1.0661                 1.0660
 Frc consts  --      5.5366                 5.5700                 5.5693
 IR Inten    --    117.6729                 0.3176               236.4728

                    121                    122                    123
                      A                      A                      A
 Frequencies --   2980.4462              2980.5839              2995.6393
 Red. masses --      1.0686                 1.0690                 1.0908
 Frc consts  --      5.5929                 5.5952                 5.7671
 IR Inten    --    381.4505                 0.0137               546.7386

                    124                    125                    126
                      A                      A                      A
 Frequencies --   2995.7789              3000.2829              3000.2868
 Red. masses --      1.0902                 1.0895                 1.0897
 Frc consts  --      5.7649                 5.7782                 5.7792
 IR Inten    --      0.0113                63.9548                 0.1214

                    127                    128                    129
                      A                      A                      A
 Frequencies --   3010.9024              3010.9142              3020.0489
 Red. masses --      1.0896                 1.0895                 1.0933
 Frc consts  --      5.8200                 5.8195                 5.8754
 IR Inten    --      0.0065               121.3285               547.2325

                    130                    131                    132
                      A                      A                      A
 Frequencies --   3020.1473              3035.3517              3035.7683
 Red. masses --      1.0934                 1.0817                 1.0816
 Frc consts  --      5.8763                 5.8719                 5.8727
 IR Inten    --      0.0325              1300.8787                 1.4619

                    133                    134                    135
                      A                      A                      A
 Frequencies --   3049.1205              3049.2109              3068.2397
 Red. masses --      1.0926                 1.0925                 1.0972
 Frc consts  --      5.9849                 5.9847                 6.0860
 IR Inten    --      1.4064               107.3867               205.6473

                    136                    137                    138
                      A                      A                      A
 Frequencies --   3068.3144              3365.3418              3365.4397
 Red. masses --      1.0972                 1.0714                 1.0712
 Frc consts  --      6.0859                 7.1489                 7.1485
 IR Inten    --      1.3911               268.6249                 7.3187

 - Thermochemistry -
 -------------------
 Temperature   298.150 Kelvin.  Pressure   1.00000 Atm.
 Atom     1 has atomic number  6 and mass  12.00000

 Molecular mass:   458.02045 amu.
 Principal axes and moments of inertia in atomic units:
                           1         2         3
     Eigenvalues --  6696.11741********************
           X            0.88932   0.10862   0.44420
           Y           -0.36312  -0.42266   0.83036
           Z           -0.27794   0.89975   0.33644
 This molecule is an asymmetric top.
 Rotational symmetry number  1.
 Warning -- assumption of classical behavior for rotation
           may cause significant error
 Rotational temperatures (Kelvin)      0.01293     0.00433     0.00350
 Rotational constants (GHZ):           0.26952     0.09017     0.07287
 Zero-point vibrational energy    1035972.5 (Joules/Mol)
                                  247.60337 (Kcal/Mol)
 Warning -- explicit consideration of  38 degrees of freedom as
           vibrations may cause significant error
 Vibrational temperatures:     30.50    39.28    40.54    41.98    55.25
          (Kelvin)             83.21    88.99   167.24   168.33   189.67
                              196.75   210.95   268.23   277.26   289.77
                              313.16   328.00   334.86   368.19   419.87
                              446.52   462.19   468.26   493.27   529.83
                              542.33   612.26   615.77   619.54   647.10
                              650.34   657.42   684.73   721.91   774.77
                              792.79   852.24   853.24  1036.00  1052.22
                             1066.88  1080.06  1130.03  1130.21  1137.81
                             1139.40  1173.71  1209.59  1212.55  1252.84
                             1263.02  1288.52  1291.63  1299.85  1332.07
                             1332.20  1338.29  1414.85  1423.66  1476.25
                             1477.10  1498.55  1521.38  1522.41  1555.03
                             1555.31  1563.03  1568.19  1572.83  1590.21
                             1621.91  1663.58  1667.81  1690.55  1719.52
                             1723.52  1728.60  1821.97  1828.55  1832.16
                             1836.89  1840.56  1841.09  1901.95  1908.73
                             1911.86  1931.05  1945.30  1952.04  1954.16
                             1964.60  1964.90  1967.49  1968.92  1982.88
                             1983.09  1998.02  2005.79  2011.51  2080.58
                             2093.59  2126.78  2126.94  2127.61  2128.09
                             2134.60  2134.79  2140.54  2140.70  2160.41
                             2161.63  2235.12  2241.44  2273.87  4269.39
                             4269.50  4282.36  4282.36  4284.41  4284.43
                             4288.20  4288.40  4310.06  4310.26  4316.74
                             4316.74  4332.02  4332.03  4345.18  4345.32
                             4367.19  4367.79  4387.00  4387.13  4414.51
                             4414.62  4841.98  4842.12

 Zero-point correction=                           0.394581 (Hartree/Particle)
 Thermal correction to Energy=                    0.418244
 Thermal correction to Enthalpy=                  0.419188
 Thermal correction to Gibbs Free Energy=         0.338008
 Sum of electronic and zero-point Energies=          -6108.488796
 Sum of electronic and thermal Energies=             -6108.465133
 Sum of electronic and thermal Enthalpies=           -6108.464189
 Sum of electronic and thermal Free Energies=        -6108.545369

                     E (Thermal)             CV                S
                      KCal/Mol        Cal/Mol-Kelvin    Cal/Mol-Kelvin
 Total                  262.452             89.923            170.857
 Electronic               0.000              0.000              0.000
 Translational            0.889              2.981             44.254
 Rotational               0.889              2.981             36.449
 Vibrational            260.674             83.962             90.153
 Vibration     1          0.593              1.985              6.519
 Vibration     2          0.593              1.984              6.017
 Vibration     3          0.593              1.984              5.954
 Vibration     4          0.593              1.984              5.885
 Vibration     5          0.594              1.982              5.340
 Vibration     6          0.596              1.974              4.530
 Vibration     7          0.597              1.973              4.397
 Vibration     8          0.608              1.936              3.162
 Vibration     9          0.608              1.935              3.149
 Vibration    10          0.612              1.922              2.919
 Vibration    11          0.614              1.917              2.849
 Vibration    12          0.617              1.906              2.716
 Vibration    13          0.632              1.858              2.263
 Vibration    14          0.635              1.850              2.202
 Vibration    15          0.638              1.838              2.120
 Vibration    16          0.646              1.814              1.979
 Vibration    17          0.651              1.798              1.895
 Vibration    18          0.653              1.791              1.858
 Vibration    19          0.666              1.753              1.690
 Vibration    20          0.687              1.689              1.463
 Vibration    21          0.699              1.654              1.360
 Vibration    22          0.707              1.633              1.304
 Vibration    23          0.710              1.625              1.283
 Vibration    24          0.722              1.590              1.199
 Vibration    25          0.741              1.538              1.087
 Vibration    26          0.747              1.519              1.051
 Vibration    27          0.787              1.415              0.873
 Vibration    28          0.789              1.409              0.865
 Vibration    29          0.792              1.404              0.857
 Vibration    30          0.809              1.361              0.797
 Vibration    31          0.811              1.356              0.790
 Vibration    32          0.815              1.346              0.775
 Vibration    33          0.833              1.303              0.721
 Vibration    34          0.857              1.246              0.654
 Vibration    35          0.894              1.165              0.569
 Vibration    36          0.906              1.137              0.542
 Vibration    37          0.950              1.048              0.463
 Vibration    38          0.951              1.047              0.462

 Optimization completed.
    -- Stationary point found.
 Normal termination of Gaussian 16 at Mon Dec 18 12:52:57 2023.
