 Gaussian 16, Revision A.03,
 Gaussian 16:  ES64L-G16RevA.03 25-Dec-2016

 --------------------------------------
 #P UB3LYP/6-311++G(d,p) nosym opt freq
 --------------------------------------

 -------
 Radical
 -------
 Symbolic Z-matrix:
 Charge = -1 Multiplicity = 2

 SCF Done:  E(UB3LYP) =  -972.851502876     A.U. after   23 cycles
 SCF Done:  E(UB3LYP) =  -972.872916563     A.U. after   19 cycles
 SCF Done:  E(UB3LYP) =  -972.874069192     A.U. after   18 cycles
 SCF Done:  E(UB3LYP) =  -972.873779262     A.U. after   18 cycles
 SCF Done:  E(UB3LYP) =  -972.874411493     A.U. after   16 cycles
 SCF Done:  E(UB3LYP) =  -972.874416223     A.U. after   14 cycles
 SCF Done:  E(UB3LYP) =  -972.874421235     A.U. after   13 cycles
 SCF Done:  E(UB3LYP) =  -972.874422152     A.U. after   11 cycles
 Optimization completed.
    -- Stationary point found.
 Normal termination of Gaussian 16 at Tue Dec 26 20:48:56 2023.

 ----------------------------------------------------------------------
 #P Geom=AllCheck Guess=TCheck SCRF=Check GenChk UB3LYP/6-311++G(d,p) F
 req
 ----------------------------------------------------------------------

 Structure from the checkpoint file:  "276-rad.chk"
 -------
 Radical
 -------
 Charge = -1 Multiplicity = 2

                          Input orientation:
 ---------------------------------------------------------------------
 Center     Atomic      Atomic             Coordinates (Angstroms)
 Number     Number       Type             X           Y           Z
 ---------------------------------------------------------------------
      1          6           0        4.245320   -0.007230   -0.158904
      2         16           0        3.029154   -1.358407   -0.306256
      3          6           0        1.479669   -0.484342   -0.128583
      4          6           0        1.360561    0.877949    0.068242
      5          6           0        0.094251    1.544147    0.206359
      6          8           0        0.004095    2.787603    0.386270
      7          6           0       -1.099380    0.681703    0.126072
      8          6           0       -2.382247    1.246456    0.250489
      9          6           0       -3.518883    0.459945    0.178570
     10          6           0       -3.397956   -0.929426   -0.022238
     11          6           0       -2.145972   -1.503943   -0.146871
     12          6           0       -0.976662   -0.719100   -0.076297
     13          6           0        0.335068   -1.365886   -0.213233
     14          8           0        0.463424   -2.605687   -0.393375
     15          1           0        4.125987    0.734634   -0.951187
     16          1           0        5.224786   -0.479013   -0.259878
     17          1           0        4.188269    0.486133    0.813541
     18          1           0        2.227950    1.523939    0.129554
     19          1           0       -2.442126    2.318130    0.404145
     20          1           0       -4.502067    0.911017    0.276431
     21          1           0       -4.288626   -1.548620   -0.079062
     22          1           0       -2.024615   -2.570004   -0.301926
 ---------------------------------------------------------------------

 SCF Done:  E(UB3LYP) =  -972.874422152     A.U. after    1 cycles

 Alpha  occ. eigenvalues --  -88.73073 -18.94518 -18.94061 -10.09348 -10.09136
 Alpha  occ. eigenvalues --  -10.08936 -10.07205 -10.05698 -10.05626 -10.04962
 Alpha  occ. eigenvalues --  -10.04933 -10.04906 -10.04731 -10.03590  -7.81593
 Alpha  occ. eigenvalues --   -5.78000  -5.77582  -5.77007  -0.87068  -0.86376
 Alpha  occ. eigenvalues --   -0.73572  -0.70259  -0.65918  -0.62826  -0.61475
 Alpha  occ. eigenvalues --   -0.56376  -0.52667  -0.49517  -0.46819  -0.43277
 Alpha  occ. eigenvalues --   -0.38684  -0.37490  -0.34764  -0.33687  -0.32624
 Alpha  occ. eigenvalues --   -0.32087  -0.30415  -0.28834  -0.28820  -0.27645
 Alpha  occ. eigenvalues --   -0.26653  -0.26360  -0.24520  -0.23081  -0.22729
 Alpha  occ. eigenvalues --   -0.21904  -0.20440  -0.16918  -0.13689  -0.13349
 Alpha  occ. eigenvalues --   -0.11240  -0.10393  -0.09950  -0.02014
 Alpha virt. eigenvalues --    0.07818   0.08406   0.08949   0.10364   0.10481
 Alpha virt. eigenvalues --    0.11018   0.12005   0.12217   0.13519   0.13857
 Alpha virt. eigenvalues --    0.15261   0.15862   0.15878   0.16882   0.16900

  Beta  occ. eigenvalues --  -88.73063 -18.93845 -18.93429 -10.09190 -10.09038
  Beta  occ. eigenvalues --  -10.08938 -10.07041 -10.05672 -10.05574 -10.04952
  Beta  occ. eigenvalues --  -10.04948 -10.04860 -10.04648 -10.03467  -7.81585
  Beta  occ. eigenvalues --   -5.77997  -5.77580  -5.76969  -0.85915  -0.85278
  Beta  occ. eigenvalues --   -0.73364  -0.69951  -0.65638  -0.62667  -0.61290
  Beta  occ. eigenvalues --   -0.55812  -0.52222  -0.49345  -0.46548  -0.43042
  Beta  occ. eigenvalues --   -0.38489  -0.37229  -0.34544  -0.33577  -0.32569
  Beta  occ. eigenvalues --   -0.32007  -0.30376  -0.28540  -0.27521  -0.27289
  Beta  occ. eigenvalues --   -0.26320  -0.25998  -0.22587  -0.22521  -0.21784
  Beta  occ. eigenvalues --   -0.21773  -0.20271  -0.15518  -0.12750  -0.11836
  Beta  occ. eigenvalues --   -0.10616  -0.09805  -0.08973
  Beta virt. eigenvalues --    0.04536   0.07820   0.08400   0.09572   0.10358
  Beta virt. eigenvalues --    0.11023   0.11494   0.12011   0.12358   0.13526
  Beta virt. eigenvalues --    0.13862   0.15266   0.15915   0.15928   0.16913

 Mulliken charges and spin densities:
               1          2
     1  C   -0.474302   0.003108
     2  S   -0.634120   0.023772
     3  C    1.180649   0.103407
     4  C    0.566127   0.096589
     5  C   -0.727857   0.051697
     6  O   -0.394079   0.229723
     7  C    0.525984   0.066515
     8  C    0.176302   0.007679
     9  C   -0.322699   0.043231
    10  C   -0.347593   0.017374
    11  C    0.294034   0.036807
    12  C    0.105152   0.004062
    13  C   -1.815695   0.084094
    14  O   -0.337864   0.251599
    15  H    0.166624  -0.000730
    16  H    0.154892  -0.000183
    17  H    0.166563  -0.000729
    18  H    0.161154  -0.008738
    19  H    0.151258  -0.001498
    20  H    0.124664  -0.003340
    21  H    0.121067  -0.001676
    22  H    0.159741  -0.002762
 Sum of Mulliken charges =  -1.00000   1.00000

 Dipole moment (field-independent basis, Debye):
    X=             -0.3199    Y=              0.7919    Z=              0.1624  Tot=              0.8694
 Quadrupole moment (field-independent basis, Debye-Ang):
   XX=            -97.8109   YY=           -127.3537   ZZ=            -96.6463
   XY=              7.2451   XZ=              1.0895   YZ=             -4.7078

  Exact polarizability: 265.663  -9.775 198.383  -7.390  15.226  95.562
 Approx polarizability: 368.392 -16.423 378.230 -10.067  33.470 150.811

                      1                      2                      3
                      A                      A                      A
 Frequencies --     46.8977                95.1572               133.3642
 Red. masses --      4.0409                 6.0803                 4.4359
 Frc consts  --      0.0052                 0.0324                 0.0465
 IR Inten    --      6.8292                 0.4273                 0.8762

                      4                      5                      6
                      A                      A                      A
 Frequencies --    156.0134               159.7966               205.1517
 Red. masses --      5.7025                 4.7893                 2.1277
 Frc consts  --      0.0818                 0.0721                 0.0528
 IR Inten    --      3.5628                 3.5134                 0.1053

                      7                      8                      9
                      A                      A                      A
 Frequencies --    239.8936               252.0563               272.1057
 Red. masses --      1.6075                 4.4588                 7.1887
 Frc consts  --      0.0545                 0.1669                 0.3136
 IR Inten    --      0.2291                 3.9728                 1.1199

                     10                     11                     12
                      A                      A                      A
 Frequencies --    357.9896               366.5562               372.4129
 Red. masses --      8.4027                10.0322                 6.2273
 Frc consts  --      0.6345                 0.7942                 0.5089
 IR Inten    --      0.0585                12.7267                 0.0140

                     13                     14                     15
                      A                      A                      A
 Frequencies --    441.8848               471.0016               488.9003
 Red. masses --      3.5959                10.2576                 4.2078
 Frc consts  --      0.4137                 1.3407                 0.5926
 IR Inten    --      1.6817                 1.1017                 0.3161

                     16                     17                     18
                      A                      A                      A
 Frequencies --    508.2034               608.8909               650.5534
 Red. masses --      8.8229                 7.4064                 3.4807
 Frc consts  --      1.3426                 1.6178                 0.8679
 IR Inten    --      2.3369                11.1894                 2.5524

                     19                     20                     21
                      A                      A                      A
 Frequencies --    663.5040               686.4955               708.1697
 Red. masses --      5.8652                 3.4449                 5.9621
 Frc consts  --      1.5213                 0.9565                 1.7617
 IR Inten    --      0.8583                19.7557                 2.0963

                     22                     23                     24
                      A                      A                      A
 Frequencies --    725.5268               769.3563               781.1303
 Red. masses --      6.3348                 1.4582                 4.5883
 Frc consts  --      1.9647                 0.5085                 1.6495
 IR Inten    --      4.5657                56.4685                 2.4543

                     25                     26                     27
                      A                      A                      A
 Frequencies --    828.9851               839.7914               855.0263
 Red. masses --      4.9046                 1.5976                 8.7459
 Frc consts  --      1.9859                 0.6638                 3.7672
 IR Inten    --      8.0740                14.9376                76.0411

                     28                     29                     30
                      A                      A                      A
 Frequencies --    870.6979               960.9198               978.7218
 Red. masses --      1.4338                 1.1918                 1.3616
 Frc consts  --      0.6405                 0.6484                 0.7684
 IR Inten    --      0.0213                 4.0900                 2.5051

                     31                     32                     33
                      A                      A                      A
 Frequencies --    980.6054               985.1148              1034.8526
 Red. masses --      1.2575                 1.3216                 2.4054
 Frc consts  --      0.7124                 0.7557                 1.5177
 IR Inten    --      0.1557                 2.4026                17.7045

                     34                     35                     36
                      A                      A                      A
 Frequencies --   1090.6494              1103.0279              1142.9054
 Red. masses --      3.2574                 3.0098                 1.5871
 Frc consts  --      2.2829                 2.1576                 1.2214
 IR Inten    --      9.2732                 9.5397                40.8224

                     37                     38                     39
                      A                      A                      A
 Frequencies --   1155.2672              1222.7458              1241.9429
 Red. masses --      1.4924                 2.7270                 1.8715
 Frc consts  --      1.1736                 2.4022                 1.7008
 IR Inten    --      8.1194                11.7644                24.8832

                     40                     41                     42
                      A                      A                      A
 Frequencies --   1287.1000              1351.2439              1353.6845
 Red. masses --      1.7276                 1.1811                 9.3062
 Frc consts  --      1.6862                 1.2706                10.0475
 IR Inten    --     13.1466                 3.8327                 7.8703

                     43                     44                     45
                      A                      A                      A
 Frequencies --   1381.0820              1459.7448              1462.1192
 Red. masses --      3.3678                 3.5298                 1.0527
 Frc consts  --      3.7847                 4.4315                 1.3260
 IR Inten    --     67.3070                73.7882                 6.1871

                     46                     47                     48
                      A                      A                      A
 Frequencies --   1465.3359              1488.5133              1495.1767
 Red. masses --      2.8310                 1.1056                 4.3808
 Frc consts  --      3.5816                 1.4433                 5.7702
 IR Inten    --     81.3891                15.2214                14.0092

                     49                     50                     51
                      A                      A                      A
 Frequencies --   1530.6203              1546.4233              1611.7023
 Red. masses --      6.2650                 5.4618                 7.8854
 Frc consts  --      8.6478                 7.6957                12.0683
 IR Inten    --    458.6215                78.8910                18.8988

                     52                     53                     54
                      A                      A                      A
 Frequencies --   1627.8742              3022.9258              3096.5949
 Red. masses --      6.0715                 1.0295                 1.1070
 Frc consts  --      9.4796                 5.5426                 6.2539
 IR Inten    --     23.9347                53.1372                17.1765

                     55                     56                     57
                      A                      A                      A
 Frequencies --   3107.7570              3132.4528              3151.7578
 Red. masses --      1.1027                 1.0846                 1.0911
 Frc consts  --      6.2750                 6.2702                 6.3860
 IR Inten    --     17.5316                15.9355                51.2770

                     58                     59                     60
                      A                      A                      A
 Frequencies --   3179.2104              3180.7440              3182.4972
 Red. masses --      1.0912                 1.0879                 1.0927
 Frc consts  --      6.4980                 6.4849                 6.5203
 IR Inten    --     11.6502                19.8890                21.9071

 - Thermochemistry -
 -------------------
 Temperature   298.150 Kelvin.  Pressure   1.00000 Atm.
 Atom     1 has atomic number  6 and mass  12.00000

 Molecular mass:   204.02450 amu.
 Principal axes and moments of inertia in atomic units:
                           1         2         3
     Eigenvalues --  1522.319134048.573595559.44793
           X            0.98461   0.17134   0.03448
           Y           -0.16499   0.97630  -0.14003
           Z           -0.05766   0.13218   0.98955
 This molecule is an asymmetric top.
 Rotational symmetry number  1.
 Warning -- assumption of classical behavior for rotation
           may cause significant error
 Rotational temperatures (Kelvin)      0.05690     0.02139     0.01558
 Rotational constants (GHZ):           1.18552     0.44577     0.32463
 Zero-point vibrational energy     416102.0 (Joules/Mol)
                                   99.45077 (Kcal/Mol)
 Warning -- explicit consideration of  17 degrees of freedom as
           vibrations may cause significant error
 Vibrational temperatures:     67.48   136.91   191.88   224.47   229.91
          (Kelvin)            295.17   345.15   362.65   391.50   515.07
                              527.39   535.82   635.77   677.67   703.42
                              731.19   876.06   936.00   954.63   987.71
                             1018.90  1043.87  1106.93  1123.87  1192.72
                             1208.27  1230.19  1252.74  1382.55  1408.16
                             1410.87  1417.36  1488.92  1569.20  1587.01
                             1644.39  1662.17  1759.26  1786.88  1851.85
                             1944.14  1947.65  1987.07  2100.25  2103.66
                             2108.29  2141.64  2151.23  2202.22  2224.96
                             2318.88  2342.15  4349.32  4455.31  4471.37
                             4506.90  4534.68  4574.17  4576.38  4578.90

 Zero-point correction=                           0.158485 (Hartree/Particle)
 Thermal correction to Energy=                    0.170406
 Thermal correction to Enthalpy=                  0.171350
 Thermal correction to Gibbs Free Energy=         0.119458
 Sum of electronic and zero-point Energies=           -972.715937
 Sum of electronic and thermal Energies=              -972.704017
 Sum of electronic and thermal Enthalpies=            -972.703072
 Sum of electronic and thermal Free Energies=         -972.754964

                     E (Thermal)             CV                S
                      KCal/Mol        Cal/Mol-Kelvin    Cal/Mol-Kelvin
 Total                  106.931             46.026            109.214
 Electronic               0.000              0.000              1.377
 Translational            0.889              2.981             41.844
 Rotational               0.889              2.981             31.905
 Vibrational            105.154             40.065             34.088
 Vibration     1          0.595              1.979              4.944
 Vibration     2          0.603              1.953              3.551
 Vibration     3          0.613              1.920              2.897
 Vibration     4          0.620              1.896              2.598
 Vibration     5          0.622              1.892              2.552
 Vibration     6          0.640              1.833              2.086
 Vibration     7          0.657              1.779              1.804
 Vibration     8          0.664              1.759              1.716
 Vibration     9          0.675              1.725              1.583
 Vibration    10          0.733              1.559              1.131
 Vibration    11          0.739              1.541              1.094
 Vibration    12          0.744              1.529              1.070
 Vibration    13          0.802              1.379              0.821
 Vibration    14          0.828              1.314              0.735
 Vibration    15          0.845              1.275              0.686
 Vibration    16          0.863              1.232              0.638
 Vibration    17          0.968              1.013              0.435

 Optimization completed.
    -- Stationary point found.
 Normal termination of Gaussian 16 at Tue Dec 26 21:44:36 2023.
