 Gaussian 16, Revision A.03,
 Gaussian 16:  ES64L-G16RevA.03 25-Dec-2016

 ----------------------------------------------------------------------
 #P UB3LYP/6-311++G(d,p) nosym opt freq SCRF=(PCM,Solvent=n,n-DiMethylF
 ormamide)
 ----------------------------------------------------------------------

 --------
 Oxidized
 --------
 Symbolic Z-matrix:
 Charge =  0 Multiplicity = 1

 SCF Done:  E(UB3LYP) =  -5761.00295426     A.U. after   15 cycles
 SCF Done:  E(UB3LYP) =  -5761.00299212     A.U. after   11 cycles
 SCF Done:  E(UB3LYP) =  -5761.00295048     A.U. after   11 cycles
 SCF Done:  E(UB3LYP) =  -5761.00299839     A.U. after   11 cycles
 SCF Done:  E(UB3LYP) =  -5761.00299960     A.U. after    9 cycles
 SCF Done:  E(UB3LYP) =  -5761.00299975     A.U. after    8 cycles
 SCF Done:  E(UB3LYP) =  -5761.00300093     A.U. after    9 cycles
 SCF Done:  E(UB3LYP) =  -5761.00300292     A.U. after   10 cycles
 SCF Done:  E(UB3LYP) =  -5761.00300445     A.U. after   10 cycles
 SCF Done:  E(UB3LYP) =  -5761.00300614     A.U. after   10 cycles
 SCF Done:  E(UB3LYP) =  -5761.00300762     A.U. after   11 cycles
 SCF Done:  E(UB3LYP) =  -5761.00300746     A.U. after   10 cycles
 SCF Done:  E(UB3LYP) =  -5761.00300761     A.U. after    8 cycles
 Optimization completed.
    -- Stationary point found.
 Normal termination of Gaussian 16 at Sun Feb 11 16:01:58 2024.

 ----------------------------------------------------------------------
 #P Geom=AllCheck Guess=TCheck SCRF=Check GenChk UB3LYP/6-311++G(d,p) F
 req
 ----------------------------------------------------------------------

 Structure from the checkpoint file:  "235.chk"
 --------
 Oxidized
 --------
 Charge =  0 Multiplicity = 1

                          Input orientation:
 ---------------------------------------------------------------------
 Center     Atomic      Atomic             Coordinates (Angstroms)
 Number     Number       Type             X           Y           Z
 ---------------------------------------------------------------------
      1          6           0        5.866255   -5.219368    1.170251
      2          6           0        6.780885   -5.127027    0.125046
      3          6           0        6.594523   -4.170029   -0.882547
      4          6           0        4.767585   -4.364875    1.219219
      5          6           0        4.582327   -3.409081    0.214460
      6          6           0        5.496592   -3.315923   -0.831973
      7          6           0        3.793709   -4.476039    2.341665
      8          6           0        2.622944   -3.553015    2.358567
      9          6           0        2.451807   -2.614377    1.391898
     10          6           0        3.410880   -2.488930    0.257231
     11          8           0        3.956674   -5.306346    3.226086
     12          8           0        3.244320   -1.653350   -0.621519
     13          1           0        5.999967   -5.954491    1.952215
     14          1           0        5.343728   -2.573901   -1.603811
     15         35           0        8.259687   -6.330124    0.124796
     16         35           0        7.801685   -3.984665   -2.346159
     17          6           0        1.657371   -3.702269    3.499328
     18          6           0        1.287320   -1.665809    1.404843
     19          1           0        1.883862   -4.590978    4.084381
     20          1           0        0.629094   -3.766569    3.134781
     21          1           0        1.708554   -2.832777    4.163565
     22          1           0        0.350075   -2.203781    1.226311
     23          1           0        1.397054   -0.907499    0.632645
     24          1           0        1.194510   -1.175010    2.376971
 ---------------------------------------------------------------------

 SCF Done:  E(UB3LYP) =  -5761.00300761     A.U. after    2 cycles

 Alpha  occ. eigenvalues -- -482.85175-482.85175 -62.50451 -62.50450 -56.32498
 Alpha  occ. eigenvalues --  -56.32498 -56.32103 -56.32102 -56.32073 -56.32072
 Alpha  occ. eigenvalues --  -19.14017 -19.14016 -10.28942 -10.28940 -10.26888
 Alpha  occ. eigenvalues --  -10.26837 -10.22089 -10.22037 -10.21890 -10.21820
 Alpha  occ. eigenvalues --  -10.21783 -10.21781 -10.17594 -10.17594  -8.71421
 Alpha  occ. eigenvalues --   -8.71420  -6.54595  -6.54595  -6.53276  -6.53276
 Alpha  occ. eigenvalues --   -6.53197  -6.53197  -2.65683  -2.65682  -2.65317
 Alpha  occ. eigenvalues --   -2.65316  -2.65259  -2.65258  -2.64209  -2.64208
 Alpha  occ. eigenvalues --   -2.64208  -2.64208  -1.07307  -1.07115  -0.92166
 Alpha  occ. eigenvalues --   -0.86883  -0.83834  -0.83372  -0.77736  -0.76766
 Alpha  occ. eigenvalues --   -0.75354  -0.70335  -0.68215  -0.64815  -0.61591
 Alpha  occ. eigenvalues --   -0.59502  -0.55570  -0.51812  -0.51708  -0.48356
 Alpha  occ. eigenvalues --   -0.47180  -0.47102  -0.46417  -0.46402  -0.43728
 Alpha  occ. eigenvalues --   -0.43079  -0.42464  -0.41823  -0.40992  -0.40607
 Alpha  occ. eigenvalues --   -0.40373  -0.39898  -0.38450  -0.37956  -0.33965
 Alpha  occ. eigenvalues --   -0.33961  -0.32741  -0.29953  -0.29698  -0.28859
 Alpha  occ. eigenvalues --   -0.28121  -0.28034  -0.26819
 Alpha virt. eigenvalues --   -0.13139  -0.07120  -0.05072  -0.04472  -0.00989
 Alpha virt. eigenvalues --   -0.00522   0.00109   0.01098   0.01580   0.02426
 Alpha virt. eigenvalues --    0.02775   0.03049   0.03232   0.03970   0.04205

  Beta  occ. eigenvalues -- -482.85175-482.85175 -62.50451 -62.50450 -56.32498
  Beta  occ. eigenvalues --  -56.32498 -56.32103 -56.32102 -56.32073 -56.32072
  Beta  occ. eigenvalues --  -19.14017 -19.14016 -10.28942 -10.28940 -10.26888
  Beta  occ. eigenvalues --  -10.26837 -10.22089 -10.22037 -10.21890 -10.21820
  Beta  occ. eigenvalues --  -10.21783 -10.21781 -10.17594 -10.17594  -8.71421
  Beta  occ. eigenvalues --   -8.71420  -6.54595  -6.54595  -6.53276  -6.53276
  Beta  occ. eigenvalues --   -6.53197  -6.53197  -2.65683  -2.65682  -2.65317
  Beta  occ. eigenvalues --   -2.65316  -2.65259  -2.65258  -2.64209  -2.64208
  Beta  occ. eigenvalues --   -2.64208  -2.64208  -1.07307  -1.07115  -0.92166
  Beta  occ. eigenvalues --   -0.86883  -0.83834  -0.83372  -0.77736  -0.76766
  Beta  occ. eigenvalues --   -0.75354  -0.70335  -0.68215  -0.64815  -0.61591
  Beta  occ. eigenvalues --   -0.59502  -0.55570  -0.51812  -0.51708  -0.48356
  Beta  occ. eigenvalues --   -0.47180  -0.47102  -0.46417  -0.46402  -0.43728
  Beta  occ. eigenvalues --   -0.43079  -0.42464  -0.41823  -0.40992  -0.40607
  Beta  occ. eigenvalues --   -0.40373  -0.39898  -0.38450  -0.37956  -0.33965
  Beta  occ. eigenvalues --   -0.33961  -0.32741  -0.29953  -0.29698  -0.28859
  Beta  occ. eigenvalues --   -0.28121  -0.28034  -0.26819
  Beta virt. eigenvalues --   -0.13139  -0.07120  -0.05072  -0.04472  -0.00989
  Beta virt. eigenvalues --   -0.00522   0.00109   0.01098   0.01580   0.02426
  Beta virt. eigenvalues --    0.02775   0.03049   0.03232   0.03970   0.04205

 Mulliken charges and spin densities:
               1          2
     1  C   -0.139898   0.000000
     2  C    0.091543  -0.000000
     3  C    0.089380   0.000000
     4  C    0.527835   0.000000
     5  C    0.535607  -0.000000
     6  C   -0.137710   0.000000
     7  C   -1.383880   0.000000
     8  C    0.990099  -0.000000
     9  C    0.989028  -0.000000
    10  C   -1.381626   0.000000
    11  O   -0.258891  -0.000000
    12  O   -0.258855  -0.000000
    13  H    0.239313   0.000000
    14  H    0.239620   0.000000
    15  Br  -0.111599   0.000000
    16  Br  -0.111504   0.000000
    17  C   -0.519835  -0.000000
    18  C   -0.522712  -0.000000
    19  H    0.195453   0.000000
    20  H    0.171803  -0.000000
    21  H    0.194962   0.000000
    22  H    0.194232  -0.000000
    23  H    0.195450  -0.000000
    24  H    0.172184  -0.000000
 Sum of Mulliken charges =  -0.00000   0.00000

 Dipole moment (field-independent basis, Debye):
    X=             -2.3470    Y=              0.8730    Z=              1.2626  Tot=              2.8045
 Quadrupole moment (field-independent basis, Debye-Ang):
   XX=           -131.0243   YY=           -130.4329   ZZ=           -121.3232
   XY=             11.3814   XZ=             -2.0136   YZ=              5.2269

  Exact polarizability: 295.599 -75.746 242.909 -67.463 -57.399 276.707
 Approx polarizability: 310.899 -77.812 297.722 -55.052 -92.666 333.475

                      1                      2                      3
                      A                      A                      A
 Frequencies --     38.0578                40.6928                49.3351
 Red. masses --      2.5927                 5.7118                 1.8071
 Frc consts  --      0.0022                 0.0056                 0.0026
 IR Inten    --      0.1093                 7.6674                 0.0581

                      4                      5                      6
                      A                      A                      A
 Frequencies --     93.5520               105.1362               111.8464
 Red. masses --      1.3615                 3.8664                 2.2962
 Frc consts  --      0.0070                 0.0252                 0.0169
 IR Inten    --      0.6612                 6.4872                 0.3753

                      7                      8                      9
                      A                      A                      A
 Frequencies --    126.1651               126.9558               181.0462
 Red. masses --     47.6183                 9.8744                 5.2546
 Frc consts  --      0.4466                 0.0938                 0.1015
 IR Inten    --      0.1476                 0.0346                 0.0005

                     10                     11                     12
                      A                      A                      A
 Frequencies --    225.5802               232.3373               232.8698
 Red. masses --     13.9519                10.8957                 4.7697
 Frc consts  --      0.4183                 0.3465                 0.1524
 IR Inten    --      0.0152                 0.9470                 1.0798

                     13                     14                     15
                      A                      A                      A
 Frequencies --    327.5183               333.7890               344.0693
 Red. masses --      2.6612                 6.3577                 4.0459
 Frc consts  --      0.1682                 0.4173                 0.2822
 IR Inten    --      0.0487                 2.6836                 3.3322

                     16                     17                     18
                      A                      A                      A
 Frequencies --    418.7553               422.4623               436.3563
 Red. masses --      7.2326                 8.4172                 3.2065
 Frc consts  --      0.7473                 0.8851                 0.3597
 IR Inten    --      0.9230                66.8124                 5.9288

                     19                     20                     21
                      A                      A                      A
 Frequencies --    453.0194               460.3732               472.1918
 Red. masses --      6.4759                 4.9554                10.6986
 Frc consts  --      0.7830                 0.6188                 1.4054
 IR Inten    --      2.6749                 0.0526                16.7066

                     22                     23                     24
                      A                      A                      A
 Frequencies --    550.5545               574.0055               658.9184
 Red. masses --      7.2556                 7.3087                 5.5871
 Frc consts  --      1.2958                 1.4188                 1.4292
 IR Inten    --     35.8689                 0.0010                12.3446

                     25                     26                     27
                      A                      A                      A
 Frequencies --    669.6842               687.8182               710.6154
 Red. masses --      5.2467                 7.3006                 4.4579
 Frc consts  --      1.3864                 2.0350                 1.3263
 IR Inten    --      0.0345                 5.2648                12.3305

                     28                     29                     30
                      A                      A                      A
 Frequencies --    733.4541               784.9907               847.1242
 Red. masses --      5.3737                 6.0277                 4.2473
 Frc consts  --      1.7032                 2.1884                 1.7958
 IR Inten    --     43.2633                 0.2232                80.7620

                     31                     32                     33
                      A                      A                      A
 Frequencies --    913.0595               921.5443               937.4223
 Red. masses --      1.3635                 3.2503                 1.4201
 Frc consts  --      0.6698                 1.6263                 0.7353
 IR Inten    --      0.0411                37.2025                29.1134

                     34                     35                     36
                      A                      A                      A
 Frequencies --    981.4291              1019.9228              1030.7125
 Red. masses --      5.5860                 1.4731                 1.6349
 Frc consts  --      3.1701                 0.9028                 1.0233
 IR Inten    --     29.7070                 4.9045               134.6779

                     37                     38                     39
                      A                      A                      A
 Frequencies --   1056.2000              1115.4062              1118.5495
 Red. masses --      1.5701                 2.0355                 2.6051
 Frc consts  --      1.0320                 1.4921                 1.9204
 IR Inten    --      0.0245                57.0300                 4.1766

                     40                     41                     42
                      A                      A                      A
 Frequencies --   1163.9482              1171.0457              1254.8597
 Red. masses --      4.9724                 4.0708                 1.2642
 Frc consts  --      3.9691                 3.2891                 1.1729
 IR Inten    --      0.3434                77.5540                 4.3504

                     43                     44                     45
                      A                      A                      A
 Frequencies --   1295.5436              1302.9600              1322.5069
 Red. masses --      6.0275                 4.8659                10.7045
 Frc consts  --      5.9607                 4.8672                11.0309
 IR Inten    --    885.2077               120.8444                67.8522

                     46                     47                     48
                      A                      A                      A
 Frequencies --   1384.9754              1397.2407              1401.1322
 Red. masses --      5.6699                 1.3734                 1.1930
 Frc consts  --      6.4079                 1.5798                 1.3799
 IR Inten    --     31.2550                34.9744                33.1795

                     49                     50                     51
                      A                      A                      A
 Frequencies --   1469.3151              1473.5445              1476.3021
 Red. masses --      1.0710                 1.1222                 1.0586
 Frc consts  --      1.3623                 1.4356                 1.3594
 IR Inten    --      0.7616                81.1014                 0.0538

                     52                     53                     54
                      A                      A                      A
 Frequencies --   1479.6301              1488.5575              1586.6967
 Red. masses --      3.0425                 1.0430                10.4384
 Frc consts  --      3.9245                 1.3616                15.4836
 IR Inten    --      1.9425                36.3012                36.0720

                     55                     56                     57
                      A                      A                      A
 Frequencies --   1595.4531              1647.8983              1687.5168
 Red. masses --      6.9400                 9.0384                12.4036
 Frc consts  --     10.4082                14.4612                20.8111
 IR Inten    --    360.5478                89.3410               942.9325

                     58                     59                     60
                      A                      A                      A
 Frequencies --   1690.5790              3027.4307              3031.0722
 Red. masses --     12.5246                 1.0427                 1.0441
 Frc consts  --     21.0905                 5.6305                 5.6519
 IR Inten    --     48.4845                29.1278                 2.1224

                     61                     62                     63
                      A                      A                      A
 Frequencies --   3075.7918              3084.1797              3145.2493
 Red. masses --      1.0952                 1.0962                 1.0975
 Frc consts  --      6.1049                 6.1434                 6.3968
 IR Inten    --     24.9866                 4.4127                 5.5924

                     64                     65                     66
                      A                      A                      A
 Frequencies --   3145.5219              3214.0420              3215.4827
 Red. masses --      1.0976                 1.0912                 1.0916
 Frc consts  --      6.3986                 6.6413                 6.6497
 IR Inten    --     14.3765                 6.2037                 4.9126

 - Thermochemistry -
 -------------------
 Temperature   298.150 Kelvin.  Pressure   1.00000 Atm.
 Atom     1 has atomic number  6 and mass  12.00000

 Molecular mass:   341.88910 amu.
 Principal axes and moments of inertia in atomic units:
                           1         2         3
     Eigenvalues --  3263.789679971.47523**********
           X            0.83385   0.13241   0.53588
           Y           -0.31491  -0.68323   0.65881
           Z           -0.45336   0.71810   0.52801
 This molecule is an asymmetric top.
 Rotational symmetry number  1.
 Warning -- assumption of classical behavior for rotation
           may cause significant error
 Rotational temperatures (Kelvin)      0.02654     0.00869     0.00656
 Rotational constants (GHZ):           0.55296     0.18099     0.13659
 Zero-point vibrational energy     435273.2 (Joules/Mol)
                                  104.03279 (Kcal/Mol)
 Warning -- explicit consideration of  23 degrees of freedom as
           vibrations may cause significant error
 Vibrational temperatures:     54.76    58.55    70.98   134.60   151.27
          (Kelvin)            160.92   181.52   182.66   260.49   324.56
                              334.28   335.05   471.23   480.25   495.04
                              602.50   607.83   627.82   651.79   662.37
                              679.38   792.13   825.87   948.04   963.53
                              989.62  1022.42  1055.28  1129.43  1218.82
                             1313.69  1325.90  1348.74  1412.06  1467.44
                             1482.97  1519.64  1604.82  1609.34  1674.66
                             1684.87  1805.46  1864.00  1874.67  1902.79
                             1992.67  2010.32  2015.92  2114.02  2120.10
                             2124.07  2128.86  2141.70  2282.90  2295.50
                             2370.96  2427.96  2432.37  4355.80  4361.04
                             4425.38  4437.45  4525.31  4525.70  4624.29
                             4626.36

 Zero-point correction=                           0.165787 (Hartree/Particle)
 Thermal correction to Energy=                    0.181185
 Thermal correction to Enthalpy=                  0.182129
 Thermal correction to Gibbs Free Energy=         0.120277
 Sum of electronic and zero-point Energies=          -5760.837221
 Sum of electronic and thermal Energies=             -5760.821823
 Sum of electronic and thermal Enthalpies=           -5760.820879
 Sum of electronic and thermal Free Energies=        -5760.882730

                     E (Thermal)             CV                S
                      KCal/Mol        Cal/Mol-Kelvin    Cal/Mol-Kelvin
 Total                  113.695             54.983            130.177
 Electronic               0.000              0.000              0.000
 Translational            0.889              2.981             43.382
 Rotational               0.889              2.981             34.419
 Vibrational            111.918             49.021             52.376
 Vibration     1          0.594              1.982              5.358
 Vibration     2          0.594              1.981              5.225
 Vibration     3          0.595              1.978              4.844
 Vibration     4          0.603              1.954              3.584
 Vibration     5          0.605              1.945              3.357
 Vibration     6          0.607              1.940              3.237
 Vibration     7          0.611              1.927              3.004
 Vibration     8          0.611              1.926              2.992
 Vibration     9          0.630              1.865              2.318
 Vibration    10          0.650              1.802              1.914
 Vibration    11          0.653              1.791              1.861
 Vibration    12          0.654              1.791              1.857
 Vibration    13          0.711              1.620              1.272
 Vibration    14          0.715              1.608              1.242
 Vibration    15          0.723              1.587              1.193
 Vibration    16          0.782              1.429              0.896
 Vibration    17          0.785              1.421              0.884
 Vibration    18          0.797              1.391              0.838
 Vibration    19          0.812              1.354              0.787
 Vibration    20          0.818              1.338              0.765
 Vibration    21          0.829              1.312              0.731
 Vibration    22          0.906              1.138              0.543
 Vibration    23          0.930              1.087              0.497

 Optimization completed.
    -- Stationary point found.
 Normal termination of Gaussian 16 at Sun Feb 11 16:55:03 2024.
