 Gaussian 16, Revision A.03,
 Gaussian 16:  ES64L-G16RevA.03 25-Dec-2016

 --------------------------------------
 #P UB3LYP/6-311++G(d,p) nosym opt freq
 --------------------------------------

 -------
 Radical
 -------
 Symbolic Z-matrix:
 Charge = -1 Multiplicity = 2

 SCF Done:  E(UB3LYP) =  -460.273985231     A.U. after   21 cycles
 SCF Done:  E(UB3LYP) =  -460.293563212     A.U. after   18 cycles
 SCF Done:  E(UB3LYP) =  -460.294966874     A.U. after   17 cycles
 SCF Done:  E(UB3LYP) =  -460.295084246     A.U. after   14 cycles
 SCF Done:  E(UB3LYP) =  -460.295138427     A.U. after   13 cycles
 SCF Done:  E(UB3LYP) =  -460.295180061     A.U. after   12 cycles
 SCF Done:  E(UB3LYP) =  -460.295242224     A.U. after   14 cycles
 SCF Done:  E(UB3LYP) =  -460.295343235     A.U. after   13 cycles
 SCF Done:  E(UB3LYP) =  -460.295449873     A.U. after   15 cycles
 SCF Done:  E(UB3LYP) =  -460.295539478     A.U. after   13 cycles
 SCF Done:  E(UB3LYP) =  -460.295552007     A.U. after   12 cycles
 SCF Done:  E(UB3LYP) =  -460.295555928     A.U. after   11 cycles
 SCF Done:  E(UB3LYP) =  -460.295556900     A.U. after   10 cycles
 SCF Done:  E(UB3LYP) =  -460.295558732     A.U. after   11 cycles
 SCF Done:  E(UB3LYP) =  -460.295559872     A.U. after   11 cycles
 SCF Done:  E(UB3LYP) =  -460.295560337     A.U. after   10 cycles
 SCF Done:  E(UB3LYP) =  -460.295560451     A.U. after    9 cycles
 Optimization completed.
    -- Stationary point found.
 Normal termination of Gaussian 16 at Sun Dec 17 21:20:15 2023.

 ----------------------------------------------------------------------
 #P Geom=AllCheck Guess=TCheck SCRF=Check GenChk UB3LYP/6-311++G(d,p) F
 req
 ----------------------------------------------------------------------

 Structure from the checkpoint file:  "037-rad.chk"
 -------
 Radical
 -------
 Charge = -1 Multiplicity = 2

                          Input orientation:
 ---------------------------------------------------------------------
 Center     Atomic      Atomic             Coordinates (Angstroms)
 Number     Number       Type             X           Y           Z
 ---------------------------------------------------------------------
      1          6           0       -1.603330   -1.392863   -0.135424
      2          6           0       -0.278912   -0.670235   -0.098575
      3          6           0       -0.209153    0.688979    0.135112
      4          6           0       -1.454342    1.510552    0.363725
      5          6           0        1.069861    1.396551    0.172360
      6          8           0        1.149383    2.643838    0.385657
      7          6           0        2.246571    0.588126   -0.049387
      8          6           0        2.177452   -0.758408   -0.280900
      9          6           0        0.922597   -1.473255   -0.321081
     10          8           0        0.874001   -2.721717   -0.536870
     11          1           0       -1.429208   -2.451221   -0.333714
     12          1           0       -2.263991   -0.992684   -0.915422
     13          1           0       -2.145806   -1.297408    0.814124
     14          1           0       -2.020371    1.158101    1.235741
     15          1           0       -2.137529    1.461655   -0.494098
     16          1           0       -1.172393    2.551470    0.527299
     17          1           0        3.200646    1.108121   -0.022971
     18          1           0        3.074523   -1.349604   -0.445574
 ---------------------------------------------------------------------

 SCF Done:  E(UB3LYP) =  -460.295560451     A.U. after    1 cycles

 Alpha  occ. eigenvalues --  -18.92661 -18.92660 -10.07106 -10.07105 -10.02947
 Alpha  occ. eigenvalues --  -10.02947 -10.02882 -10.02823 -10.02029 -10.01964
 Alpha  occ. eigenvalues --   -0.84770  -0.84499  -0.68683  -0.63318  -0.59229
 Alpha  occ. eigenvalues --   -0.52953  -0.52042  -0.43081  -0.41065  -0.34609
 Alpha  occ. eigenvalues --   -0.31882  -0.30328  -0.28971  -0.26893  -0.26301
 Alpha  occ. eigenvalues --   -0.25534  -0.25519  -0.24987  -0.24499  -0.21927
 Alpha  occ. eigenvalues --   -0.20975  -0.20403  -0.13167  -0.10406  -0.09443
 Alpha  occ. eigenvalues --   -0.08708  -0.01349
 Alpha virt. eigenvalues --    0.09245   0.10963   0.11437   0.12441   0.13138
 Alpha virt. eigenvalues --    0.13236   0.14212   0.15594   0.15845   0.16220
 Alpha virt. eigenvalues --    0.17293   0.18607   0.19477   0.19536   0.20661

  Beta  occ. eigenvalues --  -18.91928 -18.91928 -10.06988 -10.06988 -10.02955
  Beta  occ. eigenvalues --  -10.02954 -10.02785 -10.02725 -10.01906 -10.01839
  Beta  occ. eigenvalues --   -0.83514  -0.83204  -0.68168  -0.63006  -0.58996
  Beta  occ. eigenvalues --   -0.52780  -0.51092  -0.42689  -0.40697  -0.34423
  Beta  occ. eigenvalues --   -0.31465  -0.29989  -0.28631  -0.26697  -0.26147
  Beta  occ. eigenvalues --   -0.25485  -0.25343  -0.24313  -0.22704  -0.20631
  Beta  occ. eigenvalues --   -0.20194  -0.19021  -0.10228  -0.09049  -0.08755
  Beta  occ. eigenvalues --   -0.08047
  Beta virt. eigenvalues --    0.05961   0.09251   0.10973   0.11443   0.12460
  Beta virt. eigenvalues --    0.13254   0.14213   0.14342   0.15803   0.15870
  Beta virt. eigenvalues --    0.16230   0.18325   0.18633   0.19550   0.20728

 Mulliken charges and spin densities:
               1          2
     1  C   -0.557918   0.004163
     2  C    0.643433   0.073269
     3  C    0.643504   0.073273
     4  C   -0.557995   0.004160
     5  C   -0.828638   0.082070
     6  O   -0.428664   0.261165
     7  C    0.113910   0.084233
     8  C    0.113899   0.084197
     9  C   -0.828674   0.082086
    10  O   -0.428670   0.261180
    11  H    0.195140  -0.002646
    12  H    0.111753   0.003249
    13  H    0.111808   0.003257
    14  H    0.111788   0.003252
    15  H    0.111771   0.003253
    16  H    0.195143  -0.002646
    17  H    0.139206  -0.008758
    18  H    0.139204  -0.008756
 Sum of Mulliken charges =  -1.00000   1.00000

 Dipole moment (field-independent basis, Debye):
    X=             -4.4990    Y=              0.1733    Z=              0.3362  Tot=              4.5149
 Quadrupole moment (field-independent basis, Debye-Ang):
   XX=            -69.9790   YY=           -100.3534   ZZ=            -65.1205
   XY=             -1.6385   XZ=              0.1181   YZ=             -6.2633

  Exact polarizability: 129.802   2.408 161.386  -3.715  16.053  71.988
 Approx polarizability: 174.556   6.396 281.345  -3.651  30.616 109.944

                      1                      2                      3
                      A                      A                      A
 Frequencies --     85.6045               117.9652               123.5438
 Red. masses --      1.0603                 4.6012                 1.1411
 Frc consts  --      0.0046                 0.0377                 0.0103
 IR Inten    --      0.0000                11.6531                 1.0015

                      4                      5                      6
                      A                      A                      A
 Frequencies --    132.2116               245.1135               310.4661
 Red. masses --      2.9742                 3.1827                 2.5308
 Frc consts  --      0.0306                 0.1127                 0.1437
 IR Inten    --      0.0000                 0.5683                 1.3041

                      7                      8                      9
                      A                      A                      A
 Frequencies --    328.9632               335.8990               395.3153
 Red. masses --      3.6971                 5.3271                 9.3439
 Frc consts  --      0.2357                 0.3541                 0.8603
 IR Inten    --      2.1739                 0.0001                13.3945

                     10                     11                     12
                      A                      A                      A
 Frequencies --    469.0580               479.3220               494.2072
 Red. masses --      4.9754                10.9107                 3.7474
 Frc consts  --      0.6450                 1.4769                 0.5393
 IR Inten    --      2.9713                 0.0145                 0.0000

                     13                     14                     15
                      A                      A                      A
 Frequencies --    599.8749               604.8563               644.4184
 Red. masses --      3.9030                 2.1832                 5.4646
 Frc consts  --      0.8275                 0.4706                 1.3370
 IR Inten    --      0.0479                 2.6778                 0.0003

                     16                     17                     18
                      A                      A                      A
 Frequencies --    760.4843               771.0973               820.8256
 Red. masses --      5.3800                 6.9760                 1.9353
 Frc consts  --      1.8332                 2.4439                 0.7682
 IR Inten    --      0.0000                35.8855                41.1807

                     19                     20                     21
                      A                      A                      A
 Frequencies --    841.5786               936.3885               968.5430
 Red. masses --      2.2041                 1.2731                 1.6994
 Frc consts  --      0.9198                 0.6577                 0.9392
 IR Inten    --      5.1771                 0.0000                 2.0101

                     22                     23                     24
                      A                      A                      A
 Frequencies --   1025.0183              1051.7392              1054.8586
 Red. masses --      1.4111                 2.2833                 1.5201
 Frc consts  --      0.8735                 1.4881                 0.9966
 IR Inten    --      0.0051                17.1768                 0.0026

                     25                     26                     27
                      A                      A                      A
 Frequencies --   1110.2945              1149.7054              1169.5214
 Red. masses --      2.4398                 1.5795                 2.6795
 Frc consts  --      1.7721                 1.2301                 2.1593
 IR Inten    --     16.0266                 0.2184                23.0682

                     28                     29                     30
                      A                      A                      A
 Frequencies --   1220.6238              1339.4148              1380.9903
 Red. masses --      3.7835                 1.7751                 1.4361
 Frc consts  --      3.3213                 1.8763                 1.6136
 IR Inten    --     20.8929                 6.9426                12.1662

                     31                     32                     33
                      A                      A                      A
 Frequencies --   1384.3136              1425.1901              1474.6194
 Red. masses --      1.2757                 3.7803                 1.2139
 Frc consts  --      1.4404                 4.5241                 1.5552
 IR Inten    --      4.2700                77.5952                 0.4112

                     34                     35                     36
                      A                      A                      A
 Frequencies --   1481.3943              1482.5009              1491.3269
 Red. masses --      6.3112                 1.2194                 1.0487
 Frc consts  --      8.1603                 1.5790                 1.3741
 IR Inten    --      4.0231               111.9295                 0.0016

                     37                     38                     39
                      A                      A                      A
 Frequencies --   1505.7382              1522.2559              1522.3185
 Red. masses --      1.0483                 5.4307                 4.7087
 Frc consts  --      1.4003                 7.4145                 6.4293
 IR Inten    --     11.8302               332.2860                70.5195

                     40                     41                     42
                      A                      A                      A
 Frequencies --   1635.3119              2985.0304              2986.6230
 Red. masses --      7.5010                 1.0413                 1.0401
 Frc consts  --     11.8188                 5.4667                 5.4664
 IR Inten    --      3.3500                10.9462               173.5455

                     43                     44                     45
                      A                      A                      A
 Frequencies --   3015.7043              3018.9008              3104.7384
 Red. masses --      1.0989                 1.0987                 1.0943
 Frc consts  --      5.8884                 5.8997                 6.2147
 IR Inten    --    101.1244                 0.0472                 1.4190

                     46                     47                     48
                      A                      A                      A
 Frequencies --   3105.2962              3128.2919              3151.5205
 Red. masses --      1.0944                 1.0847                 1.0946
 Frc consts  --      6.2178                 6.2544                 6.4056
 IR Inten    --     15.3490                23.5615                48.6172

 - Thermochemistry -
 -------------------
 Temperature   298.150 Kelvin.  Pressure   1.00000 Atm.
 Atom     1 has atomic number  6 and mass  12.00000

 Molecular mass:   136.05243 amu.
 Principal axes and moments of inertia in atomic units:
                           1         2         3
     Eigenvalues --   892.676521389.458242259.83400
           X            0.05051   0.99649   0.06675
           Y            0.98428  -0.03834  -0.17239
           Z            0.16923  -0.07441   0.98276
 This molecule is an asymmetric top.
 Rotational symmetry number  1.
 Warning -- assumption of classical behavior for rotation
           may cause significant error
 Rotational temperatures (Kelvin)      0.09703     0.06234     0.03833
 Rotational constants (GHZ):           2.02172     1.29888     0.79862
 Zero-point vibrational energy     361206.3 (Joules/Mol)
                                   86.33038 (Kcal/Mol)
 Warning -- explicit consideration of  14 degrees of freedom as
           vibrations may cause significant error
 Vibrational temperatures:    123.17   169.73   177.75   190.22   352.66
          (Kelvin)            446.69   473.30   483.28   568.77   674.87
                              689.64   711.05   863.09   870.25   927.17
                             1094.17  1109.44  1180.99  1210.84  1347.25
                             1393.52  1474.77  1513.22  1517.71  1597.47
                             1654.17  1682.68  1756.21  1927.12  1986.94
                             1991.72  2050.53  2121.65  2131.40  2132.99
                             2145.69  2166.42  2190.19  2190.28  2352.85
                             4294.79  4297.08  4338.93  4343.52  4467.03
                             4467.83  4500.91  4534.34

 Zero-point correction=                           0.137576 (Hartree/Particle)
 Thermal correction to Energy=                    0.147033
 Thermal correction to Enthalpy=                  0.147978
 Thermal correction to Gibbs Free Energy=         0.102391
 Sum of electronic and zero-point Energies=           -460.157984
 Sum of electronic and thermal Energies=              -460.148527
 Sum of electronic and thermal Enthalpies=            -460.147583
 Sum of electronic and thermal Free Energies=         -460.193169

                     E (Thermal)             CV                S
                      KCal/Mol        Cal/Mol-Kelvin    Cal/Mol-Kelvin
 Total                   92.265             35.141             95.945
 Electronic               0.000              0.000              1.377
 Translational            0.889              2.981             40.636
 Rotational               0.889              2.981             29.418
 Vibrational             90.487             29.179             24.514
 Vibration     1          0.601              1.959              3.758
 Vibration     2          0.608              1.934              3.133
 Vibration     3          0.610              1.929              3.044
 Vibration     4          0.612              1.921              2.914
 Vibration     5          0.660              1.771              1.765
 Vibration     6          0.699              1.654              1.360
 Vibration     7          0.712              1.618              1.265
 Vibration     8          0.717              1.604              1.232
 Vibration     9          0.762              1.480              0.980
 Vibration    10          0.826              1.319              0.740
 Vibration    11          0.836              1.296              0.712
 Vibration    12          0.850              1.263              0.673
 Vibration    13          0.958              1.032              0.450
 Vibration    14          0.963              1.022              0.441

 Optimization completed.
    -- Stationary point found.
 Normal termination of Gaussian 16 at Sun Dec 17 21:34:24 2023.
