 Q-Chem 5.4, Q-Chem, Inc., Pleasanton, CA (2021)
 Q-Chem 5.4.0 for Intel X86 EM64T Linux

User input:
--------------------------------------------------------------
$molecule
-2 1
C                 -0.5597960000      0.1460210000      2.1187750000
C                 -0.5500200000     -0.9598560000      1.1869220000
C                  0.1710760000     -0.9543360000      0.0140060000
C                  1.0147790000      0.1413690000     -0.4241800000
C                  1.0166060000      1.2762720000      0.4988550000
C                  0.2364390000      1.2393410000      1.6918580000
O                 -1.2250280000      0.1057700000      3.2302400000
O                  1.6182230000      0.0869660000     -1.5452630000
H                 -1.1519180000     -1.8292830000      1.4567670000
H                  0.1387050000     -1.8122350000     -0.6578850000
C                  1.8219510000      2.4580290000      0.1756290000
C                  1.2333910000      3.9261260000      0.3692520000
C                 -0.2978720000      4.0019310000      0.2347040000
C                  1.6779040000      4.4730070000      1.7442790000
C                  1.8555240000      4.8228870000     -0.7204590000
O                  2.9701670000      2.4058390000     -0.2724710000
H                 -0.6137840000      3.6282770000     -0.7448400000
H                 -0.6314750000      5.0454730000      0.3273970000
H                 -0.8073690000      3.4009530000      0.9875160000
H                  1.2207920000      3.9228770000      2.5692950000
H                  1.3989000000      5.5333600000      1.8463050000
H                  2.7654330000      4.3987610000      1.8459050000
H                  1.5669200000      4.4786920000     -1.7186350000
H                  2.9450610000      4.7972030000     -0.6694320000
H                  1.5131560000      5.8598920000     -0.5997590000
H                  0.2978540000      2.0652850000      2.3945600000
$end
$rem
MAX_SCF_CYCLES=200
BASIS  =  6-311++G(d,p)
GUI  =  2
JOB_TYPE  =  SP
METHOD  =  B3LYP
SOLVENT_METHOD = PCM
$end
$pcm
theory = CPCM
$end
$solvent
dielectric 37.219
opticaldielectric 1.43
$end

--------------------------------------------------------------

             Standard Nuclear Orientation (Angstroms)
    I     Atom           X                Y                Z
 ----------------------------------------------------------------
    1      C      -0.5597960000     0.1460210000     2.1187750000
    2      C      -0.5500200000    -0.9598560000     1.1869220000
    3      C       0.1710760000    -0.9543360000     0.0140060000
    4      C       1.0147790000     0.1413690000    -0.4241800000
    5      C       1.0166060000     1.2762720000     0.4988550000
    6      C       0.2364390000     1.2393410000     1.6918580000
    7      O      -1.2250280000     0.1057700000     3.2302400000
    8      O       1.6182230000     0.0869660000    -1.5452630000
    9      H      -1.1519180000    -1.8292830000     1.4567670000
   10      H       0.1387050000    -1.8122350000    -0.6578850000
   11      C       1.8219510000     2.4580290000     0.1756290000
   12      C       1.2333910000     3.9261260000     0.3692520000
   13      C      -0.2978720000     4.0019310000     0.2347040000
   14      C       1.6779040000     4.4730070000     1.7442790000
   15      C       1.8555240000     4.8228870000    -0.7204590000
   16      O       2.9701670000     2.4058390000    -0.2724710000
   17      H      -0.6137840000     3.6282770000    -0.7448400000
   18      H      -0.6314750000     5.0454730000     0.3273970000
   19      H      -0.8073690000     3.4009530000     0.9875160000
   20      H       1.2207920000     3.9228770000     2.5692950000
   21      H       1.3989000000     5.5333600000     1.8463050000
   22      H       2.7654330000     4.3987610000     1.8459050000
   23      H       1.5669200000     4.4786920000    -1.7186350000
   24      H       2.9450610000     4.7972030000    -0.6694320000
   25      H       1.5131560000     5.8598920000    -0.5997590000
   26      H       0.2978540000     2.0652850000     2.3945600000
 ----------------------------------------------------------------

    9    -652.4972026366      3.83e-06  Convergence criterion met
 Total energy in the final basis set =     -652.4972026366

                    Orbital Energies (a.u.)
 --------------------------------------------------------------

 Alpha MOs
 -- Occupied --
-19.0835 -19.0271 -19.0184 -10.2308 -10.1868 -10.1729 -10.1723 -10.1488
-10.1423 -10.1418 -10.1355 -10.1346 -10.1301 -10.1243  -1.0126  -0.9479
 -0.9309  -0.8003  -0.7812  -0.7184  -0.6745  -0.6681  -0.6541  -0.6068
 -0.5660  -0.5352  -0.4816  -0.4603  -0.4387  -0.4330  -0.4281  -0.4202
 -0.4152  -0.3915  -0.3821  -0.3714  -0.3647  -0.3622  -0.3539  -0.3506
 -0.3435  -0.3388  -0.3214  -0.3200  -0.3136  -0.3083  -0.2355  -0.2320
 -0.2211  -0.2015  -0.1948  -0.1251

          Ground-State Mulliken Net Atomic Charges

     Atom                 Charge (a.u.)
  ----------------------------------------
      1 C                    -0.496039
      2 C                    -0.004185
      3 C                     0.020295
      4 C                    -0.541975
      5 C                     1.634978
      6 C                    -0.673880
      7 O                    -0.754579
      8 O                    -0.670527
      9 H                     0.158854
     10 H                     0.154327
     11 C                    -1.072405
     12 C                     0.871647
     13 C                    -0.671283
     14 C                    -0.520690
     15 C                    -0.608775
     16 O                    -0.351938
     17 H                     0.145932
     18 H                     0.142827
     19 H                     0.162421
     20 H                     0.132154
     21 H                     0.163086
     22 H                     0.169430
     23 H                     0.155159
     24 H                     0.166941
     25 H                     0.145996
     26 H                     0.142227
  ----------------------------------------
  Sum of atomic charges =    -2.000000

                    Cartesian Multipole Moments
 -----------------------------------------------------------------
    Charge (ESU x 10^10)
                -9.6064
    Dipole Moment (Debye)
         X      -6.5637      Y      -3.7494      Z      -7.0738
       Tot      10.3527
    Quadrupole Moments (Debye-Ang)
        XX    -128.4424     XY     -11.9269     YY     -97.5775
        XZ      27.9746     YZ       2.0590     ZZ    -144.4603

 Total job time:  41.43s(wall), 270.42s(cpu)
        *  Thank you very much for using Q-Chem.  Have a nice day.  *
