 Q-Chem 5.4, Q-Chem, Inc., Pleasanton, CA (2021)
 Q-Chem 5.4.0 for Intel X86 EM64T Linux

User input:
--------------------------------------------------------------
$molecule
-2 1
C                  1.7962500000      2.7807440000      1.5201570000
C                  0.4137820000      2.7455610000      1.2711710000
C                 -0.1738650000      1.6539570000      0.6145670000
C                  0.6014330000      0.5231770000      0.1792320000
C                  2.0275450000      0.5990720000      0.4108030000
C                  2.5909050000      1.6999080000      1.0771290000
O                  2.3291140000      3.8065970000      2.2880110000
O                  0.0712500000     -0.4981600000     -0.3984980000
C                 -0.4484310000      3.8974010000      1.7431010000
C                 -1.6586920000      1.6155210000      0.3449820000
C                  2.8324300000     -0.5676710000     -0.1022160000
S                  4.3612550000      1.6969170000      1.4633750000
C                  4.9660990000      3.2936420000      0.7314790000
C                  5.4533910000      4.3531440000      1.7336840000
C                  4.9715770000      5.7931960000      1.3745790000
O                  5.8250300000      6.7082480000      1.3709800000
O                  3.7295140000      5.8921900000      1.1452550000
H                  0.1523520000      4.6174400000      2.2980590000
H                 -1.2647080000      3.5488560000      2.3901990000
H                 -0.9202690000      4.4197950000      0.8997150000
H                 -2.0096650000      2.5019460000     -0.2037330000
H                 -2.2570300000      1.5657040000      1.2690070000
H                 -1.8723560000      0.7220830000     -0.2460900000
H                  2.3769860000     -0.9305550000     -1.0287570000
H                  2.8089550000     -1.4198240000      0.5950040000
H                  3.8786360000     -0.2992890000     -0.2615490000
H                  4.1323420000      3.6825940000      0.1494750000
H                  5.7639700000      3.0278990000      0.0316650000
H                  6.5437720000      4.3453370000      1.8194050000
H                  5.0357060000      4.1244970000      2.7187470000
H                  2.7683670000      4.5212610000      1.7588860000
$end

$rem
BASIS  =  6-311++G(d,p)
GUI  =  2
JOB_TYPE  =  SP
METHOD  =  B3LYP
SCF_CONVERGENCE  = 8
SOLVENT_METHOD = sm12
$end

$smx
solvent dimethylformamide
charges CM5
$end

--------------------------------------------------------------

             Standard Nuclear Orientation (Angstroms)
    I     Atom           X                Y                Z
 ----------------------------------------------------------------
    1      C       1.7962500000     2.7807440000     1.5201570000
    2      C       0.4137820000     2.7455610000     1.2711710000
    3      C      -0.1738650000     1.6539570000     0.6145670000
    4      C       0.6014330000     0.5231770000     0.1792320000
    5      C       2.0275450000     0.5990720000     0.4108030000
    6      C       2.5909050000     1.6999080000     1.0771290000
    7      O       2.3291140000     3.8065970000     2.2880110000
    8      O       0.0712500000    -0.4981600000    -0.3984980000
    9      C      -0.4484310000     3.8974010000     1.7431010000
   10      C      -1.6586920000     1.6155210000     0.3449820000
   11      C       2.8324300000    -0.5676710000    -0.1022160000
   12      S       4.3612550000     1.6969170000     1.4633750000
   13      C       4.9660990000     3.2936420000     0.7314790000
   14      C       5.4533910000     4.3531440000     1.7336840000
   15      C       4.9715770000     5.7931960000     1.3745790000
   16      O       5.8250300000     6.7082480000     1.3709800000
   17      O       3.7295140000     5.8921900000     1.1452550000
   18      H       0.1523520000     4.6174400000     2.2980590000
   19      H      -1.2647080000     3.5488560000     2.3901990000
   20      H      -0.9202690000     4.4197950000     0.8997150000
   21      H      -2.0096650000     2.5019460000    -0.2037330000
   22      H      -2.2570300000     1.5657040000     1.2690070000
   23      H      -1.8723560000     0.7220830000    -0.2460900000
   24      H       2.3769860000    -0.9305550000    -1.0287570000
   25      H       2.8089550000    -1.4198240000     0.5950040000
   26      H       3.8786360000    -0.2992890000    -0.2615490000
   27      H       4.1323420000     3.6825940000     0.1494750000
   28      H       5.7639700000     3.0278990000     0.0316650000
   29      H       6.5437720000     4.3453370000     1.8194050000
   30      H       5.0357060000     4.1244970000     2.7187470000
   31      H       2.7683670000     4.5212610000     1.7588860000
 ----------------------------------------------------------------

   18   -1165.0891338267      3.65e-09  Convergence criterion met
 Total energy in the final basis set =    -1165.3369276499

                    Orbital Energies (a.u.)
 --------------------------------------------------------------

 Alpha MOs
 -- Occupied --
-88.8355 -19.1014 -19.0545 -19.0509 -19.0273 -10.2445 -10.1972 -10.1962
-10.1901 -10.1841 -10.1653 -10.1633 -10.1631 -10.1602 -10.1558 -10.1534
-10.1477  -7.9205  -5.8844  -5.8808  -5.8744  -1.0146  -1.0058  -0.9459
 -0.9275  -0.8286  -0.7995  -0.7722  -0.7285  -0.7183  -0.6996  -0.6490
 -0.6390  -0.6027  -0.5532  -0.5401  -0.5030  -0.4917  -0.4891  -0.4545
 -0.4402  -0.4329  -0.4156  -0.4133  -0.4070  -0.4016  -0.3985  -0.3944
 -0.3928  -0.3860  -0.3803  -0.3770  -0.3694  -0.3625  -0.3429  -0.3392
 -0.3356  -0.3298  -0.3093  -0.2804  -0.2718  -0.2443  -0.2417  -0.2337
 -0.2199  -0.2098  -0.2001  -0.1581

          Ground-State Mulliken Net Atomic Charges

     Atom                 Charge (a.u.)
  ----------------------------------------
      1 C                    -1.632858
      2 C                     0.524589
      3 C                    -0.134864
      4 C                    -3.229300
      5 C                    -0.755377
      6 C                     0.821217
      7 O                    -0.210489
      8 O                    -0.390701
      9 C                     0.702819
     10 C                     0.265255
     11 C                     0.488821
     12 S                     0.582631
     13 C                    -0.041129
     14 C                    -0.291433
     15 C                    -0.194518
     16 O                    -0.398632
     17 O                    -0.522968
     18 H                     0.213877
     19 H                     0.217881
     20 H                     0.179784
     21 H                     0.209937
     22 H                     0.202757
     23 H                     0.164636
     24 H                     0.141969
     25 H                     0.145592
     26 H                     0.148021
     27 H                    -0.008063
     28 H                     0.289334
     29 H                     0.191628
     30 H                     0.008698
     31 H                     0.310888
  ----------------------------------------
  Sum of atomic charges =    -2.000000

                    Cartesian Multipole Moments
 -----------------------------------------------------------------
    Charge (ESU x 10^10)
                -9.6064
    Dipole Moment (Debye)
         X     -24.7944      Y     -28.9851      Z      -8.6400
       Tot      39.1094
    Quadrupole Moments (Debye-Ang)
        XX    -240.3944     XY    -132.7731     YY    -304.1533
        XZ     -37.3568     YZ     -45.9237     ZZ    -136.7313

 Total job time:  862.94s(wall), 6706.78s(cpu)
        *  Thank you very much for using Q-Chem.  Have a nice day.  *
