 Gaussian 16, Revision A.03,
 Gaussian 16:  ES64L-G16RevA.03 25-Dec-2016

 --------------------------------------
 #P UB3LYP/6-311++G(d,p) nosym opt freq
 --------------------------------------

 -------
 Reduced
 -------
 Symbolic Z-matrix:
 Charge = -2 Multiplicity = 1

 SCF Done:  E(UB3LYP) =  -1165.09146347     A.U. after   20 cycles
 SCF Done:  E(UB3LYP) =  -1165.09145425     A.U. after   13 cycles
 SCF Done:  E(UB3LYP) =  -1165.09145102     A.U. after   14 cycles
 SCF Done:  E(UB3LYP) =  -1165.09146225     A.U. after   13 cycles
 SCF Done:  E(UB3LYP) =  -1165.09146343     A.U. after   12 cycles
 SCF Done:  E(UB3LYP) =  -1165.09146329     A.U. after   11 cycles
 SCF Done:  E(UB3LYP) =  -1165.09146257     A.U. after   11 cycles
 SCF Done:  E(UB3LYP) =  -1165.09146356     A.U. after   11 cycles
 Optimization completed.
    -- Stationary point found.
 Normal termination of Gaussian 16 at Sat Jan  6 06:52:02 2024.

 ----------------------------------------------------------------------
 #P Geom=AllCheck Guess=TCheck SCRF=Check GenChk UB3LYP/6-311++G(d,p) F
 req
 ----------------------------------------------------------------------

 Structure from the checkpoint file:  "052-an.chk"
 -------
 Reduced
 -------
 Charge = -2 Multiplicity = 1

                          Input orientation:
 ---------------------------------------------------------------------
 Center     Atomic      Atomic             Coordinates (Angstroms)
 Number     Number       Type             X           Y           Z
 ---------------------------------------------------------------------
      1          6           0        1.796250    2.780744    1.520157
      2          6           0        0.413782    2.745561    1.271171
      3          6           0       -0.173865    1.653957    0.614567
      4          6           0        0.601433    0.523177    0.179232
      5          6           0        2.027545    0.599072    0.410803
      6          6           0        2.590905    1.699908    1.077129
      7          8           0        2.329114    3.806597    2.288011
      8          8           0        0.071250   -0.498160   -0.398498
      9          6           0       -0.448431    3.897401    1.743101
     10          6           0       -1.658692    1.615521    0.344982
     11          6           0        2.832430   -0.567671   -0.102216
     12         16           0        4.361255    1.696917    1.463375
     13          6           0        4.966099    3.293642    0.731479
     14          6           0        5.453391    4.353144    1.733684
     15          6           0        4.971577    5.793196    1.374579
     16          8           0        5.825030    6.708248    1.370980
     17          8           0        3.729514    5.892190    1.145255
     18          1           0        0.152352    4.617440    2.298059
     19          1           0       -1.264708    3.548856    2.390199
     20          1           0       -0.920269    4.419795    0.899715
     21          1           0       -2.009665    2.501946   -0.203733
     22          1           0       -2.257030    1.565704    1.269007
     23          1           0       -1.872356    0.722083   -0.246090
     24          1           0        2.376986   -0.930555   -1.028757
     25          1           0        2.808955   -1.419824    0.595004
     26          1           0        3.878636   -0.299289   -0.261549
     27          1           0        4.132342    3.682594    0.149475
     28          1           0        5.763970    3.027899    0.031665
     29          1           0        6.543772    4.345337    1.819405
     30          1           0        5.035706    4.124497    2.718747
     31          1           0        2.768367    4.521261    1.758886
 ---------------------------------------------------------------------

 SCF Done:  E(UB3LYP) =  -1165.09146356     A.U. after    2 cycles

 Alpha  occ. eigenvalues --  -88.60819 -18.86942 -18.82458 -18.82210 -18.79300
 Alpha  occ. eigenvalues --  -10.01592  -9.97076  -9.96499  -9.95641  -9.95336
 Alpha  occ. eigenvalues --   -9.94413  -9.93703  -9.93615  -9.93206  -9.92732
 Alpha  occ. eigenvalues --   -9.92124  -9.91609  -7.69407  -5.65799  -5.65434
 Alpha  occ. eigenvalues --   -5.64801  -0.78509  -0.77432  -0.71192  -0.69806
 Alpha  occ. eigenvalues --   -0.59822  -0.57123  -0.54368  -0.50134  -0.49020
 Alpha  occ. eigenvalues --   -0.47235  -0.42025  -0.41055  -0.37523  -0.32154
 Alpha  occ. eigenvalues --   -0.31101  -0.27330  -0.26262  -0.25935  -0.22772
 Alpha  occ. eigenvalues --   -0.21234  -0.20877  -0.18912  -0.18646  -0.17981
 Alpha  occ. eigenvalues --   -0.17718  -0.17251  -0.16857  -0.16631  -0.16166
 Alpha  occ. eigenvalues --   -0.15197  -0.14716  -0.14188  -0.13445  -0.11427
 Alpha  occ. eigenvalues --   -0.11084  -0.10525  -0.09809  -0.08109  -0.04940
 Alpha  occ. eigenvalues --   -0.04019  -0.01566  -0.01331  -0.00336   0.00875
 Alpha  occ. eigenvalues --    0.01972   0.03149   0.07577
 Alpha virt. eigenvalues --    0.16049   0.17078   0.18044   0.18392   0.19231
 Alpha virt. eigenvalues --    0.19612   0.20720   0.21087   0.21325   0.21795
 Alpha virt. eigenvalues --    0.22153   0.22815   0.23119   0.23777   0.24342

  Beta  occ. eigenvalues --  -88.60819 -18.86942 -18.82458 -18.82210 -18.79300
  Beta  occ. eigenvalues --  -10.01592  -9.97076  -9.96499  -9.95641  -9.95336
  Beta  occ. eigenvalues --   -9.94413  -9.93703  -9.93615  -9.93206  -9.92732
  Beta  occ. eigenvalues --   -9.92124  -9.91609  -7.69407  -5.65799  -5.65434
  Beta  occ. eigenvalues --   -5.64801  -0.78509  -0.77432  -0.71192  -0.69806
  Beta  occ. eigenvalues --   -0.59822  -0.57123  -0.54368  -0.50134  -0.49020
  Beta  occ. eigenvalues --   -0.47235  -0.42025  -0.41055  -0.37523  -0.32154
  Beta  occ. eigenvalues --   -0.31101  -0.27330  -0.26262  -0.25935  -0.22772
  Beta  occ. eigenvalues --   -0.21234  -0.20877  -0.18912  -0.18646  -0.17981
  Beta  occ. eigenvalues --   -0.17718  -0.17251  -0.16857  -0.16631  -0.16166
  Beta  occ. eigenvalues --   -0.15197  -0.14716  -0.14188  -0.13445  -0.11427
  Beta  occ. eigenvalues --   -0.11084  -0.10525  -0.09809  -0.08109  -0.04940
  Beta  occ. eigenvalues --   -0.04019  -0.01566  -0.01331  -0.00336   0.00875
  Beta  occ. eigenvalues --    0.01972   0.03149   0.07577
  Beta virt. eigenvalues --    0.16049   0.17078   0.18044   0.18392   0.19231
  Beta virt. eigenvalues --    0.19612   0.20720   0.21087   0.21325   0.21795
  Beta virt. eigenvalues --    0.22153   0.22815   0.23119   0.23777   0.24342

 Mulliken charges and spin densities:
               1          2
     1  C   -1.153788  -0.000000
     2  C    1.201512  -0.000000
     3  C    0.811765   0.000000
     4  C   -2.156773  -0.000000
     5  C    0.374840   0.000000
     6  C    1.290810   0.000000
     7  O   -0.270754   0.000000
     8  O   -0.507126   0.000000
     9  C   -0.527385  -0.000000
    10  C   -0.673185  -0.000000
    11  C   -0.380241   0.000000
    12  S   -0.405264  -0.000000
    13  C   -0.347939  -0.000000
    14  C   -0.370853   0.000000
    15  C   -0.055110   0.000000
    16  O   -0.452953  -0.000000
    17  O   -0.456413  -0.000000
    18  H    0.189326   0.000000
    19  H    0.091405  -0.000000
    20  H    0.103907   0.000000
    21  H    0.091141   0.000000
    22  H    0.089469   0.000000
    23  H    0.188770   0.000000
    24  H    0.155932   0.000000
    25  H    0.103717  -0.000000
    26  H    0.096652   0.000000
    27  H    0.198054  -0.000000
    28  H    0.167107   0.000000
    29  H    0.135668  -0.000000
    30  H    0.141909   0.000000
    31  H    0.325800   0.000000
 Sum of Mulliken charges =  -2.00000   0.00000

 Dipole moment (field-independent basis, Debye):
    X=            -24.9388    Y=            -29.1513    Z=             -8.7567  Tot=             39.3500
 Quadrupole moment (field-independent basis, Debye-Ang):
   XX=           -245.4992   YY=           -305.1869   ZZ=           -136.7552
   XY=           -132.6861   XZ=            -37.5431   YZ=            -46.3288

  Exact polarizability: 265.551  17.833 235.175  13.592  28.607 148.697
 Approx polarizability: 365.810  14.721 336.267  20.362  41.949 237.191

                      1                      2                      3
                      A                      A                      A
 Frequencies --     38.4262                53.7324                62.6502
 Red. masses --      7.2560                 4.8371                 3.5141
 Frc consts  --      0.0063                 0.0082                 0.0081
 IR Inten    --      4.2892                 2.3266                 6.9930

                      4                      5                      6
                      A                      A                      A
 Frequencies --     67.0905                79.0287                87.7717
 Red. masses --      5.1053                 1.1714                 1.2185
 Frc consts  --      0.0135                 0.0043                 0.0055
 IR Inten    --      2.8277                 0.3935                 3.7183

                      7                      8                      9
                      A                      A                      A
 Frequencies --    101.6223               126.6659               135.8877
 Red. masses --      3.3825                 2.2271                 1.6820
 Frc consts  --      0.0206                 0.0211                 0.0183
 IR Inten    --     12.3743                10.5892                 0.6045

                     10                     11                     12
                      A                      A                      A
 Frequencies --    147.4394               186.0232               202.2463
 Red. masses --      2.0039                 5.7614                 5.4859
 Frc consts  --      0.0257                 0.1175                 0.1322
 IR Inten    --      7.7521                 0.0351                 1.8602

                     13                     14                     15
                      A                      A                      A
 Frequencies --    228.1726               264.3639               284.5563
 Red. masses --      4.7567                 3.1516                 5.5175
 Frc consts  --      0.1459                 0.1298                 0.2632
 IR Inten    --      3.7985                23.4938                 2.6475

                     16                     17                     18
                      A                      A                      A
 Frequencies --    310.1548               324.8321               336.3364
 Red. masses --      2.7601                 4.3226                 3.4379
 Frc consts  --      0.1564                 0.2687                 0.2291
 IR Inten    --      1.1513                 0.9897                 1.3587

                     19                     20                     21
                      A                      A                      A
 Frequencies --    342.8871               370.2257               393.4028
 Red. masses --      4.3162                 5.2342                 7.3326
 Frc consts  --      0.2990                 0.4227                 0.6686
 IR Inten    --      0.7059                 6.6174                 8.9527

                     22                     23                     24
                      A                      A                      A
 Frequencies --    400.2735               437.3769               457.4124
 Red. masses --      6.7116                 2.8846                 5.9450
 Frc consts  --      0.6336                 0.3251                 0.7329
 IR Inten    --      1.6943                 2.6610                 8.7681

                     25                     26                     27
                      A                      A                      A
 Frequencies --    521.7778               567.7830               580.7643
 Red. masses --      7.3518                 4.6216                 4.8193
 Frc consts  --      1.1793                 0.8778                 0.9577
 IR Inten    --      4.8338                 0.4811                13.3156

                     28                     29                     30
                      A                      A                      A
 Frequencies --    617.1709               653.8081               670.1720
 Red. masses --      4.5897                 5.5115                 5.1144
 Frc consts  --      1.0300                 1.3881                 1.3534
 IR Inten    --     21.0492                12.1730                 1.7652

                     31                     32                     33
                      A                      A                      A
 Frequencies --    674.9796               698.7727               763.4001
 Red. masses --      3.7372                 2.4987                 5.7026
 Frc consts  --      1.0032                 0.7189                 1.9581
 IR Inten    --      1.4174                 3.2924                 3.0828

                     34                     35                     36
                      A                      A                      A
 Frequencies --    788.6959               824.5212               854.6046
 Red. masses --      5.0413                 3.3138                 1.0955
 Frc consts  --      1.8476                 1.3273                 0.4714
 IR Inten    --     26.5809                18.7378                93.7300

                     37                     38                     39
                      A                      A                      A
 Frequencies --    874.5400               917.2494               964.8441
 Red. masses --      2.7939                 3.5909                 2.3912
 Frc consts  --      1.2590                 1.7800                 1.3115
 IR Inten    --     14.7786                30.5757                14.8789

                     40                     41                     42
                      A                      A                      A
 Frequencies --    982.2589              1005.6436              1023.8539
 Red. masses --      1.8524                 2.1596                 3.5553
 Frc consts  --      1.0530                 1.2868                 2.1958
 IR Inten    --     14.8608                26.0110                13.8822

                     43                     44                     45
                      A                      A                      A
 Frequencies --   1029.7269              1029.9427              1047.3065
 Red. masses --      1.3993                 2.0907                 1.4649
 Frc consts  --      0.8742                 1.3067                 0.9467
 IR Inten    --      0.1978                37.4171                 5.3050

                     46                     47                     48
                      A                      A                      A
 Frequencies --   1056.3867              1083.6060              1116.7557
 Red. masses --      1.5013                 2.3404                 4.2671
 Frc consts  --      0.9871                 1.6191                 3.1355
 IR Inten    --      3.6944                36.2082                 6.3400

                     49                     50                     51
                      A                      A                      A
 Frequencies --   1154.8326              1218.2019              1236.5537
 Red. masses --      1.1203                 1.1646                 5.8688
 Frc consts  --      0.8803                 1.0182                 5.2872
 IR Inten    --      1.1807                 2.0253                57.2957

                     52                     53                     54
                      A                      A                      A
 Frequencies --   1262.2736              1276.4325              1300.4073
 Red. masses --      4.0139                 1.2682                 1.3678
 Frc consts  --      3.7681                 1.2174                 1.3628
 IR Inten    --     11.1655                55.9132                12.5084

                     55                     56                     57
                      A                      A                      A
 Frequencies --   1318.4562              1353.4684              1358.3057
 Red. masses --      2.2269                 5.9442                 1.6121
 Frc consts  --      2.2808                 6.4156                 1.7524
 IR Inten    --    139.4069               128.4759               168.9618

                     58                     59                     60
                      A                      A                      A
 Frequencies --   1373.4927              1379.6404              1390.0009
 Red. masses --      1.5558                 1.3452                 1.3871
 Frc consts  --      1.7292                 1.5086                 1.5790
 IR Inten    --    129.7166                 8.0934                17.0999

                     61                     62                     63
                      A                      A                      A
 Frequencies --   1431.9988              1455.8791              1459.5495
 Red. masses --      4.5509                 2.6843                 1.3167
 Frc consts  --      5.4983                 3.3522                 1.6527
 IR Inten    --     18.9896               339.1056                80.8761

                     64                     65                     66
                      A                      A                      A
 Frequencies --   1464.8349              1469.5878              1477.6086
 Red. masses --      1.1684                 1.1262                 1.0941
 Frc consts  --      1.4772                 1.4330                 1.4074
 IR Inten    --      7.6456                22.5515                 7.4213

                     67                     68                     69
                      A                      A                      A
 Frequencies --   1479.1986              1489.2582              1498.0004
 Red. masses --      1.0981                 1.0572                 1.1334
 Frc consts  --      1.4156                 1.3815                 1.4985
 IR Inten    --     11.3968                 0.1929                12.9519

                     70                     71                     72
                      A                      A                      A
 Frequencies --   1504.2121              1535.3845              1580.0588
 Red. masses --      1.0540                 4.1865                 6.5691
 Frc consts  --      1.4052                 5.8148                 9.6628
 IR Inten    --      7.3678                35.5750               103.9311

                     73                     74                     75
                      A                      A                      A
 Frequencies --   1635.9652              2940.8018              2952.6275
 Red. masses --      9.7440                 1.0530                 1.0624
 Frc consts  --     15.3652                 5.3656                 5.4569
 IR Inten    --    840.3568               209.4616               168.0696

                     76                     77                     78
                      A                      A                      A
 Frequencies --   2969.6316              2977.7288              3004.0418
 Red. masses --      1.0852                 1.0432                 1.0986
 Frc consts  --      5.6384                 5.4499                 5.8413
 IR Inten    --     89.5253               171.1600                58.8537

                     79                     80                     81
                      A                      A                      A
 Frequencies --   3021.1187              3029.7732              3031.0614
 Red. masses --      1.0670                 1.0615                 1.0686
 Frc consts  --      5.7379                 5.7413                 5.7845
 IR Inten    --     39.7094                63.0330                66.7591

                     82                     83                     84
                      A                      A                      A
 Frequencies --   3070.0117              3081.3117              3089.7328
 Red. masses --      1.1020                 1.0917                 1.1002
 Frc consts  --      6.1193                 6.1072                 6.1884
 IR Inten    --     46.1128                11.6045                15.6689

                     85                     86                     87
                      A                      A                      A
 Frequencies --   3114.0137              3117.0383              3251.1715
 Red. masses --      1.0921                 1.0958                 1.0755
 Frc consts  --      6.2395                 6.2730                 6.6980
 IR Inten    --     11.9883                 9.0744              1351.2066

 - Thermochemistry -
 -------------------
 Temperature   298.150 Kelvin.  Pressure   1.00000 Atm.
 Atom     1 has atomic number  6 and mass  12.00000

 Molecular mass:   254.06128 amu.
 Principal axes and moments of inertia in atomic units:
                           1         2         3
     Eigenvalues --  2488.815126973.951168932.84928
           X            0.73077  -0.68254  -0.01043
           Y            0.66189   0.71223  -0.23375
           Z            0.16697   0.16392   0.97224
 This molecule is an asymmetric top.
 Rotational symmetry number  1.
 Warning -- assumption of classical behavior for rotation
           may cause significant error
 Rotational temperatures (Kelvin)      0.03480     0.01242     0.00970
 Rotational constants (GHZ):           0.72514     0.25878     0.20203
 Zero-point vibrational energy     619311.6 (Joules/Mol)
                                  148.01902 (Kcal/Mol)
 Warning -- explicit consideration of  28 degrees of freedom as
           vibrations may cause significant error
 Vibrational temperatures:     55.29    77.31    90.14    96.53   113.70
          (Kelvin)            126.28   146.21   182.24   195.51   212.13
                              267.65   290.99   328.29   380.36   409.41
                              446.24   467.36   483.91   493.34   532.67
                              566.02   575.90   629.29   658.11   750.72
                              816.91   835.59   887.97   940.68   964.23
                              971.15  1005.38  1098.36  1134.76  1186.30
                             1229.59  1258.27  1319.72  1388.20  1413.25
                             1446.90  1473.10  1481.55  1481.86  1506.84
                             1519.90  1559.07  1606.76  1661.55  1752.72
                             1779.12  1816.13  1836.50  1871.00  1896.96
                             1947.34  1954.30  1976.15  1984.99  1999.90
                             2060.33  2094.69  2099.97  2107.57  2114.41
                             2125.95  2128.24  2142.71  2155.29  2164.23
                             2209.08  2273.35  2353.79  4231.16  4248.17
                             4272.64  4284.29  4322.15  4346.72  4359.17
                             4361.02  4417.06  4433.32  4445.44  4480.37
                             4484.72  4677.71

 Zero-point correction=                           0.235883 (Hartree/Particle)
 Thermal correction to Energy=                    0.254033
 Thermal correction to Enthalpy=                  0.254977
 Thermal correction to Gibbs Free Energy=         0.188909
 Sum of electronic and zero-point Energies=          -1164.855580
 Sum of electronic and thermal Energies=             -1164.837430
 Sum of electronic and thermal Enthalpies=           -1164.836486
 Sum of electronic and thermal Free Energies=        -1164.902554

                     E (Thermal)             CV                S
                      KCal/Mol        Cal/Mol-Kelvin    Cal/Mol-Kelvin
 Total                  159.408             65.810            139.052
 Electronic               0.000              0.000              0.000
 Translational            0.889              2.981             42.497
 Rotational               0.889              2.981             33.405
 Vibrational            157.631             59.849             63.149
 Vibration     1          0.594              1.982              5.339
 Vibration     2          0.596              1.976              4.675
 Vibration     3          0.597              1.972              4.372
 Vibration     4          0.598              1.970              4.237
 Vibration     5          0.600              1.963              3.915
 Vibration     6          0.601              1.958              3.709
 Vibration     7          0.604              1.948              3.423
 Vibration     8          0.611              1.926              2.996
 Vibration     9          0.614              1.917              2.861
 Vibration    10          0.617              1.905              2.705
 Vibration    11          0.632              1.859              2.267
 Vibration    12          0.639              1.837              2.113
 Vibration    13          0.651              1.798              1.893
 Vibration    14          0.671              1.738              1.633
 Vibration    15          0.683              1.702              1.506
 Vibration    16          0.699              1.654              1.362
 Vibration    17          0.709              1.626              1.286
 Vibration    18          0.717              1.603              1.229
 Vibration    19          0.722              1.590              1.199
 Vibration    20          0.742              1.533              1.079
 Vibration    21          0.761              1.484              0.987
 Vibration    22          0.766              1.470              0.962
 Vibration    23          0.798              1.389              0.835
 Vibration    24          0.816              1.344              0.774
 Vibration    25          0.877              1.202              0.606
 Vibration    26          0.924              1.101              0.509
 Vibration    27          0.937              1.073              0.484
 Vibration    28          0.977              0.996              0.421

                           ! Non-Optimized Parameters !
 Normal termination of Gaussian 16 at Sat Jan  6 08:25:29 2024.
