 Gaussian 16, Revision A.03,
 Gaussian 16:  ES64L-G16RevA.03 25-Dec-2016

 ----------------------------------------------------------------
 #P UB3LYP/6-311++G(d,p) SCRF=(PCM,Solvent=n,n-DiMethylFormamide)
 ----------------------------------------------------------------

 ------------------
 Quinone PCM in DMF
 ------------------
 Symbolic Z-matrix:
 Charge =  0 Multiplicity = 1

                         Standard orientation:
 ---------------------------------------------------------------------
 Center     Atomic      Atomic             Coordinates (Angstroms)
 Number     Number       Type             X           Y           Z
 ---------------------------------------------------------------------
      1          6           0        4.333535   -1.480454    0.001018
      2          6           0        3.039268   -0.707631    0.000510
      3          6           0        1.821391   -1.383824    0.000492
      4          6           0        0.602414   -0.701726    0.000032
      5          6           0       -0.668069   -1.478416   -0.000444
      6          8           0       -0.670356   -2.699599   -0.001166
      7          6           0       -1.944973   -0.703262   -0.000119
      8          6           0       -3.159576   -1.395897   -0.000057
      9          6           0       -4.362070   -0.698838    0.000262
     10          6           0       -4.362049    0.698830    0.000424
     11          6           0       -3.159538    1.395848    0.000306
     12          6           0       -1.944951    0.703185    0.000057
     13          6           0       -0.668089    1.478429   -0.000024
     14          8           0       -0.670550    2.699609    0.000182
     15          6           0        0.602435    0.701826   -0.000258
     16          6           0        1.821445    1.383878   -0.000413
     17          6           0        3.039297    0.707620   -0.000179
     18          6           0        4.333603    1.480435   -0.000653
     19          1           0        4.148284   -2.555222    0.002458
     20          1           0        4.940988   -1.243326   -0.878511
     21          1           0        4.941828   -1.240990    0.879315
     22          1           0        1.796800   -2.467394    0.000849
     23          1           0       -3.135692   -2.478628   -0.000264
     24          1           0       -5.301005   -1.240849    0.000346
     25          1           0       -5.300966    1.240869    0.000621
     26          1           0       -3.135609    2.478576    0.000366
     27          1           0        1.796903    2.467447   -0.000660
     28          1           0        4.941051    1.243417    0.878897
     29          1           0        4.941879    1.240809   -0.878926
     30          1           0        4.148343    2.555200   -0.002344
 ---------------------------------------------------------------------

 SCF Done:  E(UB3LYP) =  -767.620305412     A.U. after   15 cycles

 The electronic state is 1-A.
 Alpha  occ. eigenvalues --  -19.13020 -19.13019 -10.28203 -10.28202 -10.20871
 Alpha  occ. eigenvalues --  -10.20821 -10.20542 -10.20494 -10.20416 -10.20365
 Alpha  occ. eigenvalues --  -10.19903 -10.19855 -10.19771 -10.19768 -10.19232
 Alpha  occ. eigenvalues --  -10.19230 -10.17419 -10.17418  -1.06556  -1.06380
 Alpha  occ. eigenvalues --   -0.89487  -0.88398  -0.82337  -0.78762  -0.78302
 Alpha  occ. eigenvalues --   -0.77863  -0.72655  -0.70826  -0.67773  -0.64797
 Alpha  occ. eigenvalues --   -0.62483  -0.61505  -0.58626  -0.54983  -0.54598
 Alpha  occ. eigenvalues --   -0.50709  -0.49537  -0.47679  -0.46959  -0.45754
 Alpha  occ. eigenvalues --   -0.45747  -0.45207  -0.45002  -0.44781  -0.44221
 Alpha  occ. eigenvalues --   -0.42913  -0.41927  -0.40872  -0.39854  -0.39657
 Alpha  occ. eigenvalues --   -0.38781  -0.38614  -0.37111  -0.36618  -0.35823
 Alpha  occ. eigenvalues --   -0.35805  -0.28779  -0.28643  -0.27957  -0.27453
 Alpha  occ. eigenvalues --   -0.27186  -0.26398
 Alpha virt. eigenvalues --   -0.11717  -0.07201  -0.03424  -0.02508  -0.00872
 Alpha virt. eigenvalues --   -0.00166   0.00862   0.01468   0.01814   0.02904
 Alpha virt. eigenvalues --    0.03281   0.03341   0.03719   0.03728   0.03744

  Beta  occ. eigenvalues --  -19.13020 -19.13019 -10.28203 -10.28202 -10.20871
  Beta  occ. eigenvalues --  -10.20821 -10.20542 -10.20494 -10.20416 -10.20365
  Beta  occ. eigenvalues --  -10.19903 -10.19855 -10.19771 -10.19768 -10.19232
  Beta  occ. eigenvalues --  -10.19230 -10.17419 -10.17418  -1.06556  -1.06380
  Beta  occ. eigenvalues --   -0.89487  -0.88398  -0.82337  -0.78762  -0.78302
  Beta  occ. eigenvalues --   -0.77863  -0.72655  -0.70826  -0.67773  -0.64797
  Beta  occ. eigenvalues --   -0.62483  -0.61505  -0.58626  -0.54983  -0.54598
  Beta  occ. eigenvalues --   -0.50709  -0.49537  -0.47679  -0.46959  -0.45754
  Beta  occ. eigenvalues --   -0.45747  -0.45207  -0.45002  -0.44781  -0.44221
  Beta  occ. eigenvalues --   -0.42913  -0.41927  -0.40872  -0.39854  -0.39657
  Beta  occ. eigenvalues --   -0.38781  -0.38614  -0.37111  -0.36618  -0.35823
  Beta  occ. eigenvalues --   -0.35805  -0.28779  -0.28643  -0.27957  -0.27453
  Beta  occ. eigenvalues --   -0.27186  -0.26398
  Beta virt. eigenvalues --   -0.11717  -0.07201  -0.03424  -0.02508  -0.00872
  Beta virt. eigenvalues --   -0.00166   0.00862   0.01468   0.01814   0.02904
  Beta virt. eigenvalues --    0.03281   0.03341   0.03719   0.03728   0.03744

 Mulliken charges and spin densities:
               1          2
     1  C   -0.482213  -0.000000
     2  C    0.410954  -0.000000
     3  C   -0.067552   0.000000
     4  C   -0.005885  -0.000000
     5  C   -0.617236  -0.000000
     6  O   -0.276825   0.000000
     7  C    0.219234  -0.000000
     8  C    0.142237  -0.000000
     9  C   -0.382753  -0.000000
    10  C   -0.382755  -0.000000
    11  C    0.142331   0.000000
    12  C    0.219283  -0.000000
    13  C   -0.617210  -0.000000
    14  O   -0.276826   0.000000
    15  C   -0.005896   0.000000
    16  C   -0.067710   0.000000
    17  C    0.410960   0.000000
    18  C   -0.482201   0.000000
    19  H    0.184887   0.000000
    20  H    0.170012  -0.000000
    21  H    0.169859  -0.000000
    22  H    0.142882   0.000000
    23  H    0.183484  -0.000000
    24  H    0.208910   0.000000
    25  H    0.208909  -0.000000
    26  H    0.183483   0.000000
    27  H    0.142881  -0.000000
    28  H    0.170019   0.000000
    29  H    0.169850   0.000000
    30  H    0.184887  -0.000000
 Sum of Mulliken charges =  -0.00000  -0.00000

 Dipole moment (field-independent basis, Debye):
    X=              1.6913    Y=             -0.0000    Z=              0.0019  Tot=              1.6913
 Quadrupole moment (field-independent basis, Debye-Ang):
   XX=            -66.4155   YY=           -118.5079   ZZ=           -106.9807
   XY=              0.0009   XZ=             -0.0020   YZ=             -0.0095

 Normal termination of Gaussian 16 at Sun Jan 14 01:05:24 2024.
