 Q-Chem 5.4, Q-Chem, Inc., Pleasanton, CA (2021)
 Q-Chem 5.4.0 for Intel X86 EM64T Linux

User input:
--------------------------------------------------------------
$molecule
-1 2
C                 -4.6719690000      0.2882570000     -0.0832530000
C                 -3.2078340000     -0.0797270000     -0.0289460000
C                 -2.8304750000     -1.4379350000     -0.0618450000
C                 -1.4956010000     -1.8092540000     -0.0140060000
O                 -1.1819560000     -3.1237890000     -0.0481880000
C                 -0.4700470000     -0.8144190000      0.0701280000
C                  0.9168040000     -1.1970500000      0.1198140000
O                  1.2609670000     -2.4534780000      0.0891680000
C                  1.9172220000     -0.1629160000      0.2040920000
C                  3.3059750000     -0.5031890000      0.2552020000
O                  3.7050030000     -1.7945440000      0.2257740000
C                  4.2689250000      0.4941880000      0.3362010000
C                  3.8832210000      1.8441130000      0.3684670000
C                  2.5480270000      2.2022410000      0.3205580000
C                  1.5479800000      1.2149910000      0.2381790000
C                  0.1392960000      1.6258330000      0.1887570000
O                 -0.1926240000      2.8327370000      0.2183910000
C                 -0.8601380000      0.5550630000      0.1029360000
C                 -2.2262800000      0.8940190000      0.0525050000
H                 -5.1423630000     -0.0809140000     -1.0021820000
H                 -5.2246560000     -0.1484680000      0.7568490000
H                 -4.8068410000      1.3717250000     -0.0480070000
H                 -3.5773750000     -2.2230570000     -0.1254010000
H                 -0.1844020000     -3.1616070000     -0.0035460000
H                  2.8648130000     -2.3324900000      0.1673460000
H                  5.3125110000      0.2023590000      0.3732330000
H                  4.6484370000      2.6122270000      0.4319280000
H                  2.2334340000      3.2379440000      0.3444610000
H                 -2.4800570000      1.9471380000      0.0798770000
$end
$rem
MAX_SCF_CYCLES=200
BASIS  =  6-311++G(d,p)
GUI  =  2
JOB_TYPE  =  SP
METHOD  =  B3LYP
SOLVENT_METHOD = COSMO
$end
$solvent
dielectric 37.219
opticaldielectric 1.43
$end

--------------------------------------------------------------

             Standard Nuclear Orientation (Angstroms)
    I     Atom           X                Y                Z
 ----------------------------------------------------------------
    1      C       4.8779276761    -1.0455880076    -0.0006264872
    2      C       3.4721777708    -0.4924879319    -0.0000948071
    3      C       3.2741682626     0.9035791739    -0.0000629597
    4      C       1.9972008762     1.4434025157     0.0000756045
    5      O       1.8567648043     2.7879550684     0.0001400554
    6      C       0.8496627685     0.5880122540     0.0001518282
    7      C      -0.4774293742     1.1457373849     0.0001637461
    8      O      -0.6557189574     2.4365555323     0.0002072303
    9      C      -1.6051156489     0.2481318224     0.0000859122
   10      C      -2.9395928906     0.7640807391    -0.0001341120
   11      O      -3.1678090300     2.0965988369    -0.0001048092
   12      C      -4.0252914963    -0.1018597237    -0.0004043816
   13      C      -3.8179229001    -1.4907817664    -0.0003783859
   14      C      -2.5389441906    -2.0175714101    -0.0000844263
   15      C      -1.4177306675    -1.1664409558     0.0001386625
   16      C      -0.0726429810    -1.7549673916     0.0003506295
   17      O       0.0999192842    -2.9950837345     0.0005652625
   18      C       1.0588424245    -0.8208781501     0.0001974305
   19      C       2.3710587351    -1.3326073415     0.0001048527
   20      H       5.4374242319    -0.7125458719    -0.8826892908
   21      H       5.4390340453    -0.7103320431     0.8795587755
   22      H       4.8708591432    -2.1379633662     0.0006984919
   23      H       4.1177899715     1.5866735551    -0.0001563225
   24      H       0.8713155850     2.9535657993     0.0002589168
   25      H      -2.2637278528     2.5224581573     0.0000695787
   26      H      -5.0233913786     0.3217012020    -0.0006064571
   27      H      -4.6775011932    -2.1546394727    -0.0005927707
   28      H      -2.3613104330    -3.0855915694    -0.0000574744
   29      H       2.4860488847    -2.4100992826     0.0001560012
 ----------------------------------------------------------------

    9    -878.8776276390      5.56e-06  Convergence criterion met
 Total energy in the final basis set =     -878.8776276390
    4    -878.9537305741      7.78e-06  Convergence criterion met
 Total energy in the final basis set =     -878.9537305741

                    Orbital Energies (a.u.)
 --------------------------------------------------------------

 Alpha MOs
 -- Occupied --
-19.1397 -19.1394 -19.1063 -19.0849 -10.2439 -10.2409 -10.2403 -10.2333
-10.1867 -10.1825 -10.1807 -10.1800 -10.1794 -10.1773 -10.1686 -10.1662
-10.1651 -10.1625 -10.1615  -1.0666  -1.0578  -1.0136  -1.0118  -0.8669
 -0.8520  -0.7998  -0.7589  -0.7507  -0.7441  -0.7030  -0.6708  -0.6420
 -0.6209  -0.5946  -0.5876  -0.5391  -0.5275  -0.5174  -0.5050  -0.4793
 -0.4720  -0.4694  -0.4453  -0.4401  -0.4308  -0.4250  -0.4208  -0.4163
 -0.4064  -0.4049  -0.3997  -0.3940  -0.3776  -0.3745  -0.3656  -0.3606
 -0.3525  -0.3479  -0.3378  -0.3257  -0.2762  -0.2720  -0.2501  -0.2479
 -0.2400  -0.2299  -0.1506

 Beta MOs
 -- Occupied --
-19.1394 -19.1391 -19.1021 -19.0797 -10.2409 -10.2406 -10.2400 -10.2318
-10.1860 -10.1826 -10.1809 -10.1790 -10.1783 -10.1766 -10.1679 -10.1660
-10.1646 -10.1622 -10.1616  -1.0649  -1.0573  -1.0057  -1.0036  -0.8643
 -0.8506  -0.7964  -0.7573  -0.7474  -0.7422  -0.7008  -0.6652  -0.6400
 -0.6191  -0.5933  -0.5859  -0.5366  -0.5263  -0.5161  -0.5031  -0.4779
 -0.4706  -0.4678  -0.4390  -0.4368  -0.4281  -0.4223  -0.4183  -0.4136
 -0.4044  -0.4042  -0.3931  -0.3845  -0.3738  -0.3652  -0.3618  -0.3600
 -0.3512  -0.3465  -0.3331  -0.3153  -0.2687  -0.2609  -0.2453  -0.2433
 -0.2285  -0.2252

          Ground-State Mulliken Net Atomic Charges

     Atom                 Charge (a.u.)    Spin (a.u.)
  --------------------------------------------------------
      1 C                    -0.334554      -0.002927
      2 C                     0.362593       0.052340
      3 C                    -0.274413       0.041361
      4 C                    -0.013489       0.035250
      5 O                    -0.419539       0.008209
      6 C                     0.329726      -0.038372
      7 C                    -0.514949       0.169662
      8 O                    -0.591211       0.146723
      9 C                     0.526064      -0.017473
     10 C                    -0.083684       0.033866
     11 O                    -0.419700       0.008863
     12 C                    -0.280701       0.046287
     13 C                    -0.401805       0.051769
     14 C                    -0.234081       0.038582
     15 C                     0.278958       0.050727
     16 C                    -0.438248       0.090509
     17 O                    -0.473459       0.191353
     18 C                     0.148668       0.069549
     19 C                    -0.450887       0.038263
     20 H                     0.174751       0.003303
     21 H                     0.174706       0.003296
     22 H                     0.177093       0.000170
     23 H                     0.199386      -0.003775
     24 H                     0.412776      -0.002150
     25 H                     0.411427      -0.002055
     26 H                     0.206909      -0.004351
     27 H                     0.213428      -0.003906
     28 H                     0.175021      -0.002222
     29 H                     0.139212      -0.002851
  --------------------------------------------------------
  Sum of atomic charges =    -1.000000

                    Cartesian Multipole Moments
 -----------------------------------------------------------------
    Charge (ESU x 10^10)
                -4.8032
    Dipole Moment (Debye)
         X       2.2681      Y      -0.2270      Z      -0.0011
       Tot       2.2794
    Quadrupole Moments (Debye-Ang)
        XX    -116.7319     XY       3.6947     YY    -150.0753
        XZ      -0.0021     YZ       0.0049     ZZ    -116.3953

 Total job time:  89.89s(wall), 672.69s(cpu)
        *  Thank you very much for using Q-Chem.  Have a nice day.  *
