 Gaussian 16, Revision A.03,
 Gaussian 16:  ES64L-G16RevA.03 25-Dec-2016

 ----------------------------------------------------------------------
 #P UB3LYP/6-311++G(d,p) nosym opt freq SCRF=(PCM,Solvent=n,n-DiMethylF
 ormamide)
 ----------------------------------------------------------------------

 --------
 Oxidized
 --------
 Symbolic Z-matrix:
 Charge =  0 Multiplicity = 1

 SCF Done:  E(UB3LYP) =  -696.163069611     A.U. after   14 cycles
 SCF Done:  E(UB3LYP) =  -696.163087266     A.U. after   11 cycles
 SCF Done:  E(UB3LYP) =  -696.162892542     A.U. after   11 cycles
 SCF Done:  E(UB3LYP) =  -696.162898079     A.U. after   12 cycles
 SCF Done:  E(UB3LYP) =  -696.163131404     A.U. after   12 cycles
 SCF Done:  E(UB3LYP) =  -696.163145894     A.U. after   10 cycles
 SCF Done:  E(UB3LYP) =  -696.163145983     A.U. after    9 cycles
 SCF Done:  E(UB3LYP) =  -696.163147043     A.U. after    9 cycles
 SCF Done:  E(UB3LYP) =  -696.163146924     A.U. after    9 cycles
 SCF Done:  E(UB3LYP) =  -696.163146828     A.U. after    8 cycles
 SCF Done:  E(UB3LYP) =  -696.163152634     A.U. after   10 cycles
 SCF Done:  E(UB3LYP) =  -696.163152757     A.U. after   10 cycles
 SCF Done:  E(UB3LYP) =  -696.163152821     A.U. after   10 cycles
 SCF Done:  E(UB3LYP) =  -696.163152853     A.U. after    9 cycles
 SCF Done:  E(UB3LYP) =  -696.163152923     A.U. after    9 cycles
 SCF Done:  E(UB3LYP) =  -696.163153055     A.U. after   10 cycles
 SCF Done:  E(UB3LYP) =  -696.163153178     A.U. after   10 cycles
 SCF Done:  E(UB3LYP) =  -696.163153302     A.U. after   10 cycles
 SCF Done:  E(UB3LYP) =  -696.163153358     A.U. after    9 cycles
 Optimization completed.
    -- Stationary point found.
 Normal termination of Gaussian 16 at Sat Feb 10 12:45:16 2024.

 ----------------------------------------------------------------------
 #P Geom=AllCheck Guess=TCheck SCRF=Check GenChk UB3LYP/6-311++G(d,p) F
 req
 ----------------------------------------------------------------------

 Structure from the checkpoint file:  "043.chk"
 --------
 Oxidized
 --------
 Charge =  0 Multiplicity = 1

                          Input orientation:
 ---------------------------------------------------------------------
 Center     Atomic      Atomic             Coordinates (Angstroms)
 Number     Number       Type             X           Y           Z
 ---------------------------------------------------------------------
      1          6           0        0.819783    1.628416   -0.688138
      2          6           0       -0.555951    0.996410   -0.636011
      3          6           0       -0.678726   -0.233314   -0.067699
      4          6           0        0.584692   -0.978793    0.307778
      5          6           0        1.934063   -0.350738    0.227944
      6          6           0        2.045377    0.908872   -0.237913
      7          6           0        3.322625    1.688299   -0.368702
      8          6           0        3.067482   -1.220878    0.690709
      9          8           0        0.948999    2.776364   -1.100076
     10          8           0        0.515740   -2.143930    0.684487
     11          1           0        4.186203    1.133987   -0.010877
     12          1           0        3.252807    2.624556    0.191061
     13          1           0        3.495110    1.964496   -1.412568
     14          1           0        3.119584   -2.128225    0.082790
     15          1           0        2.901130   -1.547786    1.720467
     16          1           0        4.027879   -0.714967    0.638227
     17          6           0       -1.926913   -1.062359    0.239641
     18          6           0       -3.105328   -0.334665    0.905347
     19          6           0       -2.363692   -1.942410   -0.952791
     20          6           0       -1.617920    1.923426   -1.229343
     21          6           0       -2.251785    2.851672   -0.169201
     22          6           0       -2.659269    1.291959   -2.166347
     23          1           0       -1.577481   -1.772574    0.989528
     24          1           0       -3.800732   -1.085965    1.291224
     25          1           0       -3.668341    0.309149    0.232607
     26          1           0       -2.767945    0.267440    1.752701
     27          1           0       -3.144974   -2.634816   -0.625420
     28          1           0       -1.525172   -2.536912   -1.323006
     29          1           0       -2.757767   -1.357508   -1.783215
     30          1           0       -1.038169    2.591863   -1.866335
     31          1           0       -2.869310    3.604147   -0.668617
     32          1           0       -1.479607    3.377291    0.397608
     33          1           0       -2.882419    2.312314    0.536903
     34          1           0       -3.173609    2.095806   -2.701371
     35          1           0       -3.421456    0.706837   -1.655657
     36          1           0       -2.180782    0.653456   -2.913164
 ---------------------------------------------------------------------

 SCF Done:  E(UB3LYP) =  -696.163153358     A.U. after    1 cycles

 Alpha  occ. eigenvalues --  -19.13249 -19.13241 -10.27780 -10.27769 -10.21044
 Alpha  occ. eigenvalues --  -10.20974 -10.20906 -10.20830 -10.18464 -10.18438
 Alpha  occ. eigenvalues --  -10.17333 -10.17327 -10.16109 -10.16094 -10.16085
 Alpha  occ. eigenvalues --  -10.16080  -1.06586  -1.06385  -0.86301  -0.83437
 Alpha  occ. eigenvalues --   -0.79873  -0.76489  -0.74969  -0.69284  -0.69146
 Alpha  occ. eigenvalues --   -0.68677  -0.67886  -0.62032  -0.60315  -0.57455
 Alpha  occ. eigenvalues --   -0.54111  -0.53344  -0.48997  -0.46589  -0.46353
 Alpha  occ. eigenvalues --   -0.45511  -0.45259  -0.44912  -0.43555  -0.43173
 Alpha  occ. eigenvalues --   -0.42701  -0.42429  -0.40906  -0.40836  -0.39704
 Alpha  occ. eigenvalues --   -0.39486  -0.39393  -0.39284  -0.38224  -0.38113
 Alpha  occ. eigenvalues --   -0.36090  -0.35202  -0.34981  -0.34832  -0.33283
 Alpha  occ. eigenvalues --   -0.32377  -0.29103  -0.28793  -0.26585  -0.26288
 Alpha virt. eigenvalues --   -0.12307  -0.01626  -0.01113   0.00079   0.00115
 Alpha virt. eigenvalues --    0.00584   0.01177   0.01896   0.02159   0.02692
 Alpha virt. eigenvalues --    0.03151   0.03252   0.04350   0.04482   0.04863

  Beta  occ. eigenvalues --  -19.13249 -19.13241 -10.27780 -10.27769 -10.21044
  Beta  occ. eigenvalues --  -10.20974 -10.20906 -10.20830 -10.18464 -10.18438
  Beta  occ. eigenvalues --  -10.17333 -10.17327 -10.16109 -10.16094 -10.16085
  Beta  occ. eigenvalues --  -10.16080  -1.06586  -1.06385  -0.86301  -0.83437
  Beta  occ. eigenvalues --   -0.79873  -0.76489  -0.74969  -0.69284  -0.69146
  Beta  occ. eigenvalues --   -0.68677  -0.67886  -0.62032  -0.60315  -0.57455
  Beta  occ. eigenvalues --   -0.54111  -0.53344  -0.48997  -0.46589  -0.46353
  Beta  occ. eigenvalues --   -0.45511  -0.45259  -0.44912  -0.43555  -0.43173
  Beta  occ. eigenvalues --   -0.42701  -0.42429  -0.40906  -0.40836  -0.39704
  Beta  occ. eigenvalues --   -0.39486  -0.39393  -0.39284  -0.38224  -0.38113
  Beta  occ. eigenvalues --   -0.36090  -0.35202  -0.34981  -0.34832  -0.33283
  Beta  occ. eigenvalues --   -0.32377  -0.29103  -0.28793  -0.26585  -0.26288
  Beta virt. eigenvalues --   -0.12307  -0.01626  -0.01113   0.00079   0.00115
  Beta virt. eigenvalues --    0.00584   0.01177   0.01896   0.02159   0.02692
  Beta virt. eigenvalues --    0.03151   0.03252   0.04350   0.04482   0.04863

 Mulliken charges and spin densities:
               1          2
     1  C   -1.117399  -0.000000
     2  C    1.031032  -0.000000
     3  C    1.061659   0.000000
     4  C   -1.110559  -0.000000
     5  C    0.242088   0.000000
     6  C    0.273964  -0.000000
     7  C   -0.495491  -0.000000
     8  C   -0.503585   0.000000
     9  O   -0.224516  -0.000000
    10  O   -0.225550   0.000000
    11  H    0.126305  -0.000000
    12  H    0.194016   0.000000
    13  H    0.191653   0.000000
    14  H    0.196672  -0.000000
    15  H    0.189069  -0.000000
    16  H    0.125928   0.000000
    17  C    0.206774   0.000000
    18  C   -0.639336  -0.000000
    19  C   -0.674623   0.000000
    20  C    0.191270  -0.000000
    21  C   -0.673753   0.000000
    22  C   -0.635232   0.000000
    23  H    0.219639  -0.000000
    24  H    0.171450   0.000000
    25  H    0.130870  -0.000000
    26  H    0.146740   0.000000
    27  H    0.157408   0.000000
    28  H    0.176928  -0.000000
    29  H    0.131537  -0.000000
    30  H    0.221309   0.000000
    31  H    0.157021   0.000000
    32  H    0.174226   0.000000
    33  H    0.131878   0.000000
    34  H    0.171407  -0.000000
    35  H    0.131756   0.000000
    36  H    0.147444  -0.000000
 Sum of Mulliken charges =  -0.00000   0.00000

 Dipole moment (field-independent basis, Debye):
    X=              0.0524    Y=              0.0421    Z=              0.1273  Tot=              0.1440
 Quadrupole moment (field-independent basis, Debye-Ang):
   XX=            -86.5314   YY=           -113.9189   ZZ=            -99.2323
   XY=             -1.6984   XZ=              1.9537   YZ=              4.6843

  Exact polarizability: 232.552   7.965 292.580   4.562 -42.272 184.751
 Approx polarizability: 231.208  13.892 364.801  -0.357 -64.721 212.888

                      1                      2                      3
                      A                      A                      A
 Frequencies --     14.6288                42.2526                64.5169
 Red. masses --      4.8731                 4.0950                 1.7549
 Frc consts  --      0.0006                 0.0043                 0.0043
 IR Inten    --      9.9920                 0.0523                 0.0294

                      4                      5                      6
                      A                      A                      A
 Frequencies --     80.0499                89.1666               110.1499
 Red. masses --      1.6908                 1.5053                 1.4718
 Frc consts  --      0.0064                 0.0071                 0.0105
 IR Inten    --      0.2789                 4.7648                 0.0271

                      7                      8                      9
                      A                      A                      A
 Frequencies --    140.4219               160.0329               180.9173
 Red. masses --      2.5500                 2.0491                 1.7296
 Frc consts  --      0.0296                 0.0309                 0.0334
 IR Inten    --      0.0150                 0.4323                 0.9608

                     10                     11                     12
                      A                      A                      A
 Frequencies --    189.5857               209.0427               221.2665
 Red. masses --      1.1978                 1.8147                 3.3044
 Frc consts  --      0.0254                 0.0467                 0.0953
 IR Inten    --      0.1018                 1.2402                 0.0071

                     13                     14                     15
                      A                      A                      A
 Frequencies --    236.8433               237.5461               255.5594
 Red. masses --      2.8631                 2.3817                 1.1075
 Frc consts  --      0.0946                 0.0792                 0.0426
 IR Inten    --      0.2073                 0.2721                 0.0363

                     16                     17                     18
                      A                      A                      A
 Frequencies --    261.0858               280.2737               288.1783
 Red. masses --      1.8263                 1.5610                 2.6813
 Frc consts  --      0.0733                 0.0722                 0.1312
 IR Inten    --      0.1389                 0.1519                 0.9606

                     19                     20                     21
                      A                      A                      A
 Frequencies --    342.5188               367.0427               412.6911
 Red. masses --      3.3097                 2.7197                 2.8726
 Frc consts  --      0.2288                 0.2159                 0.2883
 IR Inten    --      0.0140                 1.2885                 0.2772

                     22                     23                     24
                      A                      A                      A
 Frequencies --    432.2854               436.8456               445.8040
 Red. masses --      4.5778                 4.7558                 3.6538
 Frc consts  --      0.5040                 0.5347                 0.4278
 IR Inten    --      5.1686                 0.3891                 0.1098

                     25                     26                     27
                      A                      A                      A
 Frequencies --    453.3882               490.6401               493.3128
 Red. masses --      6.2703                 4.1262                 4.6262
 Frc consts  --      0.7594                 0.5852                 0.6633
 IR Inten    --     42.0773                 5.0060                 4.9745

                     28                     29                     30
                      A                      A                      A
 Frequencies --    557.9279               595.1259               634.0569
 Red. masses --      3.1365                 4.2801                 5.0331
 Frc consts  --      0.5752                 0.8931                 1.1922
 IR Inten    --      0.2665                 2.9673                 0.2322

                     31                     32                     33
                      A                      A                      A
 Frequencies --    710.6155               744.9542               770.7925
 Red. masses --      3.3482                 6.0443                 4.6984
 Frc consts  --      0.9962                 1.9763                 1.6446
 IR Inten    --     12.9375                34.9407                17.7204

                     34                     35                     36
                      A                      A                      A
 Frequencies --    823.3724               851.8488               883.2794
 Red. masses --      7.3997                 3.1034                 2.8456
 Frc consts  --      2.9557                 1.3268                 1.3080
 IR Inten    --      1.6925                 6.8904                 7.3951

                     37                     38                     39
                      A                      A                      A
 Frequencies --    904.3387               929.5969               938.9264
 Red. masses --      2.3970                 1.1870                 1.1842
 Frc consts  --      1.1550                 0.6043                 0.6151
 IR Inten    --     29.5054                 3.6842                 3.4614

                     40                     41                     42
                      A                      A                      A
 Frequencies --    963.9811               970.6073               977.0253
 Red. masses --      1.9952                 1.5715                 1.7677
 Frc consts  --      1.0924                 0.8723                 0.9942
 IR Inten    --      8.5478                 0.4897                 6.5153

                     43                     44                     45
                      A                      A                      A
 Frequencies --    977.3797              1026.9586              1060.2301
 Red. masses --      1.7731                 1.4764                 1.5918
 Frc consts  --      0.9979                 0.9174                 1.0543
 IR Inten    --      6.2305                 0.7586                 0.1841

                     46                     47                     48
                      A                      A                      A
 Frequencies --   1093.8395              1104.6499              1112.3638
 Red. masses --      2.3722                 1.5225                 2.3127
 Frc consts  --      1.6723                 1.0946                 1.6860
 IR Inten    --     58.1277                21.2410                36.7438

                     49                     50                     51
                      A                      A                      A
 Frequencies --   1120.3799              1132.9180              1148.4106
 Red. masses --      2.7675                 2.4471                 2.4648
 Frc consts  --      2.0468                 1.8505                 1.9152
 IR Inten    --     66.5048                 8.4841                43.3989

                     52                     53                     54
                      A                      A                      A
 Frequencies --   1161.6240              1201.5564              1237.4702
 Red. masses --      2.5186                 2.1175                 2.6812
 Frc consts  --      2.0024                 1.8012                 2.4191
 IR Inten    --     80.7716                31.7096                47.4616

                     55                     56                     57
                      A                      A                      A
 Frequencies --   1267.9239              1326.2244              1352.4466
 Red. masses --      9.5744                 3.8103                 1.2779
 Frc consts  --      9.0687                 3.9486                 1.3771
 IR Inten    --    266.2194                20.4034                 0.4836

                     58                     59                     60
                      A                      A                      A
 Frequencies --   1353.2788              1393.0045              1393.4258
 Red. masses --      1.2652                 1.2059                 1.2072
 Frc consts  --      1.3651                 1.3787                 1.3810
 IR Inten    --      3.1241                 8.2527                 5.5551

                     61                     62                     63
                      A                      A                      A
 Frequencies --   1402.8661              1404.8294              1406.7906
 Red. masses --      1.2990                 1.3685                 1.2188
 Frc consts  --      1.5062                 1.5912                 1.4212
 IR Inten    --      0.5208                44.1781                 0.3392

                     64                     65                     66
                      A                      A                      A
 Frequencies --   1412.7905              1422.6136              1429.5788
 Red. masses --      1.1959                 1.2031                 1.3395
 Frc consts  --      1.4064                 1.4345                 1.6129
 IR Inten    --      4.6626                 1.7726                11.8640

                     67                     68                     69
                      A                      A                      A
 Frequencies --   1463.2505              1464.8785              1465.3483
 Red. masses --      1.0472                 1.0423                 1.0447
 Frc consts  --      1.3210                 1.3178                 1.3216
 IR Inten    --     14.0727                 1.8802                21.2305

                     70                     71                     72
                      A                      A                      A
 Frequencies --   1478.0505              1481.6996              1486.0153
 Red. masses --      1.0441                 1.0964                 1.0448
 Frc consts  --      1.3440                 1.4182                 1.3594
 IR Inten    --      4.8272                 7.8253                 2.3068

                     73                     74                     75
                      A                      A                      A
 Frequencies --   1486.6977              1488.7817              1493.6828
 Red. masses --      1.0457                 1.0471                 1.0570
 Frc consts  --      1.3618                 1.3674                 1.3895
 IR Inten    --     11.0277                 2.2901                 7.6407

                     76                     77                     78
                      A                      A                      A
 Frequencies --   1505.9182              1508.3029              1515.1577
 Red. masses --      1.0489                 1.0581                 1.0590
 Frc consts  --      1.4014                 1.4183                 1.4324
 IR Inten    --      3.9621                12.0504                35.3243

                     79                     80                     81
                      A                      A                      A
 Frequencies --   1630.6929              1663.5099              1677.1904
 Red. masses --      7.1623                12.4031                12.4214
 Frc consts  --     11.2214                20.2224                20.5866
 IR Inten    --     55.6124              1158.0812                 0.7230

                     82                     83                     84
                      A                      A                      A
 Frequencies --   1706.4850              3030.4470              3030.7718
 Red. masses --      7.8699                 1.0392                 1.0399
 Frc consts  --     13.5028                 5.6227                 5.6280
 IR Inten    --     34.8273                17.1024                87.6112

                     85                     86                     87
                      A                      A                      A
 Frequencies --   3033.0439              3036.0664              3041.5874
 Red. masses --      1.0397                 1.0425                 1.0398
 Frc consts  --      5.6353                 5.6618                 5.6678
 IR Inten    --     49.2320                63.2963                17.7177

                     88                     89                     90
                      A                      A                      A
 Frequencies --   3044.1496              3071.8307              3073.6697
 Red. masses --      1.0418                 1.0828                 1.0816
 Frc consts  --      5.6879                 6.0201                 6.0207
 IR Inten    --     12.1419                 2.9450                 6.7301

                     91                     92                     93
                      A                      A                      A
 Frequencies --   3085.1212              3085.6225              3086.1293
 Red. masses --      1.1006                 1.0999                 1.0990
 Frc consts  --      6.1718                 6.1701                 6.1673
 IR Inten    --     12.8613                78.8411                 7.8201

                     94                     95                     96
                      A                      A                      A
 Frequencies --   3086.2323              3089.3715              3090.1650
 Red. masses --      1.0988                 1.1002                 1.0999
 Frc consts  --      6.1664                 6.1865                 6.1884
 IR Inten    --     22.3205                56.6592                63.0873

                     97                     98                     99
                      A                      A                      A
 Frequencies --   3126.8085              3127.6230              3130.2921
 Red. masses --      1.0984                 1.0983                 1.0972
 Frc consts  --      6.3270                 6.3302                 6.3345
 IR Inten    --     15.8424                85.5448                 0.1677

                    100                    101                    102
                      A                      A                      A
 Frequencies --   3145.0026              3145.7675              3161.4548
 Red. masses --      1.0999                 1.0925                 1.0943
 Frc consts  --      6.4099                 6.3699                 6.4443
 IR Inten    --      6.2961                33.6944                36.7060

 - Thermochemistry -
 -------------------
 Temperature   298.150 Kelvin.  Pressure   1.00000 Atm.
 Atom     1 has atomic number  6 and mass  12.00000

 Molecular mass:   220.14633 amu.
 Principal axes and moments of inertia in atomic units:
                           1         2         3
     Eigenvalues --  2654.162303831.950915770.56195
           X            0.99100   0.07714  -0.10942
           Y           -0.03949   0.94938   0.31164
           Z            0.12793  -0.30451   0.94388
 This molecule is an asymmetric top.
 Rotational symmetry number  1.
 Warning -- assumption of classical behavior for rotation
           may cause significant error
 Rotational temperatures (Kelvin)      0.03263     0.02260     0.01501
 Rotational constants (GHZ):           0.67997     0.47097     0.31275
 Zero-point vibrational energy     809709.6 (Joules/Mol)
                                  193.52523 (Kcal/Mol)
 Warning -- explicit consideration of  29 degrees of freedom as
           vibrations may cause significant error
 Vibrational temperatures:     21.05    60.79    92.83   115.17   128.29
          (Kelvin)            158.48   202.04   230.25   260.30   272.77
                              300.77   318.35   340.76   341.78   367.69
                              375.64   403.25   414.62   492.81   528.09
                              593.77   621.96   628.52   641.41   652.32
                              705.92   709.77   802.73   856.25   912.27
                             1022.42  1071.82  1109.00  1184.65  1225.62
                             1270.84  1301.14  1337.48  1350.91  1386.95
                             1396.49  1405.72  1406.23  1477.56  1525.43
                             1573.79  1589.34  1600.44  1611.98  1630.02
                             1652.31  1671.32  1728.77  1780.44  1824.26
                             1908.14  1945.87  1947.07  2004.22  2004.83
                             2018.41  2021.24  2024.06  2032.69  2046.82
                             2056.84  2105.29  2107.63  2108.31  2126.58
                             2131.84  2138.04  2139.03  2142.02  2149.08
                             2166.68  2170.11  2179.97  2346.20  2393.42
                             2413.10  2455.25  4360.14  4360.60  4363.87
                             4368.22  4376.17  4379.85  4419.68  4422.33
                             4438.80  4439.52  4440.25  4440.40  4444.92
                             4446.06  4498.78  4499.95  4503.79  4524.96
                             4526.06  4548.63

 Zero-point correction=                           0.308402 (Hartree/Particle)
 Thermal correction to Energy=                    0.326679
 Thermal correction to Enthalpy=                  0.327623
 Thermal correction to Gibbs Free Energy=         0.261896
 Sum of electronic and zero-point Energies=           -695.854751
 Sum of electronic and thermal Energies=              -695.836475
 Sum of electronic and thermal Enthalpies=            -695.835531
 Sum of electronic and thermal Free Energies=         -695.901258

                     E (Thermal)             CV                S
                      KCal/Mol        Cal/Mol-Kelvin    Cal/Mol-Kelvin
 Total                  204.994             67.489            138.334
 Electronic               0.000              0.000              0.000
 Translational            0.889              2.981             42.070
 Rotational               0.889              2.981             32.440
 Vibrational            203.216             61.527             63.824
 Vibration     1          0.593              1.986              7.255
 Vibration     2          0.595              1.980              5.151
 Vibration     3          0.597              1.971              4.314
 Vibration     4          0.600              1.963              3.890
 Vibration     5          0.602              1.957              3.678
 Vibration     6          0.606              1.941              3.266
 Vibration     7          0.615              1.913              2.798
 Vibration     8          0.622              1.891              2.549
 Vibration     9          0.630              1.866              2.319
 Vibration    10          0.633              1.854              2.232
 Vibration    11          0.642              1.827              2.052
 Vibration    12          0.648              1.809              1.949
 Vibration    13          0.656              1.784              1.826
 Vibration    14          0.656              1.783              1.821
 Vibration    15          0.666              1.753              1.692
 Vibration    16          0.669              1.744              1.654
 Vibration    17          0.680              1.710              1.532
 Vibration    18          0.685              1.696              1.485
 Vibration    19          0.722              1.590              1.200
 Vibration    20          0.740              1.540              1.092
 Vibration    21          0.776              1.443              0.917
 Vibration    22          0.793              1.400              0.851
 Vibration    23          0.797              1.390              0.837
 Vibration    24          0.805              1.370              0.809
 Vibration    25          0.812              1.353              0.786
 Vibration    26          0.846              1.271              0.682
 Vibration    27          0.849              1.265              0.675
 Vibration    28          0.913              1.122              0.528
 Vibration    29          0.953              1.042              0.458

                           ! Non-Optimized Parameters !
 Normal termination of Gaussian 16 at Sat Feb 10 14:14:57 2024.
