 Gaussian 16, Revision A.03,
 Gaussian 16:  ES64L-G16RevA.03 25-Dec-2016

 ----------------------------------------------------------------------
 #P UB3LYP/6-311++G(d,p) nosym opt freq SCRF=(PCM,Solvent=n,n-DiMethylF
 ormamide)
 ----------------------------------------------------------------------

 -------
 Radical
 -------
 Symbolic Z-matrix:
 Charge = -1 Multiplicity = 2

 SCF Done:  E(UB3LYP) =  -474.003134527     A.U. after   20 cycles
 SCF Done:  E(UB3LYP) =  -474.003317464     A.U. after   15 cycles
 SCF Done:  E(UB3LYP) =  -474.003380523     A.U. after   14 cycles
 SCF Done:  E(UB3LYP) =  -474.003384310     A.U. after   12 cycles
 Optimization completed.
    -- Stationary point found.
 Normal termination of Gaussian 16 at Sat Feb 10 10:08:22 2024.

 ----------------------------------------------------------------------
 #P Geom=AllCheck Guess=TCheck SCRF=Check GenChk UB3LYP/6-311++G(d,p) F
 req
 ----------------------------------------------------------------------

 Structure from the checkpoint file:  "000-rad.chk"
 -------
 Radical
 -------
 Charge = -1 Multiplicity = 2

                          Input orientation:
 ---------------------------------------------------------------------
 Center     Atomic      Atomic             Coordinates (Angstroms)
 Number     Number       Type             X           Y           Z
 ---------------------------------------------------------------------
      1          6           0       -0.295323    1.161281   -0.267914
      2          6           0       -1.365936    0.303133   -0.741803
      3          6           0       -1.311510   -1.054746   -0.655051
      4          6           0       -0.174403   -1.752669   -0.079747
      5          6           0        0.898978   -0.922304    0.396039
      6          6           0        0.848021    0.459785    0.309557
      7          8           0       -0.350091    2.415074   -0.349695
      8          8           0       -0.131161   -3.016924   -0.002664
      9          6           0        1.932612    1.245580    0.791430
     10          7           0        2.818003    1.881867    1.184495
     11          1           0       -2.227105    0.800577   -1.176154
     12          1           0       -2.131110   -1.666002   -1.019953
     13          1           0        1.762145   -1.413983    0.830499
 ---------------------------------------------------------------------

 SCF Done:  E(UB3LYP) =  -474.003384310     A.U. after    1 cycles

 Alpha  occ. eigenvalues --  -19.09366 -19.09140 -14.31547 -10.24389 -10.23376
 Alpha  occ. eigenvalues --  -10.21775 -10.20687 -10.18928 -10.18021 -10.17879
 Alpha  occ. eigenvalues --   -1.01798  -1.00971  -0.91629  -0.84460  -0.77646
 Alpha  occ. eigenvalues --   -0.70752  -0.64357  -0.59870  -0.51849  -0.49348
 Alpha  occ. eigenvalues --   -0.47787  -0.44276  -0.42988  -0.42025  -0.39778
 Alpha  occ. eigenvalues --   -0.39107  -0.38590  -0.37592  -0.36706  -0.34304
 Alpha  occ. eigenvalues --   -0.29495  -0.27446  -0.25814  -0.25382  -0.18098
 Alpha virt. eigenvalues --   -0.04972   0.00091   0.00697   0.01465   0.01939
 Alpha virt. eigenvalues --    0.02331   0.04271   0.04504   0.05050   0.06142
 Alpha virt. eigenvalues --    0.06752   0.07479   0.08156   0.08614   0.08906

  Beta  occ. eigenvalues --  -19.08736 -19.08346 -14.31486 -10.24303 -10.23281
  Beta  occ. eigenvalues --  -10.21794 -10.20578 -10.18679 -10.17968 -10.17794
  Beta  occ. eigenvalues --   -1.00716  -0.99581  -0.91520  -0.83831  -0.77370
  Beta  occ. eigenvalues --   -0.69692  -0.63948  -0.59490  -0.51444  -0.49123
  Beta  occ. eigenvalues --   -0.47403  -0.44070  -0.41417  -0.41335  -0.39364
  Beta  occ. eigenvalues --   -0.38397  -0.37423  -0.36742  -0.35394  -0.34222
  Beta  occ. eigenvalues --   -0.26605  -0.26091  -0.25205  -0.24665
  Beta virt. eigenvalues --   -0.10875  -0.03507   0.00126   0.01478   0.01987
  Beta virt. eigenvalues --    0.02391   0.02412   0.04296   0.04563   0.05385
  Beta virt. eigenvalues --    0.06221   0.07451   0.07520   0.08253   0.08623

 Mulliken charges and spin densities:
               1          2
     1  C   -1.070244   0.032895
     2  C    0.159339   0.068811
     3  C    0.064884   0.036679
     4  C   -0.343023   0.090338
     5  C   -0.445519   0.169415
     6  C    2.118218   0.076502
     7  O   -0.462035   0.228177
     8  O   -0.480857   0.280464
     9  C   -0.813836   0.006615
    10  N   -0.341601   0.031182
    11  H    0.205379  -0.005440
    12  H    0.204676  -0.003505
    13  H    0.204620  -0.012133
 Sum of Mulliken charges =  -1.00000   1.00000

 Dipole moment (field-independent basis, Debye):
    X=             -3.9407    Y=             -2.0946    Z=             -1.4267  Tot=              4.6853
 Quadrupole moment (field-independent basis, Debye-Ang):
   XX=            -71.1287   YY=           -104.4794   ZZ=            -61.8105
   XY=             -9.7866   XZ=             -4.6531   YZ=             -2.5136

  Exact polarizability: 151.238  23.740 239.447  38.350   3.691  86.831
 Approx polarizability: 163.526  23.726 278.594  40.030   2.312  96.463

                      1                      2                      3
                      A                      A                      A
 Frequencies --    105.5374               143.5954               149.2703
 Red. masses --      6.8150                 8.8287                12.2579
 Frc consts  --      0.0447                 0.1073                 0.1609
 IR Inten    --      7.2988                22.9044                 4.4022

                      4                      5                      6
                      A                      A                      A
 Frequencies --    306.1559               356.4361               377.9620
 Red. masses --      6.3717                13.5568                 4.2671
 Frc consts  --      0.3519                 1.0148                 0.3592
 IR Inten    --      0.1466                10.4058                 0.4060

                      7                      8                      9
                      A                      A                      A
 Frequencies --    433.7754               456.2779               504.1572
 Red. masses --      7.4263                11.7886                 3.2416
 Frc consts  --      0.8233                 1.4460                 0.4854
 IR Inten    --      3.1084                 4.8656                14.6789

                     10                     11                     12
                      A                      A                      A
 Frequencies --    512.6489               627.2074               632.5516
 Red. masses --     11.1610                 5.5320                 3.9456
 Frc consts  --      1.7282                 1.2822                 0.9302
 IR Inten    --      4.8243                 0.0199                 0.2663

                     13                     14                     15
                      A                      A                      A
 Frequencies --    696.0978               749.8848               821.1742
 Red. masses --      7.7990                 3.4585                 6.0906
 Frc consts  --      2.2265                 1.1458                 2.4198
 IR Inten    --     13.3273                 0.0821                74.6528

                     16                     17                     18
                      A                      A                      A
 Frequencies --    834.7092               882.8254               917.4559
 Red. masses --      1.8709                 1.6344                 3.6476
 Frc consts  --      0.7680                 0.7505                 1.8090
 IR Inten    --     33.7535                60.3407                 1.1471

                     19                     20                     21
                      A                      A                      A
 Frequencies --    979.9828              1085.4560              1151.3702
 Red. masses --      1.2762                 2.9891                 1.6115
 Frc consts  --      0.7221                 2.0750                 1.2587
 IR Inten    --      0.1407                32.0694                48.9811

                     22                     23                     24
                      A                      A                      A
 Frequencies --   1225.9195              1254.6919              1350.8880
 Red. masses --      2.3478                 1.9379                 2.2643
 Frc consts  --      2.0789                 1.7974                 2.4346
 IR Inten    --     18.2402                50.0088                11.9093

                     25                     26                     27
                      A                      A                      A
 Frequencies --   1423.0460              1471.9850              1508.3669
 Red. masses --      4.5203                 7.1582                 5.0980
 Frc consts  --      5.3933                 9.1382                 6.8338
 IR Inten    --    144.7660               159.1804               439.7170

                     28                     29                     30
                      A                      A                      A
 Frequencies --   1530.5355              1639.8853              2288.7589
 Red. masses --      7.7910                 6.7201                12.6860
 Frc consts  --     10.7531                10.6477                39.1539
 IR Inten    --    713.2045                11.4775               408.8172

                     31                     32                     33
                      A                      A                      A
 Frequencies --   3157.4874              3175.4087              3180.7389
 Red. masses --      1.0865                 1.0955                 1.0912
 Frc consts  --      6.3822                 6.5080                 6.5047
 IR Inten    --     19.7625                25.1388                 8.0376

 - Thermochemistry -
 -------------------
 Temperature   298.150 Kelvin.  Pressure   1.00000 Atm.
 Atom     1 has atomic number  6 and mass  12.00000

 Molecular mass:   133.01638 amu.
 Principal axes and moments of inertia in atomic units:
                           1         2         3
     Eigenvalues --   760.910001611.079552371.98911
           X            0.46121   0.77588  -0.43045
           Y            0.86858  -0.49390   0.04039
           Z            0.18126   0.39251   0.90171
 This molecule is an asymmetric top.
 Rotational symmetry number  1.
 Warning -- assumption of classical behavior for rotation
           may cause significant error
 Rotational temperatures (Kelvin)      0.11383     0.05376     0.03652
 Rotational constants (GHZ):           2.37182     1.12021     0.76086
 Zero-point vibrational energy     214922.5 (Joules/Mol)
                                   51.36772 (Kcal/Mol)
 Warning -- explicit consideration of  10 degrees of freedom as
           vibrations may cause significant error
 Vibrational temperatures:    151.84   206.60   214.77   440.49   512.83
          (Kelvin)            543.80   624.11   656.48   725.37   737.59
                              902.41   910.10  1001.53  1078.92  1181.49
                             1200.96  1270.19  1320.01  1409.98  1561.73
                             1656.56  1763.82  1805.22  1943.63  2047.45
                             2117.86  2170.20  2202.10  2359.43  3293.01
                             4542.92  4568.70  4576.37

 Zero-point correction=                           0.081860 (Hartree/Particle)
 Thermal correction to Energy=                    0.089681
 Thermal correction to Enthalpy=                  0.090625
 Thermal correction to Gibbs Free Energy=         0.048321
 Sum of electronic and zero-point Energies=           -473.921525
 Sum of electronic and thermal Energies=              -473.913703
 Sum of electronic and thermal Enthalpies=            -473.912759
 Sum of electronic and thermal Free Energies=         -473.955064

                     E (Thermal)             CV                S
                      KCal/Mol        Cal/Mol-Kelvin    Cal/Mol-Kelvin
 Total                   56.276             29.178             89.037
 Electronic               0.000              0.000              1.377
 Translational            0.889              2.981             40.568
 Rotational               0.889              2.981             29.454
 Vibrational             54.498             23.216             17.637
 Vibration     1          0.605              1.945              3.349
 Vibration     2          0.616              1.910              2.755
 Vibration     3          0.618              1.903              2.682
 Vibration     4          0.697              1.662              1.383
 Vibration     5          0.732              1.562              1.138
 Vibration     6          0.748              1.517              1.047
 Vibration     7          0.795              1.397              0.846
 Vibration     8          0.815              1.347              0.777
 Vibration     9          0.859              1.241              0.648
 Vibration    10          0.868              1.222              0.627

 Optimization completed.
    -- Stationary point found.
 Normal termination of Gaussian 16 at Sat Feb 10 10:15:30 2024.
