 Gaussian 16, Revision A.03,
 Gaussian 16:  ES64L-G16RevA.03 25-Dec-2016

 --------------------------------------
 #P UB3LYP/6-311++G(d,p) nosym opt freq
 --------------------------------------

 --------
 Oxidized
 --------
 Symbolic Z-matrix:
 Charge =  0 Multiplicity = 1

 SCF Done:  E(UB3LYP) =  -838.037237817     A.U. after   16 cycles
 SCF Done:  E(UB3LYP) =  -838.052779002     A.U. after   16 cycles
 SCF Done:  E(UB3LYP) =  -838.057093833     A.U. after   14 cycles
 SCF Done:  E(UB3LYP) =  -838.061602872     A.U. after   14 cycles
 SCF Done:  E(UB3LYP) =  -838.062923139     A.U. after   14 cycles
 SCF Done:  E(UB3LYP) =  -838.062710219     A.U. after   15 cycles
 SCF Done:  E(UB3LYP) =  -838.063352330     A.U. after   13 cycles
 SCF Done:  E(UB3LYP) =  -838.063353642     A.U. after   13 cycles
 SCF Done:  E(UB3LYP) =  -838.063442351     A.U. after   12 cycles
 SCF Done:  E(UB3LYP) =  -838.063448921     A.U. after   12 cycles
 SCF Done:  E(UB3LYP) =  -838.063701371     A.U. after   13 cycles
 SCF Done:  E(UB3LYP) =  -838.063680267     A.U. after   14 cycles
 SCF Done:  E(UB3LYP) =  -838.063724931     A.U. after   13 cycles
 SCF Done:  E(UB3LYP) =  -838.063740496     A.U. after   12 cycles
 SCF Done:  E(UB3LYP) =  -838.063751213     A.U. after   12 cycles
 SCF Done:  E(UB3LYP) =  -838.063757253     A.U. after   11 cycles
 SCF Done:  E(UB3LYP) =  -838.063761774     A.U. after   11 cycles
 SCF Done:  E(UB3LYP) =  -838.063762320     A.U. after   10 cycles
 SCF Done:  E(UB3LYP) =  -838.063762352     A.U. after    8 cycles
 Optimization completed.
    -- Stationary point found.
 Normal termination of Gaussian 16 at Wed Dec 27 00:14:11 2023.

 ----------------------------------------------------------------------
 #P Geom=AllCheck Guess=TCheck SCRF=Check GenChk UB3LYP/6-311++G(d,p) F
 req
 ----------------------------------------------------------------------

 Structure from the checkpoint file:  "272.chk"
 --------
 Oxidized
 --------
 Charge =  0 Multiplicity = 1

                          Input orientation:
 ---------------------------------------------------------------------
 Center     Atomic      Atomic             Coordinates (Angstroms)
 Number     Number       Type             X           Y           Z
 ---------------------------------------------------------------------
      1          6           0       -0.906644    3.856125   -0.021039
      2          6           0       -2.021579    3.100254    0.332310
      3          6           0       -1.907025    1.718746    0.491813
      4          6           0        0.324979    3.227944   -0.212634
      5          6           0        0.440749    1.840237   -0.051201
      6          6           0       -0.679170    1.087859    0.298662
      7          6           0        1.513242    4.027852   -0.590538
      8          6           0        2.830318    3.327522   -0.805131
      9          6           0        2.930507    1.972932   -0.576743
     10          6           0        1.753248    1.164152   -0.254487
     11          8           0        1.461614    5.237778   -0.742832
     12          8           0        1.849867   -0.061592   -0.169417
     13          7           0        3.810210    4.140084   -1.248365
     14          1           0       -0.972363    4.928939   -0.153354
     15          1           0       -2.978399    3.586695    0.482844
     16          1           0       -2.776042    1.131939    0.766944
     17          1           0       -0.570288    0.017005    0.415955
     18          1           0        3.579403    5.125375   -1.245615
     19          1           0        4.773287    3.850523   -1.076853
     20          7           0        4.074566    1.167434   -0.753678
     21          1           0        3.812698    0.185793   -0.770531
     22          6           0        5.407919    1.443140   -0.621709
     23          6           0        6.323772    0.244853   -0.837222
     24          6           0        7.535192    0.259596    0.098261
     25          8           0        5.859788    2.558754   -0.378234
     26          1           0        6.659963    0.295905   -1.879847
     27          1           0        5.764457   -0.689983   -0.737068
     28          1           0        8.078859    1.200318    0.005399
     29          1           0        8.212786   -0.561833   -0.145241
     30          1           0        7.229016    0.149275    1.141633
 ---------------------------------------------------------------------

 SCF Done:  E(UB3LYP) =  -838.063762352     A.U. after    2 cycles

 Alpha  occ. eigenvalues --  -19.14099 -19.12509 -19.11163 -14.36801 -14.33776
 Alpha  occ. eigenvalues --  -10.29599 -10.29032 -10.27814 -10.25308 -10.23572
 Alpha  occ. eigenvalues --  -10.21235 -10.21178 -10.20482 -10.20377 -10.20322
 Alpha  occ. eigenvalues --  -10.20087 -10.19434 -10.17024  -1.07699  -1.06646
 Alpha  occ. eigenvalues --   -1.05718  -0.96156  -0.93787  -0.89425  -0.82389
 Alpha  occ. eigenvalues --   -0.79456  -0.78302  -0.76468  -0.70753  -0.67564
 Alpha  occ. eigenvalues --   -0.65293  -0.63815  -0.61283  -0.59575  -0.56897
 Alpha  occ. eigenvalues --   -0.54540  -0.53989  -0.51495  -0.51125  -0.48937
 Alpha  occ. eigenvalues --   -0.48252  -0.47269  -0.46406  -0.46036  -0.45583
 Alpha  occ. eigenvalues --   -0.45199  -0.43993  -0.43364  -0.42621  -0.41722
 Alpha  occ. eigenvalues --   -0.39420  -0.39115  -0.38149  -0.37826  -0.37497
 Alpha  occ. eigenvalues --   -0.36356  -0.35574  -0.32063  -0.29736  -0.28990
 Alpha  occ. eigenvalues --   -0.28369  -0.28248  -0.28136  -0.22484
 Alpha virt. eigenvalues --   -0.12084  -0.05890  -0.03263  -0.01448  -0.00872
 Alpha virt. eigenvalues --    0.00244   0.00655   0.01049   0.01489   0.01968
 Alpha virt. eigenvalues --    0.02718   0.03062   0.03258   0.04112   0.04333

  Beta  occ. eigenvalues --  -19.14099 -19.12509 -19.11163 -14.36801 -14.33776
  Beta  occ. eigenvalues --  -10.29599 -10.29032 -10.27814 -10.25308 -10.23572
  Beta  occ. eigenvalues --  -10.21235 -10.21178 -10.20482 -10.20377 -10.20322
  Beta  occ. eigenvalues --  -10.20087 -10.19434 -10.17024  -1.07699  -1.06646
  Beta  occ. eigenvalues --   -1.05718  -0.96156  -0.93787  -0.89425  -0.82389
  Beta  occ. eigenvalues --   -0.79456  -0.78302  -0.76468  -0.70753  -0.67564
  Beta  occ. eigenvalues --   -0.65293  -0.63815  -0.61283  -0.59575  -0.56897
  Beta  occ. eigenvalues --   -0.54540  -0.53989  -0.51495  -0.51125  -0.48937
  Beta  occ. eigenvalues --   -0.48252  -0.47269  -0.46406  -0.46036  -0.45583
  Beta  occ. eigenvalues --   -0.45199  -0.43993  -0.43364  -0.42621  -0.41722
  Beta  occ. eigenvalues --   -0.39420  -0.39115  -0.38149  -0.37826  -0.37497
  Beta  occ. eigenvalues --   -0.36356  -0.35574  -0.32063  -0.29736  -0.28990
  Beta  occ. eigenvalues --   -0.28369  -0.28248  -0.28136  -0.22484
  Beta virt. eigenvalues --   -0.12084  -0.05890  -0.03263  -0.01448  -0.00872
  Beta virt. eigenvalues --    0.00244   0.00655   0.01049   0.01489   0.01968
  Beta virt. eigenvalues --    0.02718   0.03062   0.03258   0.04112   0.04333

 Mulliken charges and spin densities:
               1          2
     1  C    0.186011   0.000000
     2  C   -0.266880  -0.000000
     3  C   -0.305252  -0.000000
     4  C    0.461976  -0.000000
     5  C    0.005279  -0.000000
     6  C    0.146197   0.000000
     7  C   -0.677728   0.000000
     8  C    0.440959   0.000000
     9  C    0.552934  -0.000000
    10  C   -1.058285   0.000000
    11  O   -0.239563   0.000000
    12  O   -0.257017  -0.000000
    13  N   -0.381933   0.000000
    14  H    0.183990  -0.000000
    15  H    0.174588   0.000000
    16  H    0.178379  -0.000000
    17  H    0.185571  -0.000000
    18  H    0.299461  -0.000000
    19  H    0.312781   0.000000
    20  N   -0.042542   0.000000
    21  H    0.363112  -0.000000
    22  C    0.118916   0.000000
    23  C   -0.262189  -0.000000
    24  C   -0.551992   0.000000
    25  O   -0.341041   0.000000
    26  H    0.182268  -0.000000
    27  H    0.117769   0.000000
    28  H    0.182222   0.000000
    29  H    0.146963  -0.000000
    30  H    0.145046  -0.000000
 Sum of Mulliken charges =  -0.00000   0.00000

 Dipole moment (field-independent basis, Debye):
    X=             -1.3309    Y=             -1.3080    Z=             -0.1177  Tot=              1.8698
 Quadrupole moment (field-independent basis, Debye-Ang):
   XX=            -95.7502   YY=           -114.4155   ZZ=           -106.5194
   XY=            -12.7746   XZ=             -5.9748   YZ=              1.3854

  Exact polarizability: 261.409 -12.905 209.886 -23.100 -15.093 105.920
 Approx polarizability: 346.525  10.780 427.910 -34.592 -39.544 169.664

                      1                      2                      3
                      A                      A                      A
 Frequencies --     25.5938                44.0112                60.3615
 Red. masses --      2.7174                 7.5180                 3.3463
 Frc consts  --      0.0010                 0.0086                 0.0072
 IR Inten    --      0.2456                 0.5288                 2.2798

                      4                      5                      6
                      A                      A                      A
 Frequencies --     76.1062               114.3552               129.4144
 Red. masses --      6.9825                 4.2837                 4.9547
 Frc consts  --      0.0238                 0.0330                 0.0489
 IR Inten    --      5.6850                 0.3520                 1.1652

                      7                      8                      9
                      A                      A                      A
 Frequencies --    148.2274               178.7974               212.3666
 Red. masses --      4.9119                 5.7865                 1.2170
 Frc consts  --      0.0636                 0.1090                 0.0323
 IR Inten    --      2.2490                 0.1337                 0.5009

                     10                     11                     12
                      A                      A                      A
 Frequencies --    245.7360               264.2297               300.0252
 Red. masses --      5.0275                 4.5521                 4.6528
 Frc consts  --      0.1789                 0.1873                 0.2468
 IR Inten    --      0.1850                 1.6254                 6.2759

                     13                     14                     15
                      A                      A                      A
 Frequencies --    309.2784               338.2832               389.1886
 Red. masses --      5.3750                 5.3746                 5.9179
 Frc consts  --      0.3029                 0.3624                 0.5281
 IR Inten    --      2.1733                 3.5085                 7.3230

                     16                     17                     18
                      A                      A                      A
 Frequencies --    401.0348               416.4992               437.7062
 Red. masses --      5.0830                 8.0888                 4.0259
 Frc consts  --      0.4817                 0.8267                 0.4544
 IR Inten    --     14.3097                20.6874                 3.9475

                     19                     20                     21
                      A                      A                      A
 Frequencies --    451.4451               478.7272               525.4204
 Red. masses --      4.8215                 7.7383                 5.4536
 Frc consts  --      0.5789                 1.0449                 0.8870
 IR Inten    --      0.9757                10.1495                 9.4570

                     22                     23                     24
                      A                      A                      A
 Frequencies --    559.3093               594.1053               621.5857
 Red. masses --      4.1637                 2.9032                 1.3628
 Frc consts  --      0.7674                 0.6037                 0.3102
 IR Inten    --      5.6254                27.3945               106.2490

                     25                     26                     27
                      A                      A                      A
 Frequencies --    657.3426               679.9502               691.9145
 Red. masses --      4.6830                 6.3385                 2.8777
 Frc consts  --      1.1922                 1.7266                 0.8117
 IR Inten    --      5.4501                 5.7612                44.5437

                     28                     29                     30
                      A                      A                      A
 Frequencies --    704.1429               713.4019               728.5083
 Red. masses --      4.1581                 1.4572                 2.1127
 Frc consts  --      1.2147                 0.4370                 0.6606
 IR Inten    --      3.4983                53.7123               116.2740

                     31                     32                     33
                      A                      A                      A
 Frequencies --    737.2732               744.6386               769.2605
 Red. masses --      2.2899                 1.7298                 6.5226
 Frc consts  --      0.7334                 0.5651                 2.2741
 IR Inten    --     57.2464                31.4229                 1.0743

                     34                     35                     36
                      A                      A                      A
 Frequencies --    804.6737               808.2799               850.5220
 Red. masses --      1.7816                 1.4547                 4.8518
 Frc consts  --      0.6797                 0.5599                 2.0679
 IR Inten    --     10.4231                17.1967                15.6779

                     37                     38                     39
                      A                      A                      A
 Frequencies --    912.4226               937.0669               962.6390
 Red. masses --      1.3331                 4.1869                 3.6014
 Frc consts  --      0.6539                 2.1661                 1.9663
 IR Inten    --      0.0944                21.7978                14.1840

                     40                     41                     42
                      A                      A                      A
 Frequencies --    996.2993              1014.3290              1033.0616
 Red. masses --      1.3811                 1.3225                 3.3144
 Frc consts  --      0.8077                 0.8017                 2.0841
 IR Inten    --      1.8647                 0.0454                 7.9566

                     43                     44                     45
                      A                      A                      A
 Frequencies --   1036.7769              1065.4529              1092.8589
 Red. masses --      2.9203                 2.0460                 2.0594
 Frc consts  --      1.8495                 1.3684                 1.4492
 IR Inten    --     58.9366                 7.2885                 4.0723

                     46                     47                     48
                      A                      A                      A
 Frequencies --   1098.8520              1115.1991              1180.6992
 Red. masses --      1.6605                 1.9496                 1.2655
 Frc consts  --      1.1814                 1.4285                 1.0394
 IR Inten    --      3.6348                11.9109                 3.9465

                     49                     50                     51
                      A                      A                      A
 Frequencies --   1191.7156              1214.9989              1246.7784
 Red. masses --      2.3866                 2.0181                 2.2564
 Frc consts  --      1.9970                 1.7553                 2.0665
 IR Inten    --     10.9714                19.5532                15.2068

                     52                     53                     54
                      A                      A                      A
 Frequencies --   1268.8977              1292.6700              1304.8351
 Red. masses --      1.8779                 1.4100                 2.3434
 Frc consts  --      1.7814                 1.3882                 2.3508
 IR Inten    --    160.6209                89.6304               112.1142

                     55                     56                     57
                      A                      A                      A
 Frequencies --   1331.8676              1369.8346              1379.7406
 Red. masses --      3.9664                 4.9987                 2.5868
 Frc consts  --      4.1455                 5.5264                 2.9014
 IR Inten    --    243.4953                97.8064               222.1183

                     58                     59                     60
                      A                      A                      A
 Frequencies --   1392.7229              1412.6322              1470.3198
 Red. masses --      2.2114                 1.2220                 1.0851
 Frc consts  --      2.5273                 1.4368                 1.3822
 IR Inten    --     28.4203                 8.2550                 8.9635

                     61                     62                     63
                      A                      A                      A
 Frequencies --   1484.7331              1495.8717              1507.6316
 Red. masses --      2.4310                 1.0396                 1.0579
 Frc consts  --      3.1574                 1.3706                 1.4168
 IR Inten    --      0.1921                12.6695                 9.8040

                     64                     65                     66
                      A                      A                      A
 Frequencies --   1509.7625              1543.4810              1592.6674
 Red. masses --      2.7005                 1.9873                 1.6994
 Frc consts  --      3.6267                 2.7894                 2.5398
 IR Inten    --     12.8181               550.4051               110.9079

                     67                     68                     69
                      A                      A                      A
 Frequencies --   1614.8563              1627.5967              1662.3874
 Red. masses --      5.0779                 5.2784                 8.2858
 Frc consts  --      7.8019                 8.2384                13.4911
 IR Inten    --    228.4513                40.8545               449.4292

                     70                     71                     72
                      A                      A                      A
 Frequencies --   1678.1378              1714.8712              1729.3322
 Red. masses --      5.7338                 6.9085                 6.1565
 Frc consts  --      9.5136                11.9700                10.8478
 IR Inten    --     72.1807                86.4961               197.3888

                     73                     74                     75
                      A                      A                      A
 Frequencies --   3022.6212              3038.5698              3061.8993
 Red. masses --      1.0629                 1.0366                 1.0982
 Frc consts  --      5.7215                 5.6388                 6.0661
 IR Inten    --     10.1829                33.8189                11.5626

                     76                     77                     78
                      A                      A                      A
 Frequencies --   3099.9352              3122.3461              3171.5717
 Red. masses --      1.1025                 1.1014                 1.0870
 Frc consts  --      6.2421                 6.3266                 6.4422
 IR Inten    --     29.5556                13.6599                 3.5937

                     79                     80                     81
                      A                      A                      A
 Frequencies --   3185.9861              3201.2403              3204.3178
 Red. masses --      1.0919                 1.0930                 1.0946
 Frc consts  --      6.5301                 6.5993                 6.6217
 IR Inten    --     10.0009                 1.4759                 7.8324

                     82                     83                     84
                      A                      A                      A
 Frequencies --   3391.9973              3516.9814              3604.2702
 Red. masses --      1.0598                 1.0755                 1.0907
 Frc consts  --      7.1845                 7.8379                 8.3480
 IR Inten    --    228.2007                80.2281               127.7516

 - Thermochemistry -
 -------------------
 Temperature   298.150 Kelvin.  Pressure   1.00000 Atm.
 Atom     1 has atomic number  6 and mass  12.00000

 Molecular mass:   244.08479 amu.
 Principal axes and moments of inertia in atomic units:
                           1         2         3
     Eigenvalues --  1974.541677281.356209069.97881
           X            0.96818   0.21870   0.12160
           Y           -0.23753   0.95610   0.17161
           Z           -0.07873  -0.19504   0.97763
 This molecule is an asymmetric top.
 Rotational symmetry number  1.
 Warning -- assumption of classical behavior for rotation
           may cause significant error
 Rotational temperatures (Kelvin)      0.04387     0.01190     0.00955
 Rotational constants (GHZ):           0.91401     0.24786     0.19898
 Zero-point vibrational energy     611994.3 (Joules/Mol)
                                  146.27014 (Kcal/Mol)
 Warning -- explicit consideration of  23 degrees of freedom as
           vibrations may cause significant error
 Vibrational temperatures:     36.82    63.32    86.85   109.50   164.53
          (Kelvin)            186.20   213.27   257.25   305.55   353.56
                              380.17   431.67   444.98   486.71   559.96
                              577.00   599.25   629.76   649.53   688.78
                              755.96   804.72   854.79   894.32   945.77
                              978.30   995.51  1013.10  1026.43  1048.16
                             1060.77  1071.37  1106.79  1157.75  1162.93
                             1223.71  1312.77  1348.23  1385.02  1433.45
                             1459.39  1486.35  1491.69  1532.95  1572.38
                             1581.00  1604.52  1698.76  1714.61  1748.11
                             1793.84  1825.66  1859.86  1877.37  1916.26
                             1970.89  1985.14  2003.82  2032.46  2115.46
                             2136.20  2152.23  2169.15  2172.21  2220.72
                             2291.49  2323.42  2341.75  2391.80  2414.47
                             2467.32  2488.12  4348.88  4371.82  4405.39
                             4460.12  4492.36  4563.18  4583.92  4605.87
                             4610.30  4880.33  5060.15  5185.74

 Zero-point correction=                           0.233096 (Hartree/Particle)
 Thermal correction to Energy=                    0.248749
 Thermal correction to Enthalpy=                  0.249693
 Thermal correction to Gibbs Free Energy=         0.189022
 Sum of electronic and zero-point Energies=           -837.830666
 Sum of electronic and thermal Energies=              -837.815013
 Sum of electronic and thermal Enthalpies=            -837.814069
 Sum of electronic and thermal Free Energies=         -837.874740

                     E (Thermal)             CV                S
                      KCal/Mol        Cal/Mol-Kelvin    Cal/Mol-Kelvin
 Total                  156.092             60.135            127.693
 Electronic               0.000              0.000              0.000
 Translational            0.889              2.981             42.378
 Rotational               0.889              2.981             33.233
 Vibrational            154.315             54.173             52.082
 Vibration     1          0.593              1.985              6.145
 Vibration     2          0.595              1.980              5.070
 Vibration     3          0.597              1.973              4.445
 Vibration     4          0.599              1.965              3.989
 Vibration     5          0.607              1.938              3.194
 Vibration     6          0.612              1.924              2.955
 Vibration     7          0.618              1.905              2.695
 Vibration     8          0.629              1.868              2.341
 Vibration     9          0.643              1.822              2.023
 Vibration    10          0.660              1.770              1.761
 Vibration    11          0.671              1.739              1.634
 Vibration    12          0.693              1.674              1.417
 Vibration    13          0.699              1.656              1.366
 Vibration    14          0.719              1.599              1.220
 Vibration    15          0.757              1.493              1.003
 Vibration    16          0.767              1.468              0.959
 Vibration    17          0.780              1.434              0.904
 Vibration    18          0.798              1.388              0.834
 Vibration    19          0.810              1.358              0.791
 Vibration    20          0.835              1.297              0.714
 Vibration    21          0.880              1.194              0.598
 Vibration    22          0.915              1.119              0.525
 Vibration    23          0.952              1.044              0.460

                           ! Non-Optimized Parameters !
 Normal termination of Gaussian 16 at Wed Dec 27 01:07:29 2023.
