 Q-Chem 5.4, Q-Chem, Inc., Pleasanton, CA (2021)
 Q-Chem 5.4.0 for Intel X86 EM64T Linux

User input:
--------------------------------------------------------------
$molecule
0 1
N                 -5.0250590000     -0.7520730000     -0.4412640000
C                 -3.7586360000     -0.2476110000     -0.2150650000
C                 -3.5837480000      0.9814920000      0.4526980000
C                 -2.3144780000      1.4609690000      0.7170640000
C                 -1.1747150000      0.7411040000      0.3327230000
C                  0.1667930000      1.2824980000      0.6303470000
O                  0.3227560000      2.3528930000      1.2033820000
C                  1.3458920000      0.4627890000      0.1995680000
C                  2.6207720000      0.9433620000      0.4723680000
C                  3.7582970000      0.2192490000      0.0869390000
N                  5.0243300000      0.6767810000      0.3996020000
C                  3.5834550000     -1.0092100000     -0.5819670000
C                  2.3142280000     -1.4852150000     -0.8527650000
C                  1.1744840000     -0.7646710000     -0.4696590000
C                 -0.1669980000     -1.3020730000     -0.7746230000
O                 -0.3228510000     -2.3651070000     -1.3612160000
C                 -1.3461620000     -0.4877450000     -0.3339650000
C                 -2.6210630000     -0.9713430000     -0.6011710000
H                 -5.8005240000     -0.1092970000     -0.4087270000
H                 -5.1206160000     -1.4861700000     -1.1252160000
H                 -4.4548070000      1.5500740000      0.7623170000
H                 -2.1767810000      2.4058980000      1.2285520000
H                  2.7130770000      1.8908660000      0.9913330000
H                  5.8023780000      0.2960110000     -0.1154810000
H                  5.1223660000      1.6500710000      0.6425080000
H                  4.4544700000     -1.5832520000     -0.8814630000
H                  2.1765360000     -2.4281070000     -1.3680040000
H                 -2.7133970000     -1.9221840000     -1.1140040000
$end

$rem
BASIS  =  6-311++G(d,p)
GUI  =  2
JOB_TYPE  =  SP
METHOD  =  B3LYP
SCF_CONVERGENCE  = 8
SOLVENT_METHOD = sm12
$end

$smx
solvent dimethylformamide
charges CM5
$end

--------------------------------------------------------------

             Standard Nuclear Orientation (Angstroms)
    I     Atom           X                Y                Z
 ----------------------------------------------------------------
    1      N      -5.0250590000    -0.7520730000    -0.4412640000
    2      C      -3.7586360000    -0.2476110000    -0.2150650000
    3      C      -3.5837480000     0.9814920000     0.4526980000
    4      C      -2.3144780000     1.4609690000     0.7170640000
    5      C      -1.1747150000     0.7411040000     0.3327230000
    6      C       0.1667930000     1.2824980000     0.6303470000
    7      O       0.3227560000     2.3528930000     1.2033820000
    8      C       1.3458920000     0.4627890000     0.1995680000
    9      C       2.6207720000     0.9433620000     0.4723680000
   10      C       3.7582970000     0.2192490000     0.0869390000
   11      N       5.0243300000     0.6767810000     0.3996020000
   12      C       3.5834550000    -1.0092100000    -0.5819670000
   13      C       2.3142280000    -1.4852150000    -0.8527650000
   14      C       1.1744840000    -0.7646710000    -0.4696590000
   15      C      -0.1669980000    -1.3020730000    -0.7746230000
   16      O      -0.3228510000    -2.3651070000    -1.3612160000
   17      C      -1.3461620000    -0.4877450000    -0.3339650000
   18      C      -2.6210630000    -0.9713430000    -0.6011710000
   19      H      -5.8005240000    -0.1092970000    -0.4087270000
   20      H      -5.1206160000    -1.4861700000    -1.1252160000
   21      H      -4.4548070000     1.5500740000     0.7623170000
   22      H      -2.1767810000     2.4058980000     1.2285520000
   23      H       2.7130770000     1.8908660000     0.9913330000
   24      H       5.8023780000     0.2960110000    -0.1154810000
   25      H       5.1223660000     1.6500710000     0.6425080000
   26      H       4.4544700000    -1.5832520000    -0.8814630000
   27      H       2.1765360000    -2.4281070000    -1.3680040000
   28      H      -2.7133970000    -1.9221840000    -1.1140040000
 ----------------------------------------------------------------

   14    -799.7102920099      6.08e-09  Convergence criterion met
 Total energy in the final basis set =     -799.7470996121

                    Orbital Energies (a.u.)
 --------------------------------------------------------------

 Alpha MOs
 -- Occupied --
-19.1155 -19.1155 -14.3299 -14.3298 -10.2691 -10.2691 -10.2383 -10.2382
-10.2023 -10.2022 -10.1925 -10.1925 -10.1897 -10.1897 -10.1874 -10.1874
-10.1858 -10.1858  -1.0506  -1.0489  -0.9356  -0.9355  -0.8741  -0.8588
 -0.7915  -0.7722  -0.7648  -0.7458  -0.6793  -0.6624  -0.6343  -0.6205
 -0.5833  -0.5639  -0.5566  -0.5294  -0.5157  -0.5144  -0.4898  -0.4788
 -0.4632  -0.4470  -0.4469  -0.4462  -0.4430  -0.4319  -0.4310  -0.4159
 -0.4073  -0.4030  -0.3909  -0.3832  -0.3717  -0.3585  -0.3287  -0.3205
 -0.2781  -0.2757  -0.2719  -0.2642  -0.2305  -0.2203

          Ground-State Mulliken Net Atomic Charges

     Atom                 Charge (a.u.)
  ----------------------------------------
      1 N                    -0.101071
      2 C                     0.947240
      3 C                     1.039848
      4 C                     0.065625
      5 C                    -0.579817
      6 C                    -2.013533
      7 O                    -0.267285
      8 C                    -0.535476
      9 C                     0.010882
     10 C                     0.951340
     11 N                    -0.102005
     12 C                     1.039264
     13 C                     0.066919
     14 C                    -0.577988
     15 C                    -2.014360
     16 O                    -0.267330
     17 C                    -0.535396
     18 C                     0.011660
     19 H                     0.386947
     20 H                     0.369423
     21 H                     0.325436
     22 H                     0.174451
     23 H                     0.174635
     24 H                     0.386938
     25 H                     0.369361
     26 H                     0.325447
     27 H                     0.174432
     28 H                     0.174415
  ----------------------------------------
  Sum of atomic charges =     0.000000

                    Cartesian Multipole Moments
 -----------------------------------------------------------------
    Charge (ESU x 10^10)
                 0.0000
    Dipole Moment (Debye)
         X       0.0040      Y       0.7199      Z      -1.3294
       Tot       1.5118
    Quadrupole Moments (Debye-Ang)
        XX     -34.9210     XY       3.3983     YY    -112.9859
        XZ       2.2991     YZ      -2.0723     ZZ    -110.0777

 Total job time:  570.94s(wall), 4335.69s(cpu)
        *  Thank you very much for using Q-Chem.  Have a nice day.  *
