 Gaussian 16, Revision A.03,
 Gaussian 16:  ES64L-G16RevA.03 25-Dec-2016

 ----------------------------------------------------------------
 #P UB3LYP/6-311++G(d,p) SCRF=(PCM,Solvent=n,n-DiMethylFormamide)
 ----------------------------------------------------------------

 ------------------
 Quinone PCM in DMF
 ------------------
 Symbolic Z-matrix:
 Charge =  0 Multiplicity = 1

                         Standard orientation:
 ---------------------------------------------------------------------
 Center     Atomic      Atomic             Coordinates (Angstroms)
 Number     Number       Type             X           Y           Z
 ---------------------------------------------------------------------
      1          6           0       -4.776498   -0.855502    0.001106
      2          6           0       -3.395062   -0.251219   -0.000266
      3          6           0       -3.227133    1.143807   -0.000465
      4          6           0       -1.963442    1.714596   -0.000336
      5          6           0       -0.822087    0.905067   -0.000136
      6          6           0        0.523875    1.541435   -0.000058
      7          8           0        0.654477    2.755439    0.000004
      8          6           0        1.711413    0.635924    0.000009
      9          6           0        2.992408    1.196215    0.000208
     10          6           0        4.114236    0.375697    0.000394
     11          6           0        3.966413   -1.014209    0.000374
     12          6           0        2.697087   -1.580158    0.000138
     13          6           0        1.562592   -0.762559   -0.000047
     14          6           0        0.211741   -1.397859   -0.000362
     15          8           0        0.083309   -2.611621   -0.000744
     16          6           0       -0.973937   -0.491362   -0.000162
     17          6           0       -2.254573   -1.052333   -0.000284
     18          1           0       -5.336504   -0.550724    0.890562
     19          1           0       -4.734716   -1.945538   -0.014319
     20          1           0       -5.349847   -0.525667   -0.870573
     21          1           0       -4.102799    1.785297   -0.000810
     22          1           0       -1.833984    2.789924   -0.000522
     23          1           0        3.083203    2.275381    0.000254
     24          1           0        5.105258    0.815247    0.000570
     25          1           0        4.842738   -1.652453    0.000534
     26          1           0        2.559032   -2.654296    0.000070
     27          1           0       -2.336868   -2.132950   -0.000527
 ---------------------------------------------------------------------

 SCF Done:  E(UB3LYP) =  -728.291911165     A.U. after   14 cycles

 The electronic state is 1-A.
 Alpha  occ. eigenvalues --  -19.13238 -19.13105 -10.28403 -10.28297 -10.20963
 Alpha  occ. eigenvalues --  -10.20913 -10.20866 -10.20837 -10.20606 -10.19968
 Alpha  occ. eigenvalues --  -10.19919 -10.19849 -10.19833 -10.19730 -10.19529
 Alpha  occ. eigenvalues --  -10.19429 -10.17465  -1.06739  -1.06520  -0.89539
 Alpha  occ. eigenvalues --   -0.88384  -0.81924  -0.78640  -0.77956  -0.77425
 Alpha  occ. eigenvalues --   -0.71767  -0.68530  -0.66047  -0.63330  -0.61603
 Alpha  occ. eigenvalues --   -0.58724  -0.56070  -0.54862  -0.50651  -0.49232
 Alpha  occ. eigenvalues --   -0.48705  -0.47371  -0.45931  -0.45684  -0.45359
 Alpha  occ. eigenvalues --   -0.45043  -0.44557  -0.43603  -0.43075  -0.42030
 Alpha  occ. eigenvalues --   -0.39812  -0.39114  -0.38808  -0.37353  -0.37272
 Alpha  occ. eigenvalues --   -0.36338  -0.36268  -0.28911  -0.28858  -0.28071
 Alpha  occ. eigenvalues --   -0.27743  -0.27604  -0.26911
 Alpha virt. eigenvalues --   -0.11886  -0.07372  -0.03732  -0.02656  -0.00752
 Alpha virt. eigenvalues --    0.00027   0.00956   0.01598   0.02026   0.02436
 Alpha virt. eigenvalues --    0.03275   0.03572   0.03761   0.04096   0.04463

  Beta  occ. eigenvalues --  -19.13238 -19.13105 -10.28403 -10.28297 -10.20963
  Beta  occ. eigenvalues --  -10.20913 -10.20866 -10.20837 -10.20606 -10.19968
  Beta  occ. eigenvalues --  -10.19919 -10.19849 -10.19833 -10.19730 -10.19529
  Beta  occ. eigenvalues --  -10.19429 -10.17465  -1.06739  -1.06520  -0.89539
  Beta  occ. eigenvalues --   -0.88384  -0.81924  -0.78640  -0.77956  -0.77425
  Beta  occ. eigenvalues --   -0.71767  -0.68530  -0.66047  -0.63330  -0.61603
  Beta  occ. eigenvalues --   -0.58724  -0.56070  -0.54862  -0.50651  -0.49232
  Beta  occ. eigenvalues --   -0.48705  -0.47371  -0.45931  -0.45684  -0.45359
  Beta  occ. eigenvalues --   -0.45043  -0.44557  -0.43603  -0.43075  -0.42030
  Beta  occ. eigenvalues --   -0.39812  -0.39114  -0.38808  -0.37353  -0.37272
  Beta  occ. eigenvalues --   -0.36338  -0.36268  -0.28911  -0.28858  -0.28071
  Beta  occ. eigenvalues --   -0.27743  -0.27604  -0.26911
  Beta virt. eigenvalues --   -0.11886  -0.07372  -0.03732  -0.02656  -0.00752
  Beta virt. eigenvalues --    0.00027   0.00956   0.01598   0.02026   0.02436
  Beta virt. eigenvalues --    0.03275   0.03572   0.03761   0.04096   0.04463

 Mulliken charges and spin densities:
               1          2
     1  C   -0.370055   0.000000
     2  C    0.417783  -0.000000
     3  C   -0.373792   0.000000
     4  C    0.195095   0.000000
     5  C    0.176957  -0.000000
     6  C   -0.719248   0.000000
     7  O   -0.277832  -0.000000
     8  C    0.080341  -0.000000
     9  C    0.202706  -0.000000
    10  C   -0.424361   0.000000
    11  C   -0.419138  -0.000000
    12  C    0.130350   0.000000
    13  C    0.355460   0.000000
    14  C   -0.606525   0.000000
    15  O   -0.271325   0.000000
    16  C    0.163616   0.000000
    17  C   -0.113335  -0.000000
    18  H    0.175281   0.000000
    19  H    0.179137  -0.000000
    20  H    0.173239   0.000000
    21  H    0.205659   0.000000
    22  H    0.185264  -0.000000
    23  H    0.186427   0.000000
    24  H    0.208014  -0.000000
    25  H    0.208936   0.000000
    26  H    0.184399  -0.000000
    27  H    0.146947  -0.000000
 Sum of Mulliken charges =  -0.00000  -0.00000

 Dipole moment (field-independent basis, Debye):
    X=             -0.9150    Y=             -0.2690    Z=              0.0043  Tot=              0.9537
 Quadrupole moment (field-independent basis, Debye-Ang):
   XX=            -62.6149   YY=           -111.5592   ZZ=           -100.7235
   XY=             -3.9284   XZ=             -0.0108   YZ=             -0.0071

 Normal termination of Gaussian 16 at Sun Jan 14 01:09:33 2024.
