 Q-Chem 5.4, Q-Chem, Inc., Pleasanton, CA (2021)
 Q-Chem 5.4.0 for Intel X86 EM64T Linux

User input:
--------------------------------------------------------------
$molecule
-2 1
C                  4.4054090000     -0.1064040000     -0.1277940000
C                  2.9382740000      0.2574820000     -0.1880200000
C                  2.6000450000      1.6047200000     -0.4802180000
C                  1.2837110000      2.0301740000     -0.4461990000
C                  0.2190450000      1.1578980000     -0.1854270000
C                 -1.1304490000      1.7018190000     -0.2164620000
O                 -1.3751000000      2.9418400000     -0.4010010000
C                 -2.1830460000      0.7144210000     -0.0623390000
C                 -3.5361690000      1.1309520000     -0.0767460000
C                 -4.5787820000      0.2340250000      0.0447060000
C                 -4.2938600000     -1.1503340000      0.1858150000
C                 -2.9836000000     -1.5840510000      0.1978230000
C                 -1.8911980000     -0.6887030000      0.0778400000
C                 -0.5364220000     -1.2374310000      0.1033570000
O                 -0.3304400000     -2.4945810000      0.1616370000
C                  0.5079040000     -0.2539920000      0.0426200000
C                  1.9005490000     -0.6175450000      0.1102780000
N                  2.3068550000     -1.9001770000      0.6711380000
O                  3.1320680000     -2.5929930000      0.0261410000
O                  1.9126710000     -2.2091320000      1.8024210000
H                  4.7289640000     -0.6137110000     -1.0427400000
H                  4.6370130000     -0.7869360000      0.6949590000
H                  5.0046850000      0.8044780000     -0.0090240000
H                  3.4013680000      2.3121690000     -0.6814790000
H                  1.0250930000      3.0687920000     -0.6281780000
H                 -3.7150720000      2.1956290000     -0.1911160000
H                 -5.6098680000      0.5824920000      0.0324750000
H                 -5.1081310000     -1.8662720000      0.2842910000
H                 -2.7315190000     -2.6346290000      0.3012430000
$end
$rem
MAX_SCF_CYCLES=200
BASIS  =  6-311++G(d,p)
GUI  =  2
JOB_TYPE  =  SP
METHOD  =  B3LYP
SOLVENT_METHOD = PCM
$end
$pcm
theory = CPCM
$end
$solvent
dielectric 37.219
opticaldielectric 1.43
$end

--------------------------------------------------------------

             Standard Nuclear Orientation (Angstroms)
    I     Atom           X                Y                Z
 ----------------------------------------------------------------
    1      C       4.4054090000    -0.1064040000    -0.1277940000
    2      C       2.9382740000     0.2574820000    -0.1880200000
    3      C       2.6000450000     1.6047200000    -0.4802180000
    4      C       1.2837110000     2.0301740000    -0.4461990000
    5      C       0.2190450000     1.1578980000    -0.1854270000
    6      C      -1.1304490000     1.7018190000    -0.2164620000
    7      O      -1.3751000000     2.9418400000    -0.4010010000
    8      C      -2.1830460000     0.7144210000    -0.0623390000
    9      C      -3.5361690000     1.1309520000    -0.0767460000
   10      C      -4.5787820000     0.2340250000     0.0447060000
   11      C      -4.2938600000    -1.1503340000     0.1858150000
   12      C      -2.9836000000    -1.5840510000     0.1978230000
   13      C      -1.8911980000    -0.6887030000     0.0778400000
   14      C      -0.5364220000    -1.2374310000     0.1033570000
   15      O      -0.3304400000    -2.4945810000     0.1616370000
   16      C       0.5079040000    -0.2539920000     0.0426200000
   17      C       1.9005490000    -0.6175450000     0.1102780000
   18      N       2.3068550000    -1.9001770000     0.6711380000
   19      O       3.1320680000    -2.5929930000     0.0261410000
   20      O       1.9126710000    -2.2091320000     1.8024210000
   21      H       4.7289640000    -0.6137110000    -1.0427400000
   22      H       4.6370130000    -0.7869360000     0.6949590000
   23      H       5.0046850000     0.8044780000    -0.0090240000
   24      H       3.4013680000     2.3121690000    -0.6814790000
   25      H       1.0250930000     3.0687920000    -0.6281780000
   26      H      -3.7150720000     2.1956290000    -0.1911160000
   27      H      -5.6098680000     0.5824920000     0.0324750000
   28      H      -5.1081310000    -1.8662720000     0.2842910000
   29      H      -2.7315190000    -2.6346290000     0.3012430000
 ----------------------------------------------------------------

   10    -933.0944000161      5.56e-06  Convergence criterion met
 Total energy in the final basis set =     -933.0944000161

                    Orbital Energies (a.u.)
 --------------------------------------------------------------

 Alpha MOs
 -- Occupied --
-19.1290 -19.1245 -19.0451 -19.0321 -14.5046 -10.2037 -10.1998 -10.1873
-10.1865 -10.1625 -10.1601 -10.1583 -10.1581 -10.1568 -10.1568 -10.1539
-10.1536 -10.1532 -10.1522 -10.1516  -1.1877  -1.0159  -0.9648  -0.9550
 -0.8563  -0.8362  -0.7837  -0.7690  -0.7382  -0.7335  -0.6931  -0.6707
 -0.6354  -0.6119  -0.5962  -0.5623  -0.5416  -0.5294  -0.5048  -0.4968
 -0.4908  -0.4813  -0.4495  -0.4467  -0.4327  -0.4269  -0.4125  -0.4078
 -0.4002  -0.3920  -0.3849  -0.3798  -0.3701  -0.3625  -0.3485  -0.3444
 -0.3428  -0.3297  -0.3175  -0.3126  -0.2914  -0.2899  -0.2825  -0.2423
 -0.2382  -0.2344  -0.2263  -0.2207  -0.2085  -0.1201

          Ground-State Mulliken Net Atomic Charges

     Atom                 Charge (a.u.)
  ----------------------------------------
      1 C                    -0.554163
      2 C                     0.447661
      3 C                    -0.782562
      4 C                    -0.257206
      5 C                     0.607989
      6 C                    -0.261405
      7 O                    -0.592818
      8 C                     0.366717
      9 C                     0.037665
     10 C                    -0.553289
     11 C                    -0.543055
     12 C                     0.044829
     13 C                     0.102504
     14 C                    -0.719858
     15 O                    -0.590437
     16 C                    -0.018381
     17 C                     0.180754
     18 N                    -0.201317
     19 O                    -0.145108
     20 O                    -0.131380
     21 H                     0.205360
     22 H                     0.180026
     23 H                     0.154733
     24 H                     0.182364
     25 H                     0.158343
     26 H                     0.156308
     27 H                     0.183034
     28 H                     0.185159
     29 H                     0.157536
  ----------------------------------------
  Sum of atomic charges =    -2.000000

                    Cartesian Multipole Moments
 -----------------------------------------------------------------
    Charge (ESU x 10^10)
                -9.6064
    Dipole Moment (Debye)
         X       1.2129      Y       6.3501      Z      -2.0611
       Tot       6.7856
    Quadrupole Moments (Debye-Ang)
        XX    -146.1496     XY      29.7759     YY    -186.8300
        XZ      -6.4251     YZ      10.6669     ZZ    -132.6172

 Total job time:  78.07s(wall), 475.82s(cpu)
        *  Thank you very much for using Q-Chem.  Have a nice day.  *
