 Gaussian 16, Revision A.03,
 Gaussian 16:  ES64L-G16RevA.03 25-Dec-2016

 ----------------------------------------------------------------
 #P UB3LYP/6-311++G(d,p) SCRF=(PCM,Solvent=n,n-DiMethylFormamide)
 ----------------------------------------------------------------

 -------
 Reduced
 -------
 Symbolic Z-matrix:
 Charge = -2 Multiplicity = 1

                         Standard orientation:
 ---------------------------------------------------------------------
 Center     Atomic      Atomic             Coordinates (Angstroms)
 Number     Number       Type             X           Y           Z
 ---------------------------------------------------------------------
      1          6           0        3.649296   -2.393904   -0.781743
      2          6           0        2.890909   -1.158165   -0.370315
      3          6           0        1.497230   -1.132523   -0.367075
      4          6           0        0.743939   -0.000093   -0.000270
      5          6           0        1.497024    1.132410    0.366743
      6          6           0        2.890669    1.158260    0.370415
      7          6           0        3.648791    2.394120    0.781966
      8          6           0        3.664199    0.000071    0.000186
      9          8           0        4.950472    0.000150    0.000343
     10          6           0       -0.743937   -0.000143   -0.000470
     11          6           0       -1.497147    1.132323   -0.367261
     12          6           0       -2.890814    1.158176   -0.370394
     13          6           0       -3.649061    2.394005   -0.781833
     14          6           0       -3.664197    0.000027    0.000187
     15          8           0       -4.950471    0.000072    0.000569
     16          6           0       -2.890745   -1.158271    0.370264
     17          6           0       -1.497108   -1.132609    0.366553
     18          6           0       -3.649043   -2.394024    0.781890
     19          1           0        4.311041   -2.191434   -1.634907
     20          1           0        2.965199   -3.207370   -1.051896
     21          1           0        4.310686   -2.743137    0.023019
     22          1           0        0.964373   -2.027605   -0.685935
     23          1           0        0.963958    2.027406    0.685489
     24          1           0        2.964517    3.207407    1.052210
     25          1           0        4.310593    2.191688    1.635089
     26          1           0        4.310066    2.743582   -0.022791
     27          1           0       -0.964217    2.027314   -0.686253
     28          1           0       -4.311551    2.191256   -1.634338
     29          1           0       -4.309636    2.743949    0.023295
     30          1           0       -2.964877    3.207065   -1.052978
     31          1           0       -0.964082   -2.027648    0.685255
     32          1           0       -2.964897   -3.207618    1.051520
     33          1           0       -4.310283   -2.191625    1.635461
     34          1           0       -4.310929   -2.742966   -0.022586
 ---------------------------------------------------------------------

 SCF Done:  E(UB3LYP) =  -770.266436670     A.U. after   15 cycles

 The electronic state is 1-A.
 Alpha  occ. eigenvalues --  -19.02530 -19.02530 -10.17738 -10.17738 -10.14320
 Alpha  occ. eigenvalues --  -10.14320 -10.14320 -10.14320 -10.13885 -10.13857
 Alpha  occ. eigenvalues --  -10.13708 -10.13708 -10.13700 -10.13699 -10.13518
 Alpha  occ. eigenvalues --  -10.13518 -10.13518 -10.13517  -0.94164  -0.94160
 Alpha  occ. eigenvalues --   -0.82345  -0.79979  -0.75085  -0.74888  -0.73485
 Alpha  occ. eigenvalues --   -0.69656  -0.65700  -0.65369  -0.64418  -0.62927
 Alpha  occ. eigenvalues --   -0.56072  -0.54788  -0.53171  -0.51931  -0.46447
 Alpha  occ. eigenvalues --   -0.45934  -0.43599  -0.42018  -0.40932  -0.40333
 Alpha  occ. eigenvalues --   -0.40212  -0.38836  -0.38759  -0.38748  -0.38172
 Alpha  occ. eigenvalues --   -0.37583  -0.37570  -0.36831  -0.36505  -0.35366
 Alpha  occ. eigenvalues --   -0.34478  -0.33415  -0.33286  -0.32484  -0.31811
 Alpha  occ. eigenvalues --   -0.30715  -0.30693  -0.29690  -0.27007  -0.21384
 Alpha  occ. eigenvalues --   -0.21247  -0.20023  -0.19877  -0.17511  -0.13525
 Alpha virt. eigenvalues --   -0.00332   0.00403   0.00901   0.01536   0.01550
 Alpha virt. eigenvalues --    0.01768   0.02136   0.02351   0.03269   0.03390
 Alpha virt. eigenvalues --    0.04047   0.04119   0.04318   0.05416   0.05683

  Beta  occ. eigenvalues --  -19.02530 -19.02530 -10.17738 -10.17738 -10.14320
  Beta  occ. eigenvalues --  -10.14320 -10.14320 -10.14320 -10.13885 -10.13857
  Beta  occ. eigenvalues --  -10.13708 -10.13708 -10.13700 -10.13699 -10.13518
  Beta  occ. eigenvalues --  -10.13518 -10.13518 -10.13517  -0.94164  -0.94160
  Beta  occ. eigenvalues --   -0.82345  -0.79979  -0.75085  -0.74888  -0.73485
  Beta  occ. eigenvalues --   -0.69656  -0.65700  -0.65369  -0.64418  -0.62927
  Beta  occ. eigenvalues --   -0.56072  -0.54788  -0.53171  -0.51931  -0.46447
  Beta  occ. eigenvalues --   -0.45934  -0.43599  -0.42018  -0.40932  -0.40333
  Beta  occ. eigenvalues --   -0.40212  -0.38836  -0.38759  -0.38748  -0.38172
  Beta  occ. eigenvalues --   -0.37583  -0.37570  -0.36831  -0.36505  -0.35366
  Beta  occ. eigenvalues --   -0.34478  -0.33415  -0.33286  -0.32484  -0.31811
  Beta  occ. eigenvalues --   -0.30715  -0.30693  -0.29690  -0.27007  -0.21384
  Beta  occ. eigenvalues --   -0.21247  -0.20023  -0.19877  -0.17511  -0.13525
  Beta virt. eigenvalues --   -0.00332   0.00403   0.00901   0.01536   0.01550
  Beta virt. eigenvalues --    0.01768   0.02136   0.02351   0.03269   0.03390
  Beta virt. eigenvalues --    0.04047   0.04119   0.04318   0.05416   0.05683

 Mulliken charges and spin densities:
               1          2
     1  C   -0.374458  -0.000000
     2  C    1.026390   0.000000
     3  C   -0.824295  -0.000000
     4  C    0.762414   0.000000
     5  C   -0.823519  -0.000000
     6  C    1.026377   0.000000
     7  C   -0.374565  -0.000000
     8  C   -1.871009  -0.000000
     9  O   -0.634685   0.000000
    10  C    0.762347   0.000000
    11  C   -0.823817   0.000000
    12  C    1.026871  -0.000000
    13  C   -0.374413  -0.000000
    14  C   -1.870995   0.000000
    15  O   -0.634681  -0.000000
    16  C    1.025904  -0.000000
    17  C   -0.823824   0.000000
    18  C   -0.374652  -0.000000
    19  H    0.144389  -0.000000
    20  H    0.124626  -0.000000
    21  H    0.151591   0.000000
    22  H    0.123060   0.000000
    23  H    0.123008  -0.000000
    24  H    0.124650  -0.000000
    25  H    0.144380  -0.000000
    26  H    0.151595  -0.000000
    27  H    0.123043   0.000000
    28  H    0.144379   0.000000
    29  H    0.151601  -0.000000
    30  H    0.124651  -0.000000
    31  H    0.123034   0.000000
    32  H    0.124628  -0.000000
    33  H    0.144390   0.000000
    34  H    0.151585   0.000000
 Sum of Mulliken charges =  -2.00000  -0.00000

 Dipole moment (field-independent basis, Debye):
    X=             -0.0000    Y=             -0.0004    Z=             -0.0021  Tot=              0.0021
 Quadrupole moment (field-independent basis, Debye-Ang):
   XX=           -296.6966   YY=           -118.3257   ZZ=           -120.0596
   XY=             -0.0009   XZ=              0.0033   YZ=             -0.0002

 Normal termination of Gaussian 16 at Sat Jan 13 19:23:45 2024.
