 Gaussian 16, Revision A.03,
 Gaussian 16:  ES64L-G16RevA.03 25-Dec-2016

 ----------------------------------------------------------------------
 #P UB3LYP/6-311++G(d,p) nosym opt freq SCRF=(PCM,Solvent=n,n-DiMethylF
 ormamide)
 ----------------------------------------------------------------------

 --------
 Oxidized
 --------
 Symbolic Z-matrix:
 Charge =  0 Multiplicity = 1

 SCF Done:  E(UB3LYP) =  -939.721644183     A.U. after   15 cycles
 SCF Done:  E(UB3LYP) =  -939.721251310     A.U. after   14 cycles
 SCF Done:  E(UB3LYP) =  -939.721909966     A.U. after   13 cycles
 SCF Done:  E(UB3LYP) =  -939.721860066     A.U. after   12 cycles
 SCF Done:  E(UB3LYP) =  -939.721974029     A.U. after   11 cycles
 SCF Done:  E(UB3LYP) =  -939.721975811     A.U. after   10 cycles
 SCF Done:  E(UB3LYP) =  -939.721979665     A.U. after   11 cycles
 SCF Done:  E(UB3LYP) =  -939.721980354     A.U. after    9 cycles
 SCF Done:  E(UB3LYP) =  -939.721980573     A.U. after    9 cycles
 SCF Done:  E(UB3LYP) =  -939.721980600     A.U. after    8 cycles
 SCF Done:  E(UB3LYP) =  -939.721980604     A.U. after    8 cycles
 Optimization completed.
    -- Stationary point found.
 Normal termination of Gaussian 16 at Sat Feb 10 23:22:19 2024.

 ----------------------------------------------------------------------
 #P Geom=AllCheck Guess=TCheck SCRF=Check GenChk UB3LYP/6-311++G(d,p) F
 req
 ----------------------------------------------------------------------

 Structure from the checkpoint file:  "212.chk"
 --------
 Oxidized
 --------
 Charge =  0 Multiplicity = 1

                          Input orientation:
 ---------------------------------------------------------------------
 Center     Atomic      Atomic             Coordinates (Angstroms)
 Number     Number       Type             X           Y           Z
 ---------------------------------------------------------------------
      1          8           0        3.782091   -2.480873    0.367539
      2          6           0        2.994940   -1.549045    0.234772
      3          6           0        3.388160   -0.160945    0.577446
      4          6           0        4.648632    0.094553    1.129353
      5          6           0        5.027926    1.397181    1.430597
      6          6           0        4.152121    2.455495    1.170461
      7          6           0        2.902838    2.208952    0.610212
      8          6           0        2.506994    0.899927    0.317519
      9          6           0        1.151201    0.663498   -0.271126
     10          8           0        0.533996    1.616308   -0.749558
     11          6           0        0.649229   -0.721142   -0.313467
     12          6           0       -0.713667   -1.037716   -0.641106
     13          6           0       -0.973553   -2.335515   -1.161759
     14          6           0        0.001679   -3.312584   -1.185196
     15          6           0        1.282249   -3.057791   -0.687828
     16          6           0        1.604547   -1.776799   -0.261739
     17          7           0       -1.751920   -0.171520   -0.439663
     18          6           0       -1.735104    0.824053    0.644152
     19          6           0       -3.083274    0.853388    1.367460
     20          6           0       -4.227854    1.271527    0.421667
     21          6           0       -3.922045    0.841521   -1.027479
     22          6           0       -3.060708   -0.420257   -1.073532
     23          1           0        5.317923   -0.736629    1.312393
     24          1           0        6.002323    1.592378    1.862845
     25          1           0        4.446777    3.471966    1.404673
     26          1           0        2.219454    3.021634    0.399916
     27          1           0       -1.969886   -2.589588   -1.493101
     28          1           0       -0.247356   -4.299295   -1.559063
     29          1           0        2.034081   -3.834161   -0.648364
     30          1           0       -1.480341    1.813920    0.253047
     31          1           0       -0.941176    0.548746    1.341653
     32          1           0       -3.007512    1.540740    2.214016
     33          1           0       -3.280646   -0.138835    1.785537
     34          1           0       -4.371451    2.355040    0.456169
     35          1           0       -5.164315    0.819725    0.760749
     36          1           0       -4.844648    0.654284   -1.582165
     37          1           0       -3.393685    1.640166   -1.556960
     38          1           0       -2.892886   -0.713295   -2.111526
     39          1           0       -3.585136   -1.249013   -0.577346
 ---------------------------------------------------------------------

 SCF Done:  E(UB3LYP) =  -939.721980604     A.U. after    1 cycles

 Alpha  occ. eigenvalues --  -19.12512 -19.11633 -14.34939 -10.27795 -10.27229
 Alpha  occ. eigenvalues --  -10.24199 -10.20925 -10.20466 -10.20369 -10.20366
 Alpha  occ. eigenvalues --  -10.20288 -10.20011 -10.19631 -10.19547 -10.19464
 Alpha  occ. eigenvalues --  -10.19363 -10.19331 -10.18939 -10.18407 -10.17264
 Alpha  occ. eigenvalues --  -10.17086 -10.16849  -1.05774  -1.04953  -0.96763
 Alpha  occ. eigenvalues --   -0.88765  -0.87183  -0.81446  -0.80582  -0.77472
 Alpha  occ. eigenvalues --   -0.77205  -0.76131  -0.75546  -0.68893  -0.67650
 Alpha  occ. eigenvalues --   -0.65622  -0.65030  -0.62920  -0.60551  -0.58120
 Alpha  occ. eigenvalues --   -0.55871  -0.55594  -0.54211  -0.51608  -0.51187
 Alpha  occ. eigenvalues --   -0.49590  -0.48828  -0.48284  -0.47699  -0.45193
 Alpha  occ. eigenvalues --   -0.45029  -0.44982  -0.44702  -0.44335  -0.44177
 Alpha  occ. eigenvalues --   -0.42938  -0.42163  -0.41428  -0.41039  -0.39545
 Alpha  occ. eigenvalues --   -0.39056  -0.38490  -0.38311  -0.37358  -0.37107
 Alpha  occ. eigenvalues --   -0.36523  -0.36228  -0.34099  -0.33066  -0.32373
 Alpha  occ. eigenvalues --   -0.29775  -0.28369  -0.28106  -0.27610  -0.26997
 Alpha  occ. eigenvalues --   -0.26633  -0.21460
 Alpha virt. eigenvalues --   -0.11069  -0.06501  -0.03425  -0.01840  -0.01112
 Alpha virt. eigenvalues --   -0.00119   0.00317   0.01076   0.01334   0.01595
 Alpha virt. eigenvalues --    0.02074   0.02820   0.03134   0.03412   0.03631

  Beta  occ. eigenvalues --  -19.12512 -19.11633 -14.34939 -10.27795 -10.27229
  Beta  occ. eigenvalues --  -10.24199 -10.20925 -10.20466 -10.20369 -10.20366
  Beta  occ. eigenvalues --  -10.20288 -10.20011 -10.19631 -10.19547 -10.19464
  Beta  occ. eigenvalues --  -10.19363 -10.19331 -10.18939 -10.18407 -10.17264
  Beta  occ. eigenvalues --  -10.17086 -10.16849  -1.05774  -1.04953  -0.96763
  Beta  occ. eigenvalues --   -0.88765  -0.87183  -0.81446  -0.80582  -0.77472
  Beta  occ. eigenvalues --   -0.77205  -0.76131  -0.75546  -0.68893  -0.67650
  Beta  occ. eigenvalues --   -0.65622  -0.65030  -0.62920  -0.60551  -0.58120
  Beta  occ. eigenvalues --   -0.55871  -0.55594  -0.54211  -0.51608  -0.51187
  Beta  occ. eigenvalues --   -0.49590  -0.48828  -0.48284  -0.47699  -0.45193
  Beta  occ. eigenvalues --   -0.45029  -0.44982  -0.44702  -0.44335  -0.44177
  Beta  occ. eigenvalues --   -0.42938  -0.42163  -0.41428  -0.41039  -0.39545
  Beta  occ. eigenvalues --   -0.39056  -0.38490  -0.38311  -0.37358  -0.37107
  Beta  occ. eigenvalues --   -0.36523  -0.36228  -0.34099  -0.33066  -0.32373
  Beta  occ. eigenvalues --   -0.29775  -0.28369  -0.28106  -0.27610  -0.26997
  Beta  occ. eigenvalues --   -0.26633  -0.21460
  Beta virt. eigenvalues --   -0.11069  -0.06501  -0.03425  -0.01840  -0.01112
  Beta virt. eigenvalues --   -0.00119   0.00317   0.01076   0.01334   0.01595
  Beta virt. eigenvalues --    0.02074   0.02820   0.03134   0.03412   0.03631

 Mulliken charges and spin densities:
               1          2
     1  O   -0.295038  -0.000000
     2  C   -0.553301   0.000000
     3  C    0.387558  -0.000000
     4  C    0.118163  -0.000000
     5  C   -0.591113   0.000000
     6  C   -0.440373   0.000000
     7  C   -0.022056  -0.000000
     8  C    0.391929   0.000000
     9  C   -0.492679   0.000000
    10  O   -0.302679  -0.000000
    11  C    0.114167  -0.000000
    12  C   -0.004012  -0.000000
    13  C   -0.113633   0.000000
    14  C   -0.437232   0.000000
    15  C    0.000240  -0.000000
    16  C    0.400134  -0.000000
    17  N    0.456020   0.000000
    18  C   -0.229441   0.000000
    19  C   -0.544012  -0.000000
    20  C   -0.509218   0.000000
    21  C   -0.438145  -0.000000
    22  C   -0.094296   0.000000
    23  H    0.200511  -0.000000
    24  H    0.201803  -0.000000
    25  H    0.206351   0.000000
    26  H    0.193760  -0.000000
    27  H    0.182930  -0.000000
    28  H    0.222140   0.000000
    29  H    0.183333  -0.000000
    30  H    0.208126   0.000000
    31  H    0.180587  -0.000000
    32  H    0.182758   0.000000
    33  H    0.179194  -0.000000
    34  H    0.158837   0.000000
    35  H    0.157200   0.000000
    36  H    0.186072  -0.000000
    37  H    0.182352  -0.000000
    38  H    0.190977  -0.000000
    39  H    0.182083   0.000000
 Sum of Mulliken charges =  -0.00000  -0.00000

 Dipole moment (field-independent basis, Debye):
    X=             -5.1621    Y=              1.3148    Z=              1.2861  Tot=              5.4800
 Quadrupole moment (field-independent basis, Debye-Ang):
   XX=           -115.5562   YY=           -128.0195   ZZ=           -128.7931
   XY=             18.6720   XZ=              7.3967   YZ=             10.7668

  Exact polarizability: 446.743  10.610 394.847  64.699  42.778 221.063
 Approx polarizability: 478.511  -6.348 468.445  73.009  36.368 252.275

                      1                      2                      3
                      A                      A                      A
 Frequencies --     31.3807                44.0278                68.9705
 Red. masses --      5.5865                 4.8344                 3.6550
 Frc consts  --      0.0032                 0.0055                 0.0102
 IR Inten    --      7.8032                 0.2301                 0.6186

                      4                      5                      6
                      A                      A                      A
 Frequencies --     86.9084               108.6220               131.0968
 Red. masses --      3.1722                 4.3021                 2.4354
 Frc consts  --      0.0141                 0.0299                 0.0247
 IR Inten    --      1.0026                 0.8711                 4.5587

                      7                      8                      9
                      A                      A                      A
 Frequencies --    152.6878               186.4626               198.3709
 Red. masses --      5.4211                 6.1883                 4.1297
 Frc consts  --      0.0745                 0.1268                 0.0957
 IR Inten    --      4.0782                 5.8341                 9.2653

                     10                     11                     12
                      A                      A                      A
 Frequencies --    213.8697               256.6190               268.5206
 Red. masses --      3.8872                 4.1229                 4.7696
 Frc consts  --      0.1048                 0.1600                 0.2026
 IR Inten    --      1.2734                 1.4898                 1.0962

                     13                     14                     15
                      A                      A                      A
 Frequencies --    289.5004               311.4469               332.6803
 Red. masses --      1.9970                 5.8412                 2.7903
 Frc consts  --      0.0986                 0.3338                 0.1820
 IR Inten    --      0.5776                 0.4529                11.9557

                     16                     17                     18
                      A                      A                      A
 Frequencies --    347.4038               391.9682               411.0930
 Red. masses --      5.2239                 9.6154                 5.6585
 Frc consts  --      0.3715                 0.8704                 0.5634
 IR Inten    --      5.3874                63.2042                 3.9464

                     19                     20                     21
                      A                      A                      A
 Frequencies --    431.8440               434.3338               468.1387
 Red. masses --      3.8659                 5.5652                 4.1241
 Frc consts  --      0.4248                 0.6185                 0.5325
 IR Inten    --      1.3161                 3.1352                 0.7780

                     22                     23                     24
                      A                      A                      A
 Frequencies --    479.9401               492.3446               512.6940
 Red. masses --      4.2306                 4.9303                 4.7351
 Frc consts  --      0.5742                 0.7041                 0.7333
 IR Inten    --     11.1025                 4.6260                10.0876

                     25                     26                     27
                      A                      A                      A
 Frequencies --    540.9407               568.9488               611.5197
 Red. masses --      3.8212                 3.9537                 2.2077
 Frc consts  --      0.6588                 0.7541                 0.4864
 IR Inten    --      0.2140                14.2970                 2.1999

                     28                     29                     30
                      A                      A                      A
 Frequencies --    626.7639               664.1488               676.1532
 Red. masses --      5.7228                 5.5849                 4.8214
 Frc consts  --      1.3245                 1.4514                 1.2987
 IR Inten    --      9.0795                18.7933                 8.7121

                     31                     32                     33
                      A                      A                      A
 Frequencies --    693.8956               724.6634               744.2915
 Red. masses --      6.0450                 2.3052                 2.4221
 Frc consts  --      1.7149                 0.7132                 0.7905
 IR Inten    --      0.9956               114.1964                18.2777

                     34                     35                     36
                      A                      A                      A
 Frequencies --    761.1042               777.9326               788.5557
 Red. masses --      4.5718                 1.3210                 1.9499
 Frc consts  --      1.5604                 0.4710                 0.7144
 IR Inten    --      4.3049                 2.7929                25.4236

                     37                     38                     39
                      A                      A                      A
 Frequencies --    809.3673               818.9773               838.9093
 Red. masses --      2.6538                 3.7588                 3.5531
 Frc consts  --      1.0243                 1.4854                 1.4733
 IR Inten    --     24.0834                12.5630                22.2854

                     40                     41                     42
                      A                      A                      A
 Frequencies --    852.0567               891.0129               909.4951
 Red. masses --      3.4011                 1.4488                 1.4208
 Frc consts  --      1.4548                 0.6777                 0.6925
 IR Inten    --      7.7428                 2.8581                 1.6625

                     43                     44                     45
                      A                      A                      A
 Frequencies --    916.1103               920.9675               922.2911
 Red. masses --      3.1183                 2.0385                 2.3813
 Frc consts  --      1.5419                 1.0187                 1.1934
 IR Inten    --     61.6824                30.3378                15.2686

                     46                     47                     48
                      A                      A                      A
 Frequencies --    931.0340               994.5689               997.5050
 Red. masses --      4.9009                 1.5214                 1.3901
 Frc consts  --      2.5030                 0.8867                 0.8149
 IR Inten    --     78.5511                 7.2901                 1.4218

                     49                     50                     51
                      A                      A                      A
 Frequencies --   1001.8168              1013.1486              1020.3257
 Red. masses --      1.3864                 2.4158                 1.3290
 Frc consts  --      0.8198                 1.4610                 0.8152
 IR Inten    --      9.1562                69.1990                 0.3620

                     52                     53                     54
                      A                      A                      A
 Frequencies --   1035.3168              1052.7148              1083.2311
 Red. masses --      2.1118                 2.1023                 2.3100
 Frc consts  --      1.3337                 1.3727                 1.5970
 IR Inten    --     28.8333                12.4573                58.0593

                     55                     56                     57
                      A                      A                      A
 Frequencies --   1089.3027              1100.2267              1111.7590
 Red. masses --      2.1887                 2.1751                 2.3218
 Frc consts  --      1.5302                 1.5513                 1.6908
 IR Inten    --     41.5916                28.6696                 1.2562

                     58                     59                     60
                      A                      A                      A
 Frequencies --   1133.9623              1143.3868              1169.6297
 Red. masses --      2.2485                 2.3727                 1.8669
 Frc consts  --      1.7035                 1.8276                 1.5048
 IR Inten    --      2.9352                20.3516                21.0064

                     61                     62                     63
                      A                      A                      A
 Frequencies --   1179.2615              1197.6087              1200.5391
 Red. masses --      1.2939                 1.4124                 1.2567
 Frc consts  --      1.0602                 1.1936                 1.0672
 IR Inten    --     42.2816               102.0255                11.9890

                     64                     65                     66
                      A                      A                      A
 Frequencies --   1208.9508              1238.2137              1264.5185
 Red. masses --      1.6016                 2.0111                 1.2285
 Frc consts  --      1.3791                 1.8166                 1.1574
 IR Inten    --      4.0987               323.7189                15.7135

                     67                     68                     69
                      A                      A                      A
 Frequencies --   1271.1148              1273.9880              1283.5020
 Red. masses --      2.0205                 2.1751                 1.5641
 Frc consts  --      1.9234                 2.0800                 1.5181
 IR Inten    --    480.8929               213.8926               302.3943

                     70                     71                     72
                      A                      A                      A
 Frequencies --   1297.1091              1320.9612              1354.2884
 Red. masses --      1.2298                 2.6035                 3.6786
 Frc consts  --      1.2191                 2.6766                 3.9751
 IR Inten    --     69.1697               157.2912                33.3649

                     73                     74                     75
                      A                      A                      A
 Frequencies --   1355.6157              1362.4596              1366.3256
 Red. masses --      1.7900                 3.4504                 1.3650
 Frc consts  --      1.9381                 3.7737                 1.5014
 IR Inten    --      0.0270                28.3173                14.9896

                     76                     77                     78
                      A                      A                      A
 Frequencies --   1383.2290              1388.8349              1403.2010
 Red. masses --      1.4474                 1.4189                 1.4863
 Frc consts  --      1.6316                 1.6125                 1.7242
 IR Inten    --      7.9826                 1.0632                 1.9961

                     79                     80                     81
                      A                      A                      A
 Frequencies --   1418.5709              1442.9483              1477.3585
 Red. masses --      2.9606                 3.5867                 1.7429
 Frc consts  --      3.5102                 4.4000                 2.2412
 IR Inten    --    306.5303               116.1258                97.4479

                     82                     83                     84
                      A                      A                      A
 Frequencies --   1479.9329              1484.8270              1487.2787
 Red. masses --      1.4899                 1.6720                 1.0910
 Frc consts  --      1.9226                 2.1719                 1.4218
 IR Inten    --     12.1586               187.9662                15.0700

                     85                     86                     87
                      A                      A                      A
 Frequencies --   1498.1697              1504.3656              1505.5480
 Red. masses --      1.1841                 2.5376                 1.1305
 Frc consts  --      1.5660                 3.3837                 1.5098
 IR Inten    --      3.8977                 1.1231                 4.6653

                     88                     89                     90
                      A                      A                      A
 Frequencies --   1516.2601              1569.7755              1609.6589
 Red. masses --      1.1936                 5.2357                 6.9367
 Frc consts  --      1.6168                 7.6016                10.5894
 IR Inten    --      7.4700               152.2873                89.1918

                     91                     92                     93
                      A                      A                      A
 Frequencies --   1612.9728              1621.9825              1659.5547
 Red. masses --      5.8378                 6.0155                10.2387
 Frc consts  --      8.9486                 9.3243                16.6142
 IR Inten    --    363.3020               173.2240               260.4008

                     94                     95                     96
                      A                      A                      A
 Frequencies --   1686.7089              2976.6434              3024.5189
 Red. masses --     11.4394                 1.0711                 1.0675
 Frc consts  --     19.1749                 5.5918                 5.7536
 IR Inten    --    498.1603               120.9236                36.2380

                     97                     98                     99
                      A                      A                      A
 Frequencies --   3028.9584              3033.8691              3039.5767
 Red. masses --      1.0600                 1.0615                 1.0657
 Frc consts  --      5.7300                 5.7568                 5.8010
 IR Inten    --     31.3208                62.9039                49.6966

                    100                    101                    102
                      A                      A                      A
 Frequencies --   3059.6309              3073.6685              3075.1263
 Red. masses --      1.0989                 1.0964                 1.1001
 Frc consts  --      6.0608                 6.1027                 6.1291
 IR Inten    --     30.7945                63.3968                15.7091

                    103                    104                    105
                      A                      A                      A
 Frequencies --   3076.5321              3084.7645              3175.6946
 Red. masses --      1.0956                 1.1050                 1.0873
 Frc consts  --      6.1098                 6.1954                 6.4607
 IR Inten    --     46.1146               122.1141                 3.5082

                    106                    107                    108
                      A                      A                      A
 Frequencies --   3177.4248              3188.3332              3201.2066
 Red. masses --      1.0894                 1.0914                 1.0932
 Frc consts  --      6.4799                 6.5365                 6.6004
 IR Inten    --     18.8216                13.6543                 9.0102

                    109                    110                    111
                      A                      A                      A
 Frequencies --   3205.2044              3210.7433              3221.6219
 Red. masses --      1.0945                 1.0919                 1.0917
 Frc consts  --      6.6248                 6.6319                 6.6758
 IR Inten    --     19.3450                 3.1639                10.2634

 - Thermochemistry -
 -------------------
 Temperature   298.150 Kelvin.  Pressure   1.00000 Atm.
 Atom     1 has atomic number  8 and mass  15.99491

 Molecular mass:   291.12593 amu.
 Principal axes and moments of inertia in atomic units:
                           1         2         3
     Eigenvalues --  3554.606078875.06234**********
           X            0.98906  -0.04421  -0.14075
           Y            0.00301   0.95991  -0.28030
           Z            0.14750   0.27681   0.94954
 This molecule is an asymmetric top.
 Rotational symmetry number  1.
 Warning -- assumption of classical behavior for rotation
           may cause significant error
 Rotational temperatures (Kelvin)      0.02437     0.00976     0.00742
 Rotational constants (GHZ):           0.50772     0.20335     0.15469
 Zero-point vibrational energy     833594.5 (Joules/Mol)
                                  199.23386 (Kcal/Mol)
 Warning -- explicit consideration of  27 degrees of freedom as
           vibrations may cause significant error
 Vibrational temperatures:     45.15    63.35    99.23   125.04   156.28
          (Kelvin)            188.62   219.68   268.28   285.41   307.71
                              369.22   386.34   416.53   448.10   478.65
                              499.84   563.95   591.47   621.33   624.91
                              673.55   690.53   708.37   737.65   778.29
                              818.59   879.84   901.77   955.56   972.83
                              998.36  1042.63  1070.87  1095.06  1119.27
                             1134.56  1164.50  1178.33  1207.00  1225.92
                             1281.97  1308.56  1318.08  1325.07  1326.97
                             1339.55  1430.96  1435.19  1441.39  1457.69
                             1468.02  1489.59  1514.62  1558.53  1567.26
                             1582.98  1599.57  1631.52  1645.08  1682.84
                             1696.69  1723.09  1727.31  1739.41  1781.51
                             1819.36  1828.85  1832.98  1846.67  1866.25
                             1900.57  1948.52  1950.43  1960.28  1965.84
                             1990.16  1998.22  2018.89  2041.01  2076.08
                             2125.59  2129.29  2136.33  2139.86  2155.53
                             2164.45  2166.15  2181.56  2258.56  2315.94
                             2320.71  2333.67  2387.73  2426.80  4282.73
                             4351.61  4358.00  4365.06  4373.27  4402.13
                             4422.32  4424.42  4426.44  4438.29  4569.12
                             4571.61  4587.30  4605.82  4611.57  4619.54
                             4635.20

 Zero-point correction=                           0.317499 (Hartree/Particle)
 Thermal correction to Energy=                    0.334728
 Thermal correction to Enthalpy=                  0.335673
 Thermal correction to Gibbs Free Energy=         0.272265
 Sum of electronic and zero-point Energies=           -939.404481
 Sum of electronic and thermal Energies=              -939.387252
 Sum of electronic and thermal Enthalpies=            -939.386308
 Sum of electronic and thermal Free Energies=         -939.449716

                     E (Thermal)             CV                S
                      KCal/Mol        Cal/Mol-Kelvin    Cal/Mol-Kelvin
 Total                  210.045             69.969            133.453
 Electronic               0.000              0.000              0.000
 Translational            0.889              2.981             42.903
 Rotational               0.889              2.981             34.264
 Vibrational            208.268             64.008             56.286
 Vibration     1          0.594              1.983              5.740
 Vibration     2          0.595              1.980              5.069
 Vibration     3          0.598              1.969              4.183
 Vibration     4          0.601              1.958              3.728
 Vibration     5          0.606              1.942              3.293
 Vibration     6          0.612              1.922              2.930
 Vibration     7          0.619              1.900              2.638
 Vibration     8          0.632              1.858              2.263
 Vibration     9          0.637              1.842              2.148
 Vibration    10          0.644              1.820              2.010
 Vibration    11          0.666              1.752              1.685
 Vibration    12          0.673              1.731              1.606
 Vibration    13          0.686              1.693              1.477
 Vibration    14          0.700              1.652              1.355
 Vibration    15          0.715              1.610              1.247
 Vibration    16          0.725              1.581              1.178
 Vibration    17          0.759              1.487              0.993
 Vibration    18          0.775              1.446              0.923
 Vibration    19          0.793              1.401              0.853
 Vibration    20          0.795              1.395              0.845
 Vibration    21          0.825              1.321              0.743
 Vibration    22          0.836              1.295              0.710
 Vibration    23          0.848              1.267              0.678
 Vibration    24          0.868              1.222              0.627
 Vibration    25          0.896              1.160              0.563
 Vibration    26          0.925              1.098              0.506
 Vibration    27          0.971              1.007              0.430

 Optimization completed.
    -- Stationary point found.
 Normal termination of Gaussian 16 at Sun Feb 11 01:08:36 2024.
