 Q-Chem 5.4, Q-Chem, Inc., Pleasanton, CA (2021)
 Q-Chem 5.4.0 for Intel X86 EM64T Linux

User input:
--------------------------------------------------------------
$molecule
-1 2
I                 -3.3508280000     -1.0693510000     -0.1519300000
C                 -1.3618270000     -0.3581560000     -0.0606390000
C                 -1.0236760000      0.9685410000     -0.0262680000
I                 -2.4289350000      2.5480060000     -0.0582190000
C                  0.3646690000      1.4305000000      0.0369600000
O                  0.6717460000      2.6358440000      0.0683420000
C                  1.3618170000      0.3582610000      0.0605700000
C                  1.0236130000     -0.9686210000      0.0261960000
I                  2.4288820000     -2.5480160000      0.0583800000
C                 -0.3645280000     -1.4304970000     -0.0371770000
O                 -0.6718180000     -2.6358110000     -0.0682960000
I                  3.3508840000      1.0693000000      0.1520800000
$end

$rem
BASIS  =  6-311++G(d,p)
GUI  =  2
JOB_TYPE  =  SP
METHOD  =  B3LYP
SCF_CONVERGENCE  = 8
SOLVENT_METHOD = sm12
$end

$smx
solvent dimethylformamide
charges CM5
$end

--------------------------------------------------------------

             Standard Nuclear Orientation (Angstroms)
    I     Atom           X                Y                Z
 ----------------------------------------------------------------
    1      I      -3.3508280000    -1.0693510000    -0.1519300000
    2      C      -1.3618270000    -0.3581560000    -0.0606390000
    3      C      -1.0236760000     0.9685410000    -0.0262680000
    4      I      -2.4289350000     2.5480060000    -0.0582190000
    5      C       0.3646690000     1.4305000000     0.0369600000
    6      O       0.6717460000     2.6358440000     0.0683420000
    7      C       1.3618170000     0.3582610000     0.0605700000
    8      C       1.0236130000    -0.9686210000     0.0261960000
    9      I       2.4288820000    -2.5480160000     0.0583800000
   10      C      -0.3645280000    -1.4304970000    -0.0371770000
   11      O      -0.6718180000    -2.6358110000    -0.0682960000
   12      I       3.3508840000     1.0693000000     0.1520800000
 ----------------------------------------------------------------

   16  -28057.3066690072      5.58e-09  Convergence criterion met
 Total energy in the final basis set =   -28057.3932791610

                    Orbital Energies (a.u.)
 --------------------------------------------------------------

 Alpha MOs
 -- Occupied --
***********************************-176.3131-176.3131-176.3129-176.3129
********-165.7168-165.7167-165.7167-165.7149-165.7149-165.7147-165.7147
********-165.7146-165.7145-165.7145 -35.8095 -35.8095 -35.8093 -35.8093
-31.3025 -31.3025 -31.3023 -31.3023 -31.2970 -31.2970 -31.2968 -31.2968
-31.2964 -31.2964 -31.2962 -31.2962 -22.9531 -22.9531 -22.9529 -22.9529
-22.9519 -22.9519 -22.9517 -22.9517 -22.9515 -22.9515 -22.9513 -22.9513
-22.9476 -22.9476 -22.9476 -22.9476 -22.9474 -22.9474 -22.9474 -22.9474
-19.1145 -19.1145 -10.2716 -10.2716 -10.2485 -10.2485 -10.2479 -10.2479
 -6.3586  -6.3586  -6.3584  -6.3584  -4.7705  -4.7705  -4.7703  -4.7703
 -4.7569  -4.7569  -4.7567  -4.7567  -4.7556  -4.7556  -4.7554  -4.7554
 -2.0365  -2.0365  -2.0364  -2.0364  -2.0321  -2.0321  -2.0319  -2.0319
 -2.0311  -2.0311  -2.0309  -2.0309  -2.0194  -2.0194  -2.0194  -2.0194
 -2.0192  -2.0192  -2.0191  -2.0191  -1.0485  -1.0461  -0.8780  -0.8146
 -0.7408  -0.7080  -0.6871  -0.6472  -0.6453  -0.5881  -0.5735  -0.5354
 -0.4703  -0.4607  -0.4500  -0.4196  -0.4063  -0.4037  -0.4026  -0.3673
 -0.3586  -0.3394  -0.2987  -0.2969  -0.2905  -0.2900  -0.2871  -0.2773
 -0.2747  -0.2601  -0.2537  -0.2429  -0.1970

 Beta MOs
 -- Occupied --
***********************************-176.3131-176.3131-176.3129-176.3129
********-165.7168-165.7167-165.7167-165.7149-165.7148-165.7147-165.7147
********-165.7146-165.7145-165.7145 -35.8095 -35.8095 -35.8093 -35.8093
-31.3025 -31.3025 -31.3024 -31.3024 -31.2969 -31.2969 -31.2968 -31.2968
-31.2964 -31.2964 -31.2962 -31.2962 -22.9531 -22.9531 -22.9529 -22.9529
-22.9518 -22.9518 -22.9517 -22.9517 -22.9515 -22.9515 -22.9513 -22.9513
-22.9476 -22.9476 -22.9476 -22.9475 -22.9474 -22.9474 -22.9474 -22.9474
-19.1074 -19.1074 -10.2707 -10.2707 -10.2472 -10.2472 -10.2466 -10.2466
 -6.3586  -6.3586  -6.3584  -6.3584  -4.7705  -4.7705  -4.7704  -4.7704
 -4.7568  -4.7568  -4.7567  -4.7567  -4.7556  -4.7556  -4.7553  -4.7553
 -2.0365  -2.0365  -2.0364  -2.0364  -2.0320  -2.0320  -2.0319  -2.0319
 -2.0311  -2.0311  -2.0309  -2.0309  -2.0193  -2.0193  -2.0193  -2.0193
 -2.0192  -2.0192  -2.0191  -2.0191  -1.0367  -1.0339  -0.8719  -0.8118
 -0.7322  -0.7059  -0.6858  -0.6448  -0.6445  -0.5841  -0.5705  -0.5331
 -0.4650  -0.4441  -0.4423  -0.4031  -0.4028  -0.4005  -0.3927  -0.3650
 -0.3527  -0.3130  -0.2984  -0.2954  -0.2891  -0.2861  -0.2823  -0.2719
 -0.2645  -0.2600  -0.2497  -0.2409

          Ground-State Mulliken Net Atomic Charges

     Atom                 Charge (a.u.)    Spin (a.u.)
  --------------------------------------------------------
      1 I                     0.136575       0.004046
      2 C                     0.785682       0.099332
      3 C                     0.756962       0.099610
      4 I                     0.140660       0.004044
      5 C                    -2.192238       0.033307
      6 O                    -0.127936       0.259451
      7 C                     0.786301       0.099531
      8 C                     0.756835       0.099771
      9 I                     0.140662       0.004062
     10 C                    -2.192104       0.033312
     11 O                    -0.127940       0.259470
     12 I                     0.136540       0.004063
  --------------------------------------------------------
  Sum of atomic charges =    -1.000000

                    Cartesian Multipole Moments
 -----------------------------------------------------------------
    Charge (ESU x 10^10)
                -4.8032
    Dipole Moment (Debye)
         X      -0.0005      Y       0.0001      Z      -0.0001
       Tot       0.0005
    Quadrupole Moments (Debye-Ang)
        XX    -176.0656     XY      -4.8653     YY    -193.8417
        XZ      -0.5694     YZ      -0.6598     ZZ    -163.8649

 Total job time:  198.00s(wall), 1372.55s(cpu)
        *  Thank you very much for using Q-Chem.  Have a nice day.  *
