 Q-Chem 5.4, Q-Chem, Inc., Pleasanton, CA (2021)
 Q-Chem 5.4.0 for Intel X86 EM64T Linux

User input:
--------------------------------------------------------------
$molecule
-1 2
C                 -3.2395100000      2.9975900000     -0.1255360000
O                 -1.9209030000      2.5098810000     -0.0864600000
C                 -1.7200600000      1.1550080000     -0.0597640000
C                 -2.7819250000      0.2735250000     -0.0699550000
C                 -2.5630690000     -1.1169850000     -0.0419260000
C                 -1.2819430000     -1.6287360000     -0.0029760000
O                 -1.0569760000     -2.9798200000      0.0242590000
C                 -2.1619560000     -3.8498700000      0.0109400000
C                 -0.1411800000     -0.7556230000      0.0099330000
C                  1.2188030000     -1.3125430000      0.0530960000
O                  1.4774640000     -2.5376730000      0.0821190000
C                  2.3278100000     -0.3467510000      0.0622140000
C                  3.6529730000     -0.8327000000      0.1029540000
C                  4.7295070000      0.0322470000      0.1129520000
C                  4.5102250000      1.4257740000      0.0821580000
C                  3.2202730000      1.9172630000      0.0421350000
C                  2.1085480000      1.0467490000      0.0314070000
C                  0.7567200000      1.6242240000     -0.0115050000
O                  0.6267470000      2.8696400000     -0.0382140000
C                 -0.3664060000      0.6754890000     -0.0203280000
H                 -3.1503090000      4.0848000000     -0.1415260000
H                 -3.8195530000      2.6980600000      0.7588120000
H                 -3.7775700000      2.6683160000     -1.0256830000
H                 -3.8014250000      0.6317600000     -0.0995780000
H                 -3.4231200000     -1.7718320000     -0.0516100000
H                 -2.8120110000     -3.7090520000      0.8860430000
H                 -1.7432700000     -4.8569850000      0.0365700000
H                 -2.7688780000     -3.7365180000     -0.8984500000
H                  3.7864220000     -1.9077720000      0.1258310000
H                  5.7428250000     -0.3580200000      0.1443770000
H                  5.3545960000      2.1092160000      0.0899510000
H                  3.0171480000      2.9813400000      0.0177600000
$end
$rem
MAX_SCF_CYCLES=200
BASIS  =  6-311++G(d,p)
GUI  =  2
JOB_TYPE  =  SP
METHOD  =  B3LYP
SOLVENT_METHOD = PCM
$end
$pcm
theory = CPCM
$end
$solvent
dielectric 37.219
opticaldielectric 1.43
$end

--------------------------------------------------------------

             Standard Nuclear Orientation (Angstroms)
    I     Atom           X                Y                Z
 ----------------------------------------------------------------
    1      C      -3.2395100000     2.9975900000    -0.1255360000
    2      O      -1.9209030000     2.5098810000    -0.0864600000
    3      C      -1.7200600000     1.1550080000    -0.0597640000
    4      C      -2.7819250000     0.2735250000    -0.0699550000
    5      C      -2.5630690000    -1.1169850000    -0.0419260000
    6      C      -1.2819430000    -1.6287360000    -0.0029760000
    7      O      -1.0569760000    -2.9798200000     0.0242590000
    8      C      -2.1619560000    -3.8498700000     0.0109400000
    9      C      -0.1411800000    -0.7556230000     0.0099330000
   10      C       1.2188030000    -1.3125430000     0.0530960000
   11      O       1.4774640000    -2.5376730000     0.0821190000
   12      C       2.3278100000    -0.3467510000     0.0622140000
   13      C       3.6529730000    -0.8327000000     0.1029540000
   14      C       4.7295070000     0.0322470000     0.1129520000
   15      C       4.5102250000     1.4257740000     0.0821580000
   16      C       3.2202730000     1.9172630000     0.0421350000
   17      C       2.1085480000     1.0467490000     0.0314070000
   18      C       0.7567200000     1.6242240000    -0.0115050000
   19      O       0.6267470000     2.8696400000    -0.0382140000
   20      C      -0.3664060000     0.6754890000    -0.0203280000
   21      H      -3.1503090000     4.0848000000    -0.1415260000
   22      H      -3.8195530000     2.6980600000     0.7588120000
   23      H      -3.7775700000     2.6683160000    -1.0256830000
   24      H      -3.8014250000     0.6317600000    -0.0995780000
   25      H      -3.4231200000    -1.7718320000    -0.0516100000
   26      H      -2.8120110000    -3.7090520000     0.8860430000
   27      H      -1.7432700000    -4.8569850000     0.0365700000
   28      H      -2.7688780000    -3.7365180000    -0.8984500000
   29      H       3.7864220000    -1.9077720000     0.1258310000
   30      H       5.7428250000    -0.3580200000     0.1443770000
   31      H       5.3545960000     2.1092160000     0.0899510000
   32      H       3.0171480000     2.9813400000     0.0177600000
 ----------------------------------------------------------------

    8    -918.1906591025      6.18e-06  Convergence criterion met
 Total energy in the final basis set =     -918.1906591025

                    Orbital Energies (a.u.)
 --------------------------------------------------------------

 Alpha MOs
 -- Occupied --
-19.1450 -19.1450 -19.0688 -19.0688 -10.2304 -10.2304 -10.2249 -10.2249
-10.2112 -10.2112 -10.1795 -10.1791 -10.1701 -10.1697 -10.1690 -10.1685
-10.1670 -10.1667 -10.1667 -10.1665  -1.0651  -1.0643  -1.0007  -0.9984
 -0.8577  -0.8465  -0.7827  -0.7605  -0.7468  -0.7426  -0.7076  -0.6768
 -0.6662  -0.6293  -0.6177  -0.5772  -0.5576  -0.5381  -0.5324  -0.5078
 -0.4941  -0.4793  -0.4666  -0.4615  -0.4590  -0.4577  -0.4334  -0.4291
 -0.4207  -0.4183  -0.4112  -0.4100  -0.3991  -0.3854  -0.3810  -0.3802
 -0.3743  -0.3490  -0.3429  -0.3382  -0.3353  -0.3343  -0.3279  -0.2926
 -0.2659  -0.2535  -0.2480  -0.2344  -0.2256  -0.2137  -0.1363

 Beta MOs
 -- Occupied --
-19.1449 -19.1449 -19.0637 -19.0637 -10.2303 -10.2303 -10.2232 -10.2232
-10.2112 -10.2112 -10.1788 -10.1784 -10.1698 -10.1693 -10.1684 -10.1679
-10.1666 -10.1666 -10.1661 -10.1656  -1.0648  -1.0640  -0.9917  -0.9893
 -0.8553  -0.8451  -0.7786  -0.7590  -0.7451  -0.7409  -0.7071  -0.6751
 -0.6592  -0.6275  -0.6153  -0.5764  -0.5562  -0.5358  -0.5312  -0.5072
 -0.4932  -0.4766  -0.4654  -0.4609  -0.4576  -0.4560  -0.4329  -0.4277
 -0.4204  -0.4086  -0.4073  -0.4061  -0.3984  -0.3837  -0.3792  -0.3710
 -0.3618  -0.3478  -0.3348  -0.3332  -0.3327  -0.3323  -0.3272  -0.2891
 -0.2477  -0.2460  -0.2427  -0.2299  -0.2210  -0.2055

          Ground-State Mulliken Net Atomic Charges

     Atom                 Charge (a.u.)    Spin (a.u.)
  --------------------------------------------------------
      1 C                    -0.328608      -0.000955
      2 O                    -0.159558       0.001949
      3 C                    -0.194436       0.016347
      4 C                    -0.382899       0.080078
      5 C                    -0.383534       0.080157
      6 C                    -0.198443       0.016224
      7 O                    -0.158418       0.001965
      8 C                    -0.328977      -0.000944
      9 C                     0.370032       0.032648
     10 C                    -0.108970       0.088978
     11 O                    -0.486155       0.199200
     12 C                     0.034990       0.027455
     13 C                     0.137101       0.029788
     14 C                    -0.480876       0.032095
     15 C                    -0.480850       0.032142
     16 C                     0.134829       0.029682
     17 C                     0.042025       0.027246
     18 C                    -0.111003       0.088987
     19 O                    -0.486097       0.199274
     20 C                     0.366945       0.032808
     21 H                     0.198580      -0.000250
     22 H                     0.157909       0.000599
     23 H                     0.157995       0.000599
     24 H                     0.225367      -0.004793
     25 H                     0.224171      -0.004791
     26 H                     0.158052       0.000590
     27 H                     0.198496      -0.000245
     28 H                     0.157909       0.000601
     29 H                     0.166070      -0.001233
     30 H                     0.195994      -0.002481
     31 H                     0.195833      -0.002484
     32 H                     0.166527      -0.001239
  --------------------------------------------------------
  Sum of atomic charges =    -1.000000

                    Cartesian Multipole Moments
 -----------------------------------------------------------------
    Charge (ESU x 10^10)
                -4.8032
    Dipole Moment (Debye)
         X      -8.5112      Y      -1.3421      Z      -0.1817
       Tot       8.6183
    Quadrupole Moments (Debye-Ang)
        XX    -105.8629     XY       6.6770     YY    -147.2417
        XZ       0.2898     YZ       0.6403     ZZ    -123.1408

 Total job time:  209.86s(wall), 503.27s(cpu)
        *  Thank you very much for using Q-Chem.  Have a nice day.  *
