 Q-Chem 5.4, Q-Chem, Inc., Pleasanton, CA (2021)
 Q-Chem 5.4.0 for Intel X86 EM64T Linux

User input:
--------------------------------------------------------------
$molecule
-1 2
C                  0.2273250000      1.7349000000     -1.7781430000
C                 -1.2044660000      1.8556870000     -1.5345720000
C                 -2.0585190000      0.7970840000     -1.5900500000
C                 -1.6041620000     -0.5495670000     -1.9031300000
C                 -0.1897230000     -0.6801970000     -2.1386530000
C                  0.7026730000      0.3768170000     -2.0468000000
O                  0.9691560000      2.7487840000     -1.7926390000
O                 -2.4007690000     -1.5289890000     -1.9567090000
C                  3.2133500000      0.7829390000     -1.5025510000
C                  4.4979500000      0.8717290000     -2.0499580000
C                  3.0011020000      1.2417480000     -0.1986190000
C                  4.0524690000      1.7739310000      0.5429460000
C                  5.5451980000      1.4273480000     -1.3200900000
C                  5.3260370000      1.8763440000     -0.0173370000
H                 -1.5609150000      2.8595560000     -1.3208680000
H                 -3.1229550000      0.9210460000     -1.4089570000
H                  0.1825000000     -1.6696710000     -2.3816560000
H                  4.6563060000      0.4948040000     -3.0533080000
H                  2.0102500000      1.1803840000      0.2325190000
H                  3.8753300000      2.1202400000      1.5559180000
H                  6.5329730000      1.5056670000     -1.7632870000
H                  6.1417320000      2.3038040000      0.5572910000
C                  2.1366870000      0.0890650000     -2.3012630000
O                  2.4859920000     -0.7685520000     -3.1099240000
$end
$rem
MAX_SCF_CYCLES=200
BASIS  =  6-311++G(d,p)
GUI  =  2
JOB_TYPE  =  SP
METHOD  =  B3LYP
SOLVENT_METHOD = COSMO
$end
$solvent
dielectric 37.219
opticaldielectric 1.43
$end

--------------------------------------------------------------

             Standard Nuclear Orientation (Angstroms)
    I     Atom           X                Y                Z
 ----------------------------------------------------------------
    1      C      -1.0743394064    -1.0509032429     0.6889012904
    2      C      -2.3803039567    -1.6731582860     0.5122744126
    3      C      -3.4484809994    -1.0182119941    -0.0198607272
    4      C      -3.3692536925     0.3683524391    -0.4547059779
    5      C      -2.0808198769     0.9897648332    -0.2905173534
    6      C      -0.9701221067     0.3286200749     0.2108051601
    7      O      -0.1356691220    -1.6656000968     1.2541711436
    8      O      -4.3640855236     0.9736357819    -0.9452797018
    9      C       1.6220789435     0.4268118980     0.0224089492
   10      C       2.7833485706     0.9886726943     0.5641658565
   11      C       1.7402181509    -0.6621816180    -0.8470332987
   12      C       2.9935015764    -1.1750739819    -1.1706566010
   13      C       4.0360207053     0.4613106513     0.2627526145
   14      C       4.1451103355    -0.6209969575    -0.6110345585
   15      H      -2.4596865001    -2.7018817266     0.8527222837
   16      H      -4.4116478656    -1.5087863240    -0.1331376667
   17      H      -1.9879464399     2.0258214036    -0.5981218461
   18      H       2.6822799935     1.8447863864     1.2204545047
   19      H       0.8475944878    -1.1058587807    -1.2687047025
   20      H       3.0712334567    -2.0162183574    -1.8517251114
   21      H       4.9275073698     0.8962963033     0.7035427083
   22      H       5.1206356699    -1.0304899747    -0.8538174118
   23      C       0.2984094374     1.0936194852     0.3085415803
   24      O       0.3044826133     2.2990362019     0.5501759534
 ----------------------------------------------------------------

   10    -726.1206900982      9.97e-06  Convergence criterion met
 Total energy in the final basis set =     -726.1206900982
    5    -726.2080450802      4.74e-06  Convergence criterion met
 Total energy in the final basis set =     -726.2080450802

                    Orbital Energies (a.u.)
 --------------------------------------------------------------

 Alpha MOs
 -- Occupied --
-19.1149 -19.0908 -19.0898 -10.2671 -10.2379 -10.2305 -10.1863 -10.1816
-10.1810 -10.1807 -10.1793 -10.1776 -10.1773 -10.1772 -10.1747 -10.1733
 -1.0472  -1.0152  -1.0108  -0.8643  -0.8345  -0.7743  -0.7564  -0.7516
 -0.6987  -0.6514  -0.6157  -0.6047  -0.5891  -0.5511  -0.5135  -0.4863
 -0.4828  -0.4692  -0.4603  -0.4464  -0.4404  -0.4290  -0.4276  -0.4177
 -0.4154  -0.4052  -0.3876  -0.3862  -0.3713  -0.3667  -0.3612  -0.3463
 -0.2947  -0.2796  -0.2700  -0.2646  -0.2586  -0.2532  -0.2433  -0.1768

 Beta MOs
 -- Occupied --
-19.1144 -19.0836 -19.0834 -10.2670 -10.2370 -10.2293 -10.1863 -10.1810
-10.1807 -10.1807 -10.1792 -10.1776 -10.1772 -10.1750 -10.1743 -10.1723
 -1.0462  -1.0044  -0.9977  -0.8642  -0.8283  -0.7728  -0.7551  -0.7510
 -0.6888  -0.6487  -0.6149  -0.6031  -0.5855  -0.5499  -0.5118  -0.4843
 -0.4798  -0.4669  -0.4595  -0.4444  -0.4385  -0.4276  -0.4264  -0.4115
 -0.4072  -0.3947  -0.3829  -0.3693  -0.3668  -0.3628  -0.3559  -0.3456
 -0.2782  -0.2666  -0.2630  -0.2598  -0.2549  -0.2476  -0.2384

          Ground-State Mulliken Net Atomic Charges

     Atom                 Charge (a.u.)    Spin (a.u.)
  --------------------------------------------------------
      1 C                    -1.084639       0.036003
      2 C                    -0.020414       0.099976
      3 C                     0.029327       0.025197
      4 C                    -0.432859       0.147273
      5 C                     0.065340       0.100669
      6 C                     1.623184       0.088872
      7 O                    -0.428118       0.223687
      8 O                    -0.520866       0.257987
      9 C                     1.266165      -0.003363
     10 C                     0.467083      -0.003637
     11 C                    -1.027766       0.015225
     12 C                    -0.382322      -0.004227
     13 C                    -0.430405       0.001833
     14 C                    -0.322039       0.002652
     15 H                     0.224221      -0.006655
     16 H                     0.220443      -0.003413
     17 H                     0.234914      -0.012685
     18 H                     0.222837      -0.000403
     19 H                     0.188479       0.001563
     20 H                     0.220945      -0.000102
     21 H                     0.217659       0.000079
     22 H                     0.200778      -0.000112
     23 C                    -1.217667       0.017393
     24 O                    -0.314280       0.016188
  --------------------------------------------------------
  Sum of atomic charges =    -1.000000

                    Cartesian Multipole Moments
 -----------------------------------------------------------------
    Charge (ESU x 10^10)
                -4.8032
    Dipole Moment (Debye)
         X      10.0827      Y      -3.6046      Z      -1.6257
       Tot      10.8303
    Quadrupole Moments (Debye-Ang)
        XX    -129.4516     XY      12.7453     YY    -110.8229
        XZ     -11.4747     YZ       8.7434     ZZ    -101.8082

 Total job time:  70.03s(wall), 526.41s(cpu)
        *  Thank you very much for using Q-Chem.  Have a nice day.  *
