 Q-Chem 5.4, Q-Chem, Inc., Pleasanton, CA (2021)
 Q-Chem 5.4.0 for Intel X86 EM64T Linux

User input:
--------------------------------------------------------------
$molecule
-1 2
C                  2.6592810000      1.4470510000     -0.2240090000
O                  2.4797040000      0.2175310000      0.4748630000
C                  1.2535550000     -0.4043340000      0.3066450000
C                  1.2550610000     -1.7136960000     -0.0952140000
C                  0.0368260000     -2.4839740000     -0.2249850000
O                  0.0387150000     -3.6911800000     -0.5968530000
C                 -1.1858080000     -1.7699390000      0.0748820000
C                 -1.1884470000     -0.4607440000      0.4768680000
O                 -2.4064780000      0.1051680000      0.8156120000
C                 -2.7377160000      1.3219250000      0.1506050000
C                  0.0344830000      0.3118440000      0.6646830000
O                  0.0391610000      1.4925640000      1.1255830000
H                  3.6715460000      1.7848430000      0.0110140000
H                  2.5795730000      1.2873200000     -1.3086310000
H                  1.9277720000      2.1902390000      0.0971910000
H                  2.1955620000     -2.2047280000     -0.3208660000
H                 -2.1249910000     -2.3042990000     -0.0197250000
H                 -2.8033470000      1.1606470000     -0.9347270000
H                 -3.7214520000      1.6148090000      0.5254610000
H                 -2.0030000000      2.0989540000      0.3675050000
$end

$rem
BASIS  =  6-311++G(d,p)
GUI  =  2
JOB_TYPE  =  SP
METHOD  =  B3LYP
SCF_CONVERGENCE  = 8
SOLVENT_METHOD = sm12
$end

$smx
solvent dimethylformamide
charges CM5
$end

--------------------------------------------------------------

             Standard Nuclear Orientation (Angstroms)
    I     Atom           X                Y                Z
 ----------------------------------------------------------------
    1      C       2.6592810000     1.4470510000    -0.2240090000
    2      O       2.4797040000     0.2175310000     0.4748630000
    3      C       1.2535550000    -0.4043340000     0.3066450000
    4      C       1.2550610000    -1.7136960000    -0.0952140000
    5      C       0.0368260000    -2.4839740000    -0.2249850000
    6      O       0.0387150000    -3.6911800000    -0.5968530000
    7      C      -1.1858080000    -1.7699390000     0.0748820000
    8      C      -1.1884470000    -0.4607440000     0.4768680000
    9      O      -2.4064780000     0.1051680000     0.8156120000
   10      C      -2.7377160000     1.3219250000     0.1506050000
   11      C       0.0344830000     0.3118440000     0.6646830000
   12      O       0.0391610000     1.4925640000     1.1255830000
   13      H       3.6715460000     1.7848430000     0.0110140000
   14      H       2.5795730000     1.2873200000    -1.3086310000
   15      H       1.9277720000     2.1902390000     0.0971910000
   16      H       2.1955620000    -2.2047280000    -0.3208660000
   17      H      -2.1249910000    -2.3042990000    -0.0197250000
   18      H      -2.8033470000     1.1606470000    -0.9347270000
   19      H      -3.7214520000     1.6148090000     0.5254610000
   20      H      -2.0030000000     2.0989540000     0.3675050000
 ----------------------------------------------------------------

   17    -610.7480304218      9.95e-09  Convergence criterion met
 Total energy in the final basis set =     -610.8280629643

                    Orbital Energies (a.u.)
 --------------------------------------------------------------

 Alpha MOs
 -- Occupied --
-19.1397 -19.1396 -19.0801 -19.0734 -10.2247 -10.2243 -10.2241 -10.2227
-10.2103 -10.2102 -10.1610 -10.1610  -1.0556  -1.0505  -0.9949  -0.9938
 -0.8238  -0.7563  -0.7061  -0.6773  -0.6739  -0.5924  -0.5720  -0.5064
 -0.5039  -0.4770  -0.4688  -0.4632  -0.4537  -0.4445  -0.4205  -0.4066
 -0.4003  -0.3853  -0.3804  -0.3713  -0.3525  -0.3512  -0.3043  -0.2942
 -0.2666  -0.2441  -0.2388  -0.2289  -0.1630

 Beta MOs
 -- Occupied --
-19.1395 -19.1394 -19.0725 -19.0666 -10.2234 -10.2234 -10.2226 -10.2220
-10.2103 -10.2102 -10.1599 -10.1599  -1.0540  -1.0499  -0.9826  -0.9815
 -0.8182  -0.7545  -0.7028  -0.6759  -0.6653  -0.5892  -0.5689  -0.5047
 -0.5019  -0.4762  -0.4647  -0.4589  -0.4526  -0.4431  -0.4198  -0.3990
 -0.3873  -0.3837  -0.3727  -0.3497  -0.3489  -0.3442  -0.3020  -0.2850
 -0.2395  -0.2373  -0.2322  -0.2234

          Ground-State Mulliken Net Atomic Charges

     Atom                 Charge (a.u.)    Spin (a.u.)
  --------------------------------------------------------
      1 C                    -0.025762       0.004944
      2 O                    -0.115413       0.000359
      3 C                    -0.342902       0.146444
      4 C                     0.240592       0.045833
      5 C                    -1.477433       0.116241
      6 O                    -0.409064       0.240705
      7 C                     0.248123       0.045310
      8 C                    -0.340774       0.145638
      9 O                    -0.115726       0.000406
     10 C                    -0.025477       0.004909
     11 C                     0.337727      -0.019111
     12 O                    -0.343057       0.286759
     13 H                     0.242647       0.000160
     14 H                     0.136493       0.000439
     15 H                     0.135650      -0.001266
     16 H                     0.169813      -0.008575
     17 H                     0.170118      -0.008547
     18 H                     0.136252       0.000453
     19 H                     0.242730       0.000157
     20 H                     0.135462      -0.001259
  --------------------------------------------------------
  Sum of atomic charges =    -1.000000

                    Cartesian Multipole Moments
 -----------------------------------------------------------------
    Charge (ESU x 10^10)
                -4.8032
    Dipole Moment (Debye)
         X      -0.3313      Y       7.7570      Z      -2.4911
       Tot       8.1539
    Quadrupole Moments (Debye-Ang)
        XX     -78.5545     XY       0.0123     YY    -110.5718
        XZ       0.1359     YZ      -9.9234     ZZ     -80.1884

 Total job time:  262.02s(wall), 2017.83s(cpu)
        *  Thank you very much for using Q-Chem.  Have a nice day.  *
