 Q-Chem 5.4, Q-Chem, Inc., Pleasanton, CA (2021)
 Q-Chem 5.4.0 for Intel X86 EM64T Linux

User input:
--------------------------------------------------------------
$molecule
-1 2
O                  0.0972680000      2.9570470000      0.8939730000
C                  0.0577590000      1.7507730000      0.5292690000
C                  1.1876510000      0.8434790000      0.3184560000
C                  2.5660370000      1.0632080000      0.4600950000
C                  3.4551670000      0.0271460000      0.1974970000
C                  2.9869140000     -1.2413020000     -0.2093760000
C                  1.6173450000     -1.4740860000     -0.3544750000
C                  0.7125120000     -0.4442550000     -0.0946180000
C                 -0.7392260000     -0.3790530000     -0.1545830000
C                 -1.7090920000     -1.3234090000     -0.4916000000
C                 -3.0596150000     -0.9667390000     -0.4582230000
C                 -3.4433480000      0.3395730000     -0.0863910000
C                 -2.4882600000      1.2923230000      0.2522440000
C                 -1.1290970000      0.9484300000      0.2231290000
H                  2.9207380000      2.0403480000      0.7732140000
H                  4.5241920000      0.1902340000      0.3051680000
H                  3.6961270000     -2.0387390000     -0.4100750000
H                  1.2646380000     -2.4534100000     -0.6680910000
H                 -1.4232060000     -2.3319400000     -0.7791880000
H                 -3.8188140000     -1.6978820000     -0.7195720000
H                 -4.4982420000      0.5995760000     -0.0658650000
H                 -2.7774490000      2.2986770000      0.5390110000
$end

$rem
BASIS  =  6-311++G(d,p)
GUI  =  2
JOB_TYPE  =  SP
METHOD  =  B3LYP
SCF_CONVERGENCE  = 8
SOLVENT_METHOD = sm12
$end

$smx
solvent dimethylformamide
charges CM5
$end

--------------------------------------------------------------

             Standard Nuclear Orientation (Angstroms)
    I     Atom           X                Y                Z
 ----------------------------------------------------------------
    1      O       0.0972680000     2.9570470000     0.8939730000
    2      C       0.0577590000     1.7507730000     0.5292690000
    3      C       1.1876510000     0.8434790000     0.3184560000
    4      C       2.5660370000     1.0632080000     0.4600950000
    5      C       3.4551670000     0.0271460000     0.1974970000
    6      C       2.9869140000    -1.2413020000    -0.2093760000
    7      C       1.6173450000    -1.4740860000    -0.3544750000
    8      C       0.7125120000    -0.4442550000    -0.0946180000
    9      C      -0.7392260000    -0.3790530000    -0.1545830000
   10      C      -1.7090920000    -1.3234090000    -0.4916000000
   11      C      -3.0596150000    -0.9667390000    -0.4582230000
   12      C      -3.4433480000     0.3395730000    -0.0863910000
   13      C      -2.4882600000     1.2923230000     0.2522440000
   14      C      -1.1290970000     0.9484300000     0.2231290000
   15      H       2.9207380000     2.0403480000     0.7732140000
   16      H       4.5241920000     0.1902340000     0.3051680000
   17      H       3.6961270000    -2.0387390000    -0.4100750000
   18      H       1.2646380000    -2.4534100000    -0.6680910000
   19      H      -1.4232060000    -2.3319400000    -0.7791880000
   20      H      -3.8188140000    -1.6978820000    -0.7195720000
   21      H      -4.4982420000     0.5995760000    -0.0658650000
   22      H      -2.7774490000     2.2986770000     0.5390110000
 ----------------------------------------------------------------

   17    -575.6207330409      7.01e-09  Convergence criterion met
 Total energy in the final basis set =     -575.7150966103

                    Orbital Energies (a.u.)
 --------------------------------------------------------------

 Alpha MOs
 -- Occupied --
-19.0709 -10.2097 -10.1827 -10.1827 -10.1790 -10.1790 -10.1787 -10.1784
-10.1784 -10.1783 -10.1777 -10.1776 -10.1657 -10.1657  -0.9882  -0.8807
 -0.8476  -0.7976  -0.7634  -0.7480  -0.7162  -0.6644  -0.6311  -0.5922
 -0.5776  -0.5572  -0.5102  -0.5012  -0.4748  -0.4483  -0.4478  -0.4339
 -0.4269  -0.4202  -0.4194  -0.4009  -0.3690  -0.3677  -0.3631  -0.3557
 -0.3429  -0.3376  -0.2978  -0.2674  -0.2627  -0.2326  -0.2243  -0.1357

 Beta MOs
 -- Occupied --
-19.0634 -10.2071 -10.1834 -10.1833 -10.1790 -10.1789 -10.1771 -10.1770
-10.1769 -10.1768 -10.1768 -10.1768 -10.1650 -10.1649  -0.9748  -0.8768
 -0.8459  -0.7936  -0.7606  -0.7461  -0.7144  -0.6578  -0.6292  -0.5893
 -0.5765  -0.5544  -0.5069  -0.5000  -0.4731  -0.4467  -0.4461  -0.4329
 -0.4255  -0.4190  -0.4062  -0.3961  -0.3675  -0.3650  -0.3580  -0.3422
 -0.3358  -0.3319  -0.2880  -0.2567  -0.2484  -0.2258  -0.2188

          Ground-State Mulliken Net Atomic Charges

     Atom                 Charge (a.u.)    Spin (a.u.)
  --------------------------------------------------------
      1 O                    -0.386974       0.274901
      2 C                    -1.617117       0.153668
      3 C                    -1.367247       0.053391
      4 C                    -0.213466       0.084868
      5 C                     0.759318      -0.012170
      6 C                     0.899139       0.132934
      7 C                     0.267155      -0.054751
      8 C                    -0.954917       0.093079
      9 C                    -0.952994       0.092414
     10 C                     0.271276      -0.054344
     11 C                     0.904724       0.132268
     12 C                     0.759000      -0.011903
     13 C                    -0.211565       0.084850
     14 C                    -1.353606       0.053392
     15 H                     0.153834      -0.004890
     16 H                     0.343325      -0.000417
     17 H                     0.358291      -0.009540
     18 H                     0.242584       0.003544
     19 H                     0.243442       0.003523
     20 H                     0.358523      -0.009495
     21 H                     0.343651      -0.000438
     22 H                     0.153620      -0.004884
  --------------------------------------------------------
  Sum of atomic charges =    -1.000000

                    Cartesian Multipole Moments
 -----------------------------------------------------------------
    Charge (ESU x 10^10)
                -4.8032
    Dipole Moment (Debye)
         X      -0.2357      Y      -6.9630      Z      -2.1043
       Tot       7.2779
    Quadrupole Moments (Debye-Ang)
        XX     -93.9098     XY      -0.3621     YY    -105.8843
        XZ      -0.2392     YZ      -4.3447     ZZ     -92.8044

 Total job time:  396.54s(wall), 2802.94s(cpu)
        *  Thank you very much for using Q-Chem.  Have a nice day.  *
