 Q-Chem 5.4, Q-Chem, Inc., Pleasanton, CA (2021)
 Q-Chem 5.4.0 for Intel X86 EM64T Linux

User input:
--------------------------------------------------------------
$molecule
0 1
C                  3.0300810000     -1.1152990000     -0.1381190000
C                  1.7403840000     -0.3660440000     -0.0005070000
C                  1.6543660000      0.9222000000      0.3641780000
C                  0.3634010000      1.6281120000      0.4893180000
O                  0.3380090000      2.8038300000      0.8253130000
C                 -0.8968120000      0.8771360000      0.1981010000
C                 -0.8379060000     -0.4231020000     -0.1724290000
C                 -2.0668790000     -1.2331390000     -0.4789440000
C                  0.4793940000     -1.1206110000     -0.2930380000
O                  0.5409780000     -2.2944030000     -0.6261080000
C                 -2.1909340000      1.6273640000      0.3361130000
H                  3.1435890000     -1.5033730000     -1.1540360000
H                  3.8806640000     -0.4743660000      0.0968960000
H                  3.0428140000     -1.9850790000      0.5243700000
H                  2.5322050000      1.5194890000      0.5883510000
H                 -2.7291230000     -1.2826940000      0.3914310000
H                 -1.7956080000     -2.2469310000     -0.7675920000
H                 -2.6421990000     -0.7784760000     -1.2915990000
H                 -2.8451210000      1.1481040000      1.0714560000
H                 -2.0045200000      2.6530940000      0.6496100000
H                 -2.7367830000      1.6441890000     -0.6127660000
$end

$rem
BASIS  =  6-311++G(d,p)
GUI  =  2
JOB_TYPE  =  SP
METHOD  =  B3LYP
SCF_CONVERGENCE  = 8
SOLVENT_METHOD = sm12
$end

$smx
solvent dimethylformamide
charges CM5
$end

--------------------------------------------------------------

             Standard Nuclear Orientation (Angstroms)
    I     Atom           X                Y                Z
 ----------------------------------------------------------------
    1      C       3.0300810000    -1.1152990000    -0.1381190000
    2      C       1.7403840000    -0.3660440000    -0.0005070000
    3      C       1.6543660000     0.9222000000     0.3641780000
    4      C       0.3634010000     1.6281120000     0.4893180000
    5      O       0.3380090000     2.8038300000     0.8253130000
    6      C      -0.8968120000     0.8771360000     0.1981010000
    7      C      -0.8379060000    -0.4231020000    -0.1724290000
    8      C      -2.0668790000    -1.2331390000    -0.4789440000
    9      C       0.4793940000    -1.1206110000    -0.2930380000
   10      O       0.5409780000    -2.2944030000    -0.6261080000
   11      C      -2.1909340000     1.6273640000     0.3361130000
   12      H       3.1435890000    -1.5033730000    -1.1540360000
   13      H       3.8806640000    -0.4743660000     0.0968960000
   14      H       3.0428140000    -1.9850790000     0.5243700000
   15      H       2.5322050000     1.5194890000     0.5883510000
   16      H      -2.7291230000    -1.2826940000     0.3914310000
   17      H      -1.7956080000    -2.2469310000    -0.7675920000
   18      H      -2.6421990000    -0.7784760000    -1.2915990000
   19      H      -2.8451210000     1.1481040000     1.0714560000
   20      H      -2.0045200000     2.6530940000     0.6496100000
   21      H      -2.7367830000     1.6441890000    -0.6127660000
 ----------------------------------------------------------------

   15    -499.5532532193      2.66e-09  Convergence criterion met
 Total energy in the final basis set =     -499.5665748640

                    Orbital Energies (a.u.)
 --------------------------------------------------------------

 Alpha MOs
 -- Occupied --
-19.1347 -19.1312 -10.2785 -10.2761 -10.2141 -10.2083 -10.2076 -10.1973
-10.1722 -10.1700 -10.1697  -1.0664  -1.0615  -0.8644  -0.8214  -0.7462
 -0.7315  -0.6888  -0.6587  -0.5940  -0.5747  -0.5336  -0.4877  -0.4639
 -0.4631  -0.4388  -0.4327  -0.4259  -0.4195  -0.4191  -0.4072  -0.4016
 -0.3930  -0.3897  -0.3790  -0.3708  -0.2962  -0.2863  -0.2713  -0.2701

          Ground-State Mulliken Net Atomic Charges

     Atom                 Charge (a.u.)
  ----------------------------------------
      1 C                     0.231455
      2 C                     1.006668
      3 C                    -0.255790
      4 C                    -1.467437
      5 O                    -0.327939
      6 C                     0.917113
      7 C                     0.090571
      8 C                    -0.226357
      9 C                    -1.533121
     10 O                    -0.289665
     11 C                    -0.174856
     12 H                     0.186072
     13 H                     0.237247
     14 H                     0.186178
     15 H                     0.237658
     16 H                     0.210928
     17 H                     0.170755
     18 H                     0.210139
     19 H                     0.217000
     20 H                     0.155872
     21 H                     0.217510
  ----------------------------------------
  Sum of atomic charges =     0.000000

                    Cartesian Multipole Moments
 -----------------------------------------------------------------
    Charge (ESU x 10^10)
                -0.0000
    Dipole Moment (Debye)
         X      -0.4759      Y      -0.7818      Z      -0.2537
       Tot       0.9498
    Quadrupole Moments (Debye-Ang)
        XX     -53.2989     XY      -1.0461     YY     -82.2356
        XZ       0.3829     YZ      -5.0947     ZZ     -66.1722

 Total job time:  271.45s(wall), 2000.35s(cpu)
        *  Thank you very much for using Q-Chem.  Have a nice day.  *
