 Q-Chem 5.4, Q-Chem, Inc., Pleasanton, CA (2021)
 Q-Chem 5.4.0 for Intel X86 EM64T Linux

User input:
--------------------------------------------------------------
$molecule
-2 1
C                 -0.1302950000     -0.8155980000      1.5094200000
C                 -0.1832220000     -0.7484010000      0.0439470000
C                 -0.6759460000     -1.8550860000     -0.6909450000
C                 -1.1654430000     -3.0591970000     -0.1232170000
C                 -1.1085740000     -3.0939560000      1.3325800000
C                 -0.6284180000     -2.0576990000      2.0821920000
O                  0.3564290000      0.0802970000      2.2480760000
O                 -1.6423140000     -4.0489380000     -0.7906860000
C                  0.4679540000      0.3502140000     -0.6570120000
H                 -1.4814860000     -4.0007770000      1.8090700000
H                 -0.7463350000     -1.7775340000     -1.7731120000
H                 -0.6080870000     -2.1103920000      3.1693700000
C                  0.4230000000      1.7647350000     -0.3564350000
C                  1.2891040000      2.6652040000     -1.0298880000
C                  2.1231330000      2.2525320000     -2.0433500000
C                  2.1123510000      0.8925940000     -2.4314380000
C                  1.3048070000      0.0000540000     -1.7521400000
N                 -0.5602880000      2.3666740000      0.4671300000
O                 -0.5712730000      3.6427110000      0.5781150000
O                 -1.4129590000      1.6636960000      1.0370270000
H                  1.2417390000      3.7020400000     -0.7274640000
H                  2.7781740000      2.9670190000     -2.5357470000
H                  2.7705100000      0.5362380000     -3.2202330000
H                  1.3542830000     -1.0524800000     -2.0050320000
$end

$rem
BASIS  =  6-311++G(d,p)
GUI  =  2
JOB_TYPE  =  SP
METHOD  =  B3LYP
SCF_CONVERGENCE  = 8
SOLVENT_METHOD = sm12
$end

$smx
solvent dimethylformamide
charges CM5
$end

--------------------------------------------------------------

             Standard Nuclear Orientation (Angstroms)
    I     Atom           X                Y                Z
 ----------------------------------------------------------------
    1      C      -0.1302950000    -0.8155980000     1.5094200000
    2      C      -0.1832220000    -0.7484010000     0.0439470000
    3      C      -0.6759460000    -1.8550860000    -0.6909450000
    4      C      -1.1654430000    -3.0591970000    -0.1232170000
    5      C      -1.1085740000    -3.0939560000     1.3325800000
    6      C      -0.6284180000    -2.0576990000     2.0821920000
    7      O       0.3564290000     0.0802970000     2.2480760000
    8      O      -1.6423140000    -4.0489380000    -0.7906860000
    9      C       0.4679540000     0.3502140000    -0.6570120000
   10      H      -1.4814860000    -4.0007770000     1.8090700000
   11      H      -0.7463350000    -1.7775340000    -1.7731120000
   12      H      -0.6080870000    -2.1103920000     3.1693700000
   13      C       0.4230000000     1.7647350000    -0.3564350000
   14      C       1.2891040000     2.6652040000    -1.0298880000
   15      C       2.1231330000     2.2525320000    -2.0433500000
   16      C       2.1123510000     0.8925940000    -2.4314380000
   17      C       1.3048070000     0.0000540000    -1.7521400000
   18      N      -0.5602880000     2.3666740000     0.4671300000
   19      O      -0.5712730000     3.6427110000     0.5781150000
   20      O      -1.4129590000     1.6636960000     1.0370270000
   21      H       1.2417390000     3.7020400000    -0.7274640000
   22      H       2.7781740000     2.9670190000    -2.5357470000
   23      H       2.7705100000     0.5362380000    -3.2202330000
   24      H       1.3542830000    -1.0524800000    -2.0050320000
 ----------------------------------------------------------------

   19    -817.2396745641      6.97e-09  Convergence criterion met
 Total energy in the final basis set =     -817.5118574899

                    Orbital Energies (a.u.)
 --------------------------------------------------------------

 Alpha MOs
 -- Occupied --
-19.1200 -19.1089 -19.0537 -19.0356 -14.4991 -10.2195 -10.2084 -10.1987
-10.1961 -10.1862 -10.1858 -10.1842 -10.1832 -10.1651 -10.1633 -10.1599
-10.1400  -1.1712  -0.9968  -0.9755  -0.9494  -0.8733  -0.8100  -0.7951
 -0.7739  -0.7235  -0.6882  -0.6637  -0.6215  -0.5898  -0.5810  -0.5512
 -0.5234  -0.4933  -0.4891  -0.4880  -0.4620  -0.4563  -0.4533  -0.4408
 -0.4316  -0.4153  -0.3852  -0.3818  -0.3778  -0.3685  -0.3623  -0.3490
 -0.3445  -0.3358  -0.2900  -0.2838  -0.2737  -0.2663  -0.2571  -0.2474
 -0.2274  -0.2187  -0.2083  -0.1356

          Ground-State Mulliken Net Atomic Charges

     Atom                 Charge (a.u.)
  ----------------------------------------
      1 C                    -2.329712
      2 C                     0.077636
      3 C                    -2.154649
      4 C                    -0.700210
      5 C                    -0.189524
      6 C                     0.398385
      7 O                    -0.298974
      8 O                    -0.407649
      9 C                    -0.448993
     10 H                     0.189529
     11 H                    -0.050165
     12 H                     0.194566
     13 C                    -0.966935
     14 C                     0.892200
     15 C                     1.818811
     16 C                     1.592367
     17 C                    -0.518695
     18 N                    -0.428920
     19 O                     0.020157
     20 O                    -0.116402
     21 H                     0.288905
     22 H                     0.482935
     23 H                     0.424611
     24 H                     0.230726
  ----------------------------------------
  Sum of atomic charges =    -2.000000

                    Cartesian Multipole Moments
 -----------------------------------------------------------------
    Charge (ESU x 10^10)
                -9.6064
    Dipole Moment (Debye)
         X       7.3976      Y       6.8684      Z      -4.9347
       Tot      11.2361
    Quadrupole Moments (Debye-Ang)
        XX    -121.9127     XY     -16.0173     YY    -191.4438
        XZ      -4.1279     YZ     -14.7347     ZZ    -127.2918

 Total job time:  560.80s(wall), 4159.31s(cpu)
        *  Thank you very much for using Q-Chem.  Have a nice day.  *
