 Gaussian 16, Revision A.03,
 Gaussian 16:  ES64L-G16RevA.03 25-Dec-2016

 ----------------------------------------------------------------
 #P UB3LYP/6-311++G(d,p) SCRF=(PCM,Solvent=n,n-DiMethylFormamide)
 ----------------------------------------------------------------

 ------------------
 Radical PCM in DMF
 ------------------
 Symbolic Z-matrix:
 Charge = -1 Multiplicity = 2

                         Standard orientation:
 ---------------------------------------------------------------------
 Center     Atomic      Atomic             Coordinates (Angstroms)
 Number     Number       Type             X           Y           Z
 ---------------------------------------------------------------------
      1          6           0      -18.592037   -1.764596    1.486220
      2          6           0      -18.009019   -1.811786    0.150898
      3          6           0      -17.715036   -0.656609   -0.542382
      4          6           0      -17.947010    0.662820    0.024294
      5          6           0      -18.484394    0.707073    1.376613
      6          6           0      -18.788254   -0.443245    2.068858
      7          8           0      -18.912946   -2.813044    2.119026
      8          8           0      -17.693745    1.721681   -0.623430
      9          6           0      -18.678554   -0.944886    4.388115
     10          6           0      -17.683659    2.814658    2.123670
     11          6           0      -17.774111   -3.184906   -0.432210
     12          1           0      -19.278083   -0.759462    5.282549
     13          1           0      -17.690282   -0.481702    4.519948
     14          1           0      -18.568298   -2.018271    4.223518
     15          1           0      -18.093669    3.715913    2.585704
     16          1           0      -17.221407    3.058829    1.165447
     17          1           0      -16.936066    2.376619    2.800332
     18          6           0      -17.137280   -0.676340   -1.947984
     19          6           0      -15.630362   -0.621904   -1.940424
     20          6           0      -14.745302   -1.427894   -2.544782
     21          6           0      -13.258057   -1.191653   -2.366401
     22          6           0      -12.558678   -2.241268   -1.464114
     23          6           0      -11.077572   -2.011881   -1.356647
     24          6           0      -10.352407   -1.672742   -0.280822
     25          6           0       -8.856273   -1.463422   -0.406948
     26          6           0       -8.406580    0.010849   -0.247868
     27          6           0       -6.912758    0.163239   -0.314684
     28          6           0       -6.173092    0.828951   -1.213205
     29          6           0       -4.662791    0.848274   -1.090325
     30          6           0      -15.113555   -2.594477   -3.430662
     31          6           0      -10.920364   -1.480633    1.104530
     32          6           0       -6.740448    1.589840   -2.387476
     33          6           0       -4.070283    2.239405   -0.751659
     34          6           0       -2.568979    2.214929   -0.678192
     35          6           0       -1.771916    2.456997    0.372368
     36          6           0       -0.266961    2.353772    0.224143
     37          6           0        0.366013    1.164461    0.989668
     38          6           0        1.862835    1.130761    0.852885
     39          6           0        2.636409    0.193365    0.286816
     40          6           0        4.141077    0.371740    0.248376
     41          6           0        4.718465    0.606597   -1.170270
     42          6           0        6.217285    0.725211   -1.160688
     43          6           0        6.982119    1.773555   -1.497597
     44          6           0        8.491177    1.676724   -1.394483
     45          6           0        9.111074    2.564775   -0.286311
     46          6           0       10.610921    2.465003   -0.250746
     47          6           0       11.401528    2.006586    0.730215
     48          6           0       -2.263175    2.850131    1.744500
     49          6           0        2.118801   -1.084181   -0.328309
     50          6           0        6.449383    3.092284   -2.003096
     51          6           0       10.904162    1.504563    2.064027
     52          6           0       12.905683    1.981868    0.545239
     53          6           0       13.509670    0.559433    0.437516
     54          6           0       15.007960    0.584267    0.313752
     55          6           0       15.776720    0.142609   -0.691866
     56          6           0       15.247380   -0.492802   -1.954872
     57          6           0       17.284661    0.265222   -0.606170
     58          6           0       18.025181   -1.089043   -0.473508
     59          6           0       19.519008   -0.920789   -0.439447
     60          6           0       20.375945   -1.220304    0.546941
     61          6           0       19.972543   -1.812923    1.875772
     62          6           0       21.859738   -0.968931    0.371079
     63          1           0      -17.499367    0.226161   -2.453357
     64          1           0      -17.502766   -1.544066   -2.499890
     65          1           0      -15.236123    0.201945   -1.348003
     66          1           0      -13.095839   -0.201138   -1.931319
     67          1           0      -12.760165   -1.189919   -3.347324
     68          1           0      -12.727636   -3.240479   -1.884439
     69          1           0      -13.042975   -2.233011   -0.485809
     70          1           0      -10.536709   -2.121748   -2.297982
     71          1           0       -8.515772   -1.825877   -1.381630
     72          1           0       -8.337337   -2.067313    0.350806
     73          1           0       -8.751184    0.385922    0.723441
     74          1           0       -8.910093    0.616285   -1.004581
     75          1           0       -6.373650   -0.359324    0.476507
     76          1           0       -4.216496    0.502763   -2.033354
     77          1           0       -4.349234    0.139653   -0.318095
     78          1           0      -16.191218   -2.729928   -3.515990
     79          1           0      -14.691928   -3.535729   -3.058402
     80          1           0      -14.712135   -2.450596   -4.442759
     81          1           0      -11.988544   -1.685780    1.156963
     82          1           0      -10.766604   -0.456003    1.460464
     83          1           0      -10.414514   -2.140314    1.820369
     84          1           0       -7.810395    1.430957   -2.516665
     85          1           0       -6.241178    1.286830   -3.315388
     86          1           0       -6.578397    2.668531   -2.282494
     87          1           0       -4.515262    2.592093    0.181408
     88          1           0       -4.371111    2.953257   -1.528207
     89          1           0       -2.079946    1.948150   -1.615811
     90          1           0        0.198621    3.282991    0.580740
     91          1           0       -0.008504    2.261622   -0.834786
     92          1           0       -0.093013    0.237938    0.638048
     93          1           0        0.114606    1.250666    2.053819
     94          1           0        2.369581    2.002289    1.268773
     95          1           0        4.623134   -0.518337    0.675687
     96          1           0        4.426386    1.215797    0.882984
     97          1           0        4.245361    1.492865   -1.598751
     98          1           0        4.438813   -0.236385   -1.813876
     99          1           0        6.734252   -0.172042   -0.818821
    100          1           0        8.940095    1.958970   -2.356749
    101          1           0        8.779617    0.638133   -1.208414
    102          1           0        8.665160    2.290751    0.672327
    103          1           0        8.834599    3.610246   -0.469732
    104          1           0       11.103622    2.807941   -1.161123
    105          1           0       -3.345470    2.964113    1.792108
    106          1           0       -1.811110    3.800186    2.053735
    107          1           0       -1.976556    2.108306    2.497729
    108          1           0        1.038984   -1.194354   -0.236036
    109          1           0        2.587228   -1.953665    0.148146
    110          1           0        2.366156   -1.141386   -1.393744
    111          1           0        5.365663    3.099449   -2.113972
    112          1           0        6.888651    3.331895   -2.978772
    113          1           0        6.717564    3.913711   -1.330079
    114          1           0        9.822856    1.581187    2.172239
    115          1           0       11.364749    2.073254    2.880599
    116          1           0       11.177932    0.455835    2.221323
    117          1           0       13.383784    2.498572    1.388743
    118          1           0       13.173734    2.541894   -0.355310
    119          1           0       13.043409    0.040613   -0.403039
    120          1           0       13.244268   -0.010962    1.336203
    121          1           0       15.519502    1.037222    1.163616
    122          1           0       14.161477   -0.446324   -2.031184
    123          1           0       15.537699   -1.547013   -2.023138
    124          1           0       15.667986    0.004915   -2.836285
    125          1           0       17.553640    0.893247    0.248061
    126          1           0       17.658822    0.778550   -1.502554
    127          1           0       17.765729   -1.724126   -1.329441
    128          1           0       17.657029   -1.607277    0.414868
    129          1           0       19.941043   -0.482778   -1.344480
    130          1           0       18.892572   -1.845716    2.016413
    131          1           0       20.401043   -1.228868    2.698345
    132          1           0       20.350808   -2.835189    1.987446
    133          1           0       22.023556   -0.391867   -0.544499
    134          6           0       22.719997   -2.256043    0.308763
    135          1           0       22.228240   -0.351120    1.200431
    136          6           0       24.166928   -1.959841    0.026270
    137          6           0       25.236670   -2.188685    0.799761
    138          6           0       26.622146   -1.807919    0.336314
    139          6           0       25.194065   -2.829294    2.164511
    140          1           0       22.320745   -2.891013   -0.492730
    141          1           0       22.608419   -2.822534    1.235245
    142          1           0       24.347378   -1.484413   -0.938008
    143          1           0       26.607043   -1.349295   -0.654443
    144          1           0       27.277959   -2.686043    0.296002
    145          1           0       27.089203   -1.101363    1.032959
    146          1           0       24.186019   -3.080666    2.492953
    147          1           0       25.636393   -2.162796    2.914297
    148          1           0       25.791169   -3.748955    2.175999
    149          8           0      -19.377710   -0.330918    3.309215
    150          8           0      -18.782279    1.924404    1.949823
    151          1           0      -18.429518   -3.380776   -1.290978
    152          1           0      -17.987549   -3.936372    0.328522
    153          1           0      -16.742563   -3.307518   -0.778240
 ---------------------------------------------------------------------

 SCF Done:  E(UB3LYP) =  -2604.07562865     A.U. after   19 cycles

 Alpha virt. eigenvalues --    0.50620   0.50753   0.50872   0.50943   0.51176
 Alpha virt. eigenvalues --    0.51308   0.51330   0.51652   0.51889   0.51936
 Alpha virt. eigenvalues --    0.52128   0.52252   0.52334   0.52470   0.52797

  Beta  occ. eigenvalues --  -19.13370 -19.13365 -19.06631 -19.06608 -10.21499
  Beta  occ. eigenvalues --  -10.21458 -10.21082 -10.21018 -10.20376 -10.20372
  Beta  occ. eigenvalues --  -10.17706 -10.17506 -10.17503 -10.17501 -10.17493
  Beta  occ. eigenvalues --  -10.17489 -10.17477 -10.17450 -10.17393 -10.17036
  Beta  occ. eigenvalues --  -10.16790 -10.16789 -10.16781 -10.16775 -10.16774
  Beta  occ. eigenvalues --  -10.16761 -10.16743 -10.16736 -10.16732 -10.16731
  Beta  occ. eigenvalues --  -10.16730 -10.16719 -10.16716 -10.16706 -10.16703
  Beta  occ. eigenvalues --  -10.16659 -10.16587 -10.16516 -10.16422 -10.16223
  Beta  occ. eigenvalues --  -10.16174 -10.16128 -10.16122 -10.16121 -10.16114
  Beta  occ. eigenvalues --  -10.16104 -10.16091 -10.16090 -10.16090 -10.16089
  Beta  occ. eigenvalues --  -10.16089 -10.16085 -10.16084 -10.16077 -10.16066
  Beta  occ. eigenvalues --  -10.16061 -10.16031 -10.16018 -10.15998 -10.15972
  Beta  occ. eigenvalues --  -10.15912 -10.15792 -10.15107  -1.05763  -1.03875
  Beta  occ. eigenvalues --   -0.98188  -0.97938  -0.83266  -0.83139  -0.82964
  Beta  occ. eigenvalues --   -0.82760  -0.82524  -0.82220  -0.81848  -0.81426
  Beta  occ. eigenvalues --   -0.80987  -0.80594  -0.80392  -0.77871  -0.77484
  Beta  occ. eigenvalues --   -0.77001  -0.76355  -0.75608  -0.74833  -0.74066
  Beta  occ. eigenvalues --   -0.73353  -0.72751  -0.72308  -0.72047  -0.70085
  Beta  occ. eigenvalues --   -0.69535  -0.69221  -0.68901  -0.68848  -0.68775
  Beta  occ. eigenvalues --   -0.68669  -0.68515  -0.68288  -0.67953  -0.67493
  Beta  occ. eigenvalues --   -0.66959  -0.66432  -0.64731  -0.63986  -0.63566
  Beta  occ. eigenvalues --   -0.63152  -0.62260  -0.61320  -0.60440  -0.59675
  Beta  occ. eigenvalues --   -0.59023  -0.58537  -0.58300  -0.55840  -0.55423
  Beta  occ. eigenvalues --   -0.52498  -0.52374  -0.52283  -0.52126  -0.51951
  Beta  occ. eigenvalues --   -0.51801  -0.51595  -0.51397  -0.51230  -0.51152
  Beta  occ. eigenvalues --   -0.50747  -0.49199  -0.48332  -0.47988  -0.47978
  Beta  occ. eigenvalues --   -0.47856  -0.47846  -0.47716  -0.47610  -0.47380
  Beta  occ. eigenvalues --   -0.46979  -0.46383  -0.46231  -0.46108  -0.45010
  Beta  occ. eigenvalues --   -0.44697  -0.44477  -0.44238  -0.44147  -0.43892
  Beta  occ. eigenvalues --   -0.43734  -0.43620  -0.43562  -0.43434  -0.43333
  Beta  occ. eigenvalues --   -0.43124  -0.43083  -0.43030  -0.42339  -0.42203
  Beta  occ. eigenvalues --   -0.42005  -0.41704  -0.41531  -0.41379  -0.41231
  Beta  occ. eigenvalues --   -0.40988  -0.40922  -0.40832  -0.40713  -0.40364
  Beta  occ. eigenvalues --   -0.40336  -0.40233  -0.40115  -0.40031  -0.39857
  Beta  occ. eigenvalues --   -0.39784  -0.39436  -0.39192  -0.39110  -0.38620
  Beta  occ. eigenvalues --   -0.38480  -0.38075  -0.37420  -0.37402  -0.37338
  Beta  occ. eigenvalues --   -0.37305  -0.37242  -0.37207  -0.37179  -0.37088
  Beta  occ. eigenvalues --   -0.37065  -0.36995  -0.36928  -0.36898  -0.36749
  Beta  occ. eigenvalues --   -0.36633  -0.36604  -0.36423  -0.36372  -0.36123
  Beta  occ. eigenvalues --   -0.35944  -0.35767  -0.35666  -0.35523  -0.35356
  Beta  occ. eigenvalues --   -0.35003  -0.34800  -0.34418  -0.34323  -0.34204
  Beta  occ. eigenvalues --   -0.34062  -0.33808  -0.33685  -0.33609  -0.33474
  Beta  occ. eigenvalues --   -0.33410  -0.33074  -0.32926  -0.32890  -0.32862
  Beta  occ. eigenvalues --   -0.32710  -0.32631  -0.32325  -0.31882  -0.31434
  Beta  occ. eigenvalues --   -0.31087  -0.30890  -0.29279  -0.27825  -0.25367
  Beta  occ. eigenvalues --   -0.25212  -0.24893  -0.24521  -0.24223  -0.23912
  Beta  occ. eigenvalues --   -0.23619  -0.23368  -0.23200  -0.22970  -0.22761
  Beta  occ. eigenvalues --   -0.22474  -0.22169  -0.21238
  Beta virt. eigenvalues --   -0.08462  -0.01053  -0.00985  -0.00805  -0.00613
  Beta virt. eigenvalues --   -0.00319   0.00032   0.00091   0.00168   0.00189
  Beta virt. eigenvalues --    0.00342   0.00369   0.00389   0.00463   0.00491

 Mulliken charges and spin densities:
               1          2
     1  C   -0.655561   0.092861
     2  C    0.657161   0.081508
     3  C    0.898693   0.077237
     4  C   -0.365861   0.101687
     5  C   -0.125139   0.076583
     6  C   -0.489593   0.061473
     7  O   -0.486712   0.243658
     8  O   -0.468573   0.238881
     9  C   -0.281954   0.003406
    10  C   -0.269149   0.002342
    11  C   -0.625492   0.003294
    12  H    0.157272   0.000460
    13  H    0.123161  -0.000070
    14  H    0.169607  -0.000480
    15  H    0.157100   0.000380
    16  H    0.160710  -0.000600
    17  H    0.125990   0.000153
    18  C    0.212239   0.010693
    19  C   -0.742141  -0.001175
    20  C    0.676957   0.001397
    21  C   -0.581000   0.000261
    22  C   -0.172429   0.000202
    23  C   -0.370739   0.000010
    24  C    0.629341   0.000164
    25  C   -0.614584  -0.000028
    26  C   -0.296538   0.000062
    27  C   -0.339777  -0.000006
    28  C    0.604662  -0.000017
    29  C   -0.382000   0.000001
    30  C   -0.736654  -0.001593
    31  C   -0.750261  -0.000023
    32  C   -0.715468  -0.000002
    33  C   -0.370066  -0.000002
    34  C   -0.349320  -0.000001
    35  C    0.555615   0.000002
    36  C   -0.413760   0.000001
    37  C   -0.279779  -0.000000
    38  C   -0.327178   0.000000
    39  C    0.519240   0.000000
    40  C   -0.423167  -0.000000
    41  C   -0.274812   0.000000
    42  C   -0.398580  -0.000000
    43  C    0.564528   0.000000
    44  C   -0.409661  -0.000000
    45  C   -0.218764   0.000000
    46  C   -0.357967  -0.000000
    47  C    0.589649  -0.000000
    48  C   -0.697317   0.000000
    49  C   -0.720391   0.000000
    50  C   -0.708844   0.000000
    51  C   -0.722323  -0.000000
    52  C   -0.560711  -0.000000
    53  C   -0.321629   0.000000
    54  C   -0.342793  -0.000000
    55  C    0.684646   0.000000
    56  C   -0.721415  -0.000000
    57  C   -0.497772  -0.000000
    58  C   -0.369487  -0.000000
    59  C   -0.140694   0.000000
    60  C    0.698310  -0.000000
    61  C   -0.750620  -0.000000
    62  C   -0.774256  -0.000000
    63  H    0.196493   0.002204
    64  H    0.189017   0.000178
    65  H    0.230669  -0.001530
    66  H    0.127168  -0.000296
    67  H    0.146134   0.000006
    68  H    0.133586  -0.000031
    69  H    0.122089  -0.000125
    70  H    0.195814  -0.000007
    71  H    0.161925   0.000004
    72  H    0.141334  -0.000001
    73  H    0.133218   0.000000
    74  H    0.148391   0.000001
    75  H    0.202752   0.000002
    76  H    0.155262   0.000000
    77  H    0.161716   0.000000
    78  H    0.116090   0.000005
    79  H    0.160742   0.000157
    80  H    0.161341  -0.000032
    81  H    0.137252   0.000080
    82  H    0.170393   0.000007
    83  H    0.160658   0.000005
    84  H    0.130874   0.000001
    85  H    0.163087   0.000000
    86  H    0.174350  -0.000000
    87  H    0.129922  -0.000000
    88  H    0.134012  -0.000000
    89  H    0.183742  -0.000000
    90  H    0.138748  -0.000000
    91  H    0.173604   0.000000
    92  H    0.133703  -0.000000
    93  H    0.128320   0.000000
    94  H    0.193413  -0.000000
    95  H    0.140449  -0.000000
    96  H    0.167979   0.000000
    97  H    0.127646   0.000000
    98  H    0.128586  -0.000000
    99  H    0.188782   0.000000
   100  H    0.136765  -0.000000
   101  H    0.170896   0.000000
   102  H    0.130015   0.000000
   103  H    0.126636  -0.000000
   104  H    0.201782   0.000000
   105  H    0.130705   0.000000
   106  H    0.161644  -0.000000
   107  H    0.169031  -0.000000
   108  H    0.132013  -0.000000
   109  H    0.162184   0.000000
   110  H    0.169510   0.000000
   111  H    0.134126   0.000000
   112  H    0.162405  -0.000000
   113  H    0.169554   0.000000
   114  H    0.135177   0.000000
   115  H    0.160901  -0.000000
   116  H    0.168949  -0.000000
   117  H    0.142034  -0.000000
   118  H    0.159972  -0.000000
   119  H    0.138020   0.000000
   120  H    0.134220  -0.000000
   121  H    0.206548   0.000000
   122  H    0.131732   0.000000
   123  H    0.172758   0.000000
   124  H    0.162161  -0.000000
   125  H    0.151834   0.000000
   126  H    0.157149   0.000000
   127  H    0.143745  -0.000000
   128  H    0.140601  -0.000000
   129  H    0.200993   0.000000
   130  H    0.120993   0.000000
   131  H    0.158321   0.000000
   132  H    0.173965  -0.000000
   133  H    0.146964  -0.000000
   134  C   -0.309456   0.000000
   135  H    0.177960  -0.000000
   136  C   -0.029355  -0.000000
   137  C    0.402878   0.000000
   138  C   -0.626334  -0.000000
   139  C   -0.675680  -0.000000
   140  H    0.171551   0.000000
   141  H    0.115232  -0.000000
   142  H    0.165269  -0.000000
   143  H    0.156216   0.000000
   144  H    0.144908   0.000000
   145  H    0.150708  -0.000000
   146  H    0.135596  -0.000000
   147  H    0.150699   0.000000
   148  H    0.146984   0.000000
   149  O   -0.208991   0.000426
   150  O   -0.213670   0.000389
   151  H    0.178768   0.004922
   152  H    0.175966  -0.002020
   153  H    0.173237   0.002940
 Sum of Mulliken charges =  -1.00000   1.00000

 Dipole moment (field-independent basis, Debye):
    X=             90.7810    Y=              0.9804    Z=             -3.4329  Tot=             90.8512
 Quadrupole moment (field-independent basis, Debye-Ang):
   XX=          -2105.1516   YY=           -427.4885   ZZ=           -402.6456
   XY=            -38.1151   XZ=             99.2827   YZ=             14.2873

 Normal termination of Gaussian 16 at Sun Jan 28 06:38:14 2024.
