 Gaussian 16, Revision A.03,
 Gaussian 16:  ES64L-G16RevA.03 25-Dec-2016

 ----------------------------------------------------------------------
 #P UB3LYP/6-311++G(d,p) nosym opt freq SCRF=(PCM,Solvent=n,n-DiMethylF
 ormamide)
 ----------------------------------------------------------------------

 -------
 Radical
 -------
 Symbolic Z-matrix:
 Charge = -1 Multiplicity = 2

 SCF Done:  E(UB3LYP) =  -728.624445907     A.U. after   20 cycles
 SCF Done:  E(UB3LYP) =  -728.624960898     A.U. after   15 cycles
 SCF Done:  E(UB3LYP) =  -728.625072226     A.U. after   16 cycles
 SCF Done:  E(UB3LYP) =  -728.625085831     A.U. after   14 cycles
 SCF Done:  E(UB3LYP) =  -728.625091974     A.U. after   11 cycles
 SCF Done:  E(UB3LYP) =  -728.625094330     A.U. after   12 cycles
 SCF Done:  E(UB3LYP) =  -728.625095045     A.U. after   10 cycles
 SCF Done:  E(UB3LYP) =  -728.625095452     A.U. after   11 cycles
 SCF Done:  E(UB3LYP) =  -728.625095597     A.U. after   10 cycles
 Optimization completed.
    -- Stationary point found.
 Normal termination of Gaussian 16 at Sun Feb 11 01:40:17 2024.

 ----------------------------------------------------------------------
 #P Geom=AllCheck Guess=TCheck SCRF=Check GenChk UB3LYP/6-311++G(d,p) F
 req
 ----------------------------------------------------------------------

 Structure from the checkpoint file:  "267-rad.chk"
 -------
 Radical
 -------
 Charge = -1 Multiplicity = 2

                          Input orientation:
 ---------------------------------------------------------------------
 Center     Atomic      Atomic             Coordinates (Angstroms)
 Number     Number       Type             X           Y           Z
 ---------------------------------------------------------------------
      1          6           0       -1.249510    2.737834   -0.510695
      2          6           0       -2.528274    2.215893   -0.436346
      3          6           0       -2.728540    0.903298    0.032852
      4          6           0       -0.125395    1.975714   -0.122516
      5          6           0       -0.330476    0.650754    0.351706
      6          6           0       -1.640684    0.139192    0.419005
      7          6           0        1.212914    2.563322   -0.216237
      8          6           0        2.312897    1.710815    0.205679
      9          6           0        2.107626    0.421162    0.663115
     10          6           0        0.812118   -0.176808    0.766042
     11          8           0        1.399598    3.743255   -0.636784
     12          8           0        0.653280   -1.361208    1.190465
     13          1           0       -1.083880    3.746371   -0.870052
     14          1           0       -1.774189   -0.872837    0.782929
     15          8           0        3.531355    2.312752    0.116125
     16          1           0       -3.378364    2.817762   -0.739706
     17          1           0       -3.731431    0.494355    0.090964
     18          1           0        2.938335   -0.203859    0.964151
     19          6           0        4.743712    1.603710    0.469693
     20          6           0        5.769968    2.676702    0.806307
     21          6           0        5.192106    0.703205   -0.678778
     22          1           0        4.549622    1.005941    1.365425
     23          1           0        6.714118    2.211316    1.099791
     24          1           0        5.421132    3.300566    1.632088
     25          1           0        5.956094    3.316618   -0.060596
     26          1           0        6.097873    0.160512   -0.395366
     27          1           0        5.414151    1.304746   -1.564667
     28          1           0        4.426051   -0.028772   -0.940244
 ---------------------------------------------------------------------

 SCF Done:  E(UB3LYP) =  -728.625095597     A.U. after    2 cycles

 Alpha  occ. eigenvalues --  -19.14803 -19.07491 -19.07082 -10.23058 -10.22823
 Alpha  occ. eigenvalues --  -10.22182 -10.21968 -10.17293 -10.17162 -10.17088
 Alpha  occ. eigenvalues --  -10.17065 -10.16915 -10.16868 -10.16052 -10.16034
 Alpha  occ. eigenvalues --  -10.15510  -1.06301  -0.99355  -0.99134  -0.85648
 Alpha  occ. eigenvalues --   -0.80980  -0.78250  -0.74878  -0.73386  -0.69356
 Alpha  occ. eigenvalues --   -0.67742  -0.62719  -0.61802  -0.57820  -0.56132
 Alpha  occ. eigenvalues --   -0.52425  -0.51269  -0.49152  -0.46236  -0.46056
 Alpha  occ. eigenvalues --   -0.44474  -0.43688  -0.42337  -0.41817  -0.41094
 Alpha  occ. eigenvalues --   -0.40491  -0.39788  -0.39216  -0.38909  -0.38017
 Alpha  occ. eigenvalues --   -0.37066  -0.36420  -0.35136  -0.35118  -0.33846
 Alpha  occ. eigenvalues --   -0.32519  -0.32093  -0.26401  -0.25555  -0.24338
 Alpha  occ. eigenvalues --   -0.23737  -0.23378  -0.14824
 Alpha virt. eigenvalues --   -0.03263  -0.00994  -0.00368   0.00350   0.01335
 Alpha virt. eigenvalues --    0.01921   0.02159   0.02381   0.04003   0.04159
 Alpha virt. eigenvalues --    0.04481   0.04714   0.05112   0.05429   0.05992

  Beta  occ. eigenvalues --  -19.14712 -19.06809 -19.06550 -10.23061 -10.22659
  Beta  occ. eigenvalues --  -10.22041 -10.21741 -10.17261 -10.17148 -10.17014
  Beta  occ. eigenvalues --  -10.16994 -10.16923 -10.16837 -10.16052 -10.16029
  Beta  occ. eigenvalues --  -10.15464  -1.06080  -0.98313  -0.98045  -0.85427
  Beta  occ. eigenvalues --   -0.80665  -0.78042  -0.74678  -0.73215  -0.69342
  Beta  occ. eigenvalues --   -0.66917  -0.62490  -0.61637  -0.57616  -0.55898
  Beta  occ. eigenvalues --   -0.52271  -0.51085  -0.48895  -0.46007  -0.45889
  Beta  occ. eigenvalues --   -0.44255  -0.43495  -0.42260  -0.41152  -0.40458
  Beta  occ. eigenvalues --   -0.39971  -0.39554  -0.39067  -0.38785  -0.37449
  Beta  occ. eigenvalues --   -0.36477  -0.35057  -0.34879  -0.34528  -0.33740
  Beta  occ. eigenvalues --   -0.32146  -0.31104  -0.24878  -0.24419  -0.23750
  Beta  occ. eigenvalues --   -0.23194  -0.22433
  Beta virt. eigenvalues --   -0.08231  -0.02526  -0.00385   0.00119   0.00380
  Beta virt. eigenvalues --    0.01353   0.01960   0.02177   0.02391   0.04010
  Beta virt. eigenvalues --    0.04185   0.04508   0.05024   0.05149   0.05848

 Mulliken charges and spin densities:
               1          2
     1  C    0.160880   0.067262
     2  C   -0.429850   0.006861
     3  C   -0.351387   0.054634
     4  C    0.152795  -0.002313
     5  C    0.520981   0.062171
     6  C    0.119754   0.005635
     7  C   -0.455356   0.135316
     8  C   -0.439795   0.131824
     9  C    0.013496   0.003825
    10  C   -0.285684   0.078308
    11  O   -0.498661   0.257471
    12  O   -0.502166   0.190620
    13  H    0.161163  -0.003701
    14  H    0.157763  -0.000726
    15  O   -0.055854   0.019583
    16  H    0.180656  -0.001213
    17  H    0.181021  -0.003859
    18  H    0.221087  -0.005720
    19  C   -0.012246   0.002041
    20  C   -0.504467   0.000332
    21  C   -0.397321   0.001438
    22  H    0.136397   0.000035
    23  H    0.162434  -0.000034
    24  H    0.155922   0.000132
    25  H    0.149036   0.000014
    26  H    0.151988   0.001134
    27  H    0.166378   0.000115
    28  H    0.141036  -0.001184
 Sum of Mulliken charges =  -1.00000   1.00000

 Dipole moment (field-independent basis, Debye):
    X=             -2.8920    Y=             -6.6941    Z=             -0.8747  Tot=              7.3444
 Quadrupole moment (field-independent basis, Debye-Ang):
   XX=            -85.7794   YY=           -143.0573   ZZ=           -104.0803
   XY=            -12.6961   XZ=              3.9149   YZ=             10.4761

  Exact polarizability: 342.020  15.433 297.400  11.177 -54.772 163.752
 Approx polarizability: 348.607  21.712 349.103   9.055 -69.173 184.714

                      1                      2                      3
                      A                      A                      A
 Frequencies --     36.4801                69.7812                95.6291
 Red. masses --      4.3467                 2.8766                 6.3102
 Frc consts  --      0.0034                 0.0083                 0.0340
 IR Inten    --      9.7495                 0.0831                 8.8465

                      4                      5                      6
                      A                      A                      A
 Frequencies --    123.2987               132.6468               177.6972
 Red. masses --      3.6203                 4.4595                 7.6430
 Frc consts  --      0.0324                 0.0462                 0.1422
 IR Inten    --      6.8364                 0.3764                 5.3437

                      7                      8                      9
                      A                      A                      A
 Frequencies --    209.3724               232.5953               241.3897
 Red. masses --      1.0366                 4.9156                 1.3361
 Frc consts  --      0.0268                 0.1567                 0.0459
 IR Inten    --      0.2252                 1.4740                 2.3600

                     10                     11                     12
                      A                      A                      A
 Frequencies --    252.4372               275.3483               343.5974
 Red. masses --      2.6933                 4.9984                 3.8376
 Frc consts  --      0.1011                 0.2233                 0.2669
 IR Inten    --      2.8053                 2.5375                 1.9514

                     13                     14                     15
                      A                      A                      A
 Frequencies --    371.7779               397.4754               405.6768
 Red. masses --     10.3655                 3.3192                 3.5215
 Frc consts  --      0.8441                 0.3090                 0.3415
 IR Inten    --     25.1869                 0.6523                 0.2392

                     16                     17                     18
                      A                      A                      A
 Frequencies --    443.3205               462.8713               472.5500
 Red. masses --      3.6921                 3.8517                 7.3192
 Frc consts  --      0.4275                 0.4862                 0.9630
 IR Inten    --      2.1742                 5.4331                 6.1794

                     19                     20                     21
                      A                      A                      A
 Frequencies --    488.2734               517.5651               571.3048
 Red. masses --      5.4846                 3.7911                 6.0919
 Frc consts  --      0.7704                 0.5983                 1.1715
 IR Inten    --      4.7177                 8.3845                 0.2562

                     22                     23                     24
                      A                      A                      A
 Frequencies --    657.7337               658.7578               697.4545
 Red. masses --      5.4983                 3.4559                 6.0252
 Frc consts  --      1.4015                 0.8836                 1.7268
 IR Inten    --     15.9796                 3.6997                10.1699

                     25                     26                     27
                      A                      A                      A
 Frequencies --    716.5768               722.3677               772.5522
 Red. masses --      3.2706                 6.2206                 3.2205
 Frc consts  --      0.9895                 1.9125                 1.1325
 IR Inten    --     40.0666                15.9841                23.7673

                     28                     29                     30
                      A                      A                      A
 Frequencies --    784.4067               818.9887               834.8732
 Red. masses --      1.9197                 3.7187                 1.6471
 Frc consts  --      0.6959                 1.4696                 0.6764
 IR Inten    --     72.6967                10.5088                38.9701

                     31                     32                     33
                      A                      A                      A
 Frequencies --    854.1353               884.3521               910.9720
 Red. masses --      3.3411                 1.4038                 2.8196
 Frc consts  --      1.4361                 0.6469                 1.3786
 IR Inten    --     26.5975                 0.0005                24.7998

                     34                     35                     36
                      A                      A                      A
 Frequencies --    936.9464               950.2307               984.6974
 Red. masses --      1.3248                 1.3261                 1.3652
 Frc consts  --      0.6852                 0.7055                 0.7799
 IR Inten    --      0.4132                 1.3504                 2.8956

                     37                     38                     39
                      A                      A                      A
 Frequencies --    999.2565              1017.3959              1047.8372
 Red. masses --      1.2821                 5.3778                 2.0951
 Frc consts  --      0.7543                 3.2797                 1.3554
 IR Inten    --      0.0100               246.7443                11.7881

                     40                     41                     42
                      A                      A                      A
 Frequencies --   1102.0323              1127.3094              1144.2567
 Red. masses --      2.6919                 1.9825                 1.6940
 Frc consts  --      1.9262                 1.4844                 1.3068
 IR Inten    --     12.1090               276.9776                15.5821

                     43                     44                     45
                      A                      A                      A
 Frequencies --   1150.6871              1162.9718              1191.7289
 Red. masses --      2.0483                 1.4370                 1.9859
 Frc consts  --      1.5979                 1.1451                 1.6617
 IR Inten    --     18.0128                 1.2930                30.0057

                     46                     47                     48
                      A                      A                      A
 Frequencies --   1202.9795              1231.8323              1249.1520
 Red. masses --      3.3137                 2.4095                 2.4572
 Frc consts  --      2.8254                 2.1541                 2.2590
 IR Inten    --    543.0809               204.0025               114.4552

                     49                     50                     51
                      A                      A                      A
 Frequencies --   1301.8431              1352.3350              1361.7201
 Red. masses --      1.9437                 8.5590                 1.3150
 Frc consts  --      1.9409                 9.2224                 1.4366
 IR Inten    --     21.9781                38.8545                41.1664

                     52                     53                     54
                      A                      A                      A
 Frequencies --   1377.5871              1397.8037              1407.2309
 Red. masses --      1.3140                 1.3634                 1.8969
 Frc consts  --      1.4692                 1.5696                 2.2132
 IR Inten    --     46.6612                23.8894                84.0307

                     55                     56                     57
                      A                      A                      A
 Frequencies --   1413.1033              1453.4536              1468.3714
 Red. masses --      1.5966                 4.1420                 2.5467
 Frc consts  --      1.8784                 5.1555                 3.2352
 IR Inten    --     18.2905               851.9159                40.3688

                     58                     59                     60
                      A                      A                      A
 Frequencies --   1473.7913              1478.7699              1483.7700
 Red. masses --      1.0581                 1.0511                 1.0585
 Frc consts  --      1.3541                 1.3543                 1.3730
 IR Inten    --      4.6466                 0.8260                 2.4331

                     61                     62                     63
                      A                      A                      A
 Frequencies --   1496.4215              1500.3228              1514.6649
 Red. masses --      2.5351                 1.4928                 4.6049
 Frc consts  --      3.3446                 1.9798                 6.2244
 IR Inten    --    184.4607                46.9018              1089.7659

                     64                     65                     66
                      A                      A                      A
 Frequencies --   1545.7322              1610.6334              1626.8077
 Red. masses --      4.5424                 7.6629                 5.8791
 Frc consts  --      6.3945                11.7121                 9.1671
 IR Inten    --    105.4063                59.8211                19.3985

                     67                     68                     69
                      A                      A                      A
 Frequencies --   3028.9977              3033.0454              3036.6211
 Red. masses --      1.0352                 1.0435                 1.0759
 Frc consts  --      5.5960                 5.6560                 5.8454
 IR Inten    --     25.9473                30.0562                29.7945

                     70                     71                     72
                      A                      A                      A
 Frequencies --   3093.5663              3101.3418              3104.7621
 Red. masses --      1.1025                 1.1016                 1.1025
 Frc consts  --      6.2163                 6.2427                 6.2617
 IR Inten    --      5.4350                85.2998                41.3082

                     73                     74                     75
                      A                      A                      A
 Frequencies --   3109.6837              3157.7084              3171.3436
 Red. masses --      1.1013                 1.0858                 1.0897
 Frc consts  --      6.2747                 6.3790                 6.4573
 IR Inten    --     42.5143                 9.7418                18.3928

                     76                     77                     78
                      A                      A                      A
 Frequencies --   3185.0469              3190.0387              3193.2986
 Red. masses --      1.0926                 1.0943                 1.0884
 Frc consts  --      6.5302                 6.5613                 6.5393
 IR Inten    --     26.3293                38.4217                17.6707

 - Thermochemistry -
 -------------------
 Temperature   298.150 Kelvin.  Pressure   1.00000 Atm.
 Atom     1 has atomic number  6 and mass  12.00000

 Molecular mass:   216.07864 amu.
 Principal axes and moments of inertia in atomic units:
                           1         2         3
     Eigenvalues --  1642.920895458.601466822.42398
           X            0.99465  -0.08641  -0.05665
           Y            0.09945   0.94939   0.29795
           Z            0.02804  -0.30199   0.95290
 This molecule is an asymmetric top.
 Rotational symmetry number  1.
 Warning -- assumption of classical behavior for rotation
           may cause significant error
 Rotational temperatures (Kelvin)      0.05272     0.01587     0.01270
 Rotational constants (GHZ):           1.09850     0.33062     0.26453
 Zero-point vibrational energy     573031.5 (Joules/Mol)
                                  136.95782 (Kcal/Mol)
 Warning -- explicit consideration of  21 degrees of freedom as
           vibrations may cause significant error
 Vibrational temperatures:     52.49   100.40   137.59   177.40   190.85
          (Kelvin)            255.67   301.24   334.65   347.31   363.20
                              396.16   494.36   534.91   571.88   583.68
                              637.84   665.97   679.89   702.52   744.66
                              821.98   946.33   947.81  1003.48  1030.99
                             1039.33  1111.53  1128.59  1178.34  1201.20
                             1228.91  1272.39  1310.69  1348.06  1367.17
                             1416.76  1437.71  1463.81  1507.60  1585.58
                             1621.95  1646.33  1655.58  1673.26  1714.63
                             1730.82  1772.33  1797.25  1873.06  1945.71
                             1959.21  1982.04  2011.13  2024.69  2033.14
                             2091.20  2112.66  2120.46  2127.62  2134.81
                             2153.02  2158.63  2179.27  2223.96  2317.34
                             2340.61  4358.05  4363.88  4369.02  4450.95
                             4462.14  4467.06  4474.14  4543.24  4562.86
                             4582.57  4589.75  4594.44

 Zero-point correction=                           0.218256 (Hartree/Particle)
 Thermal correction to Energy=                    0.232237
 Thermal correction to Enthalpy=                  0.233181
 Thermal correction to Gibbs Free Energy=         0.176762
 Sum of electronic and zero-point Energies=           -728.406839
 Sum of electronic and thermal Energies=              -728.392859
 Sum of electronic and thermal Enthalpies=            -728.391915
 Sum of electronic and thermal Free Energies=         -728.448334

                     E (Thermal)             CV                S
                      KCal/Mol        Cal/Mol-Kelvin    Cal/Mol-Kelvin
 Total                  145.731             54.495            118.744
 Electronic               0.000              0.000              1.377
 Translational            0.889              2.981             42.015
 Rotational               0.889              2.981             32.481
 Vibrational            143.953             48.533             42.871
 Vibration     1          0.594              1.982              5.442
 Vibration     2          0.598              1.969              4.160
 Vibration     3          0.603              1.952              3.542
 Vibration     4          0.610              1.930              3.048
 Vibration     5          0.613              1.921              2.907
 Vibration     6          0.628              1.870              2.352
 Vibration     7          0.642              1.826              2.049
 Vibration     8          0.653              1.791              1.859
 Vibration     9          0.658              1.777              1.793
 Vibration    10          0.664              1.759              1.713
 Vibration    11          0.677              1.719              1.562
 Vibration    12          0.722              1.588              1.195
 Vibration    13          0.743              1.530              1.072
 Vibration    14          0.764              1.476              0.972
 Vibration    15          0.771              1.458              0.942
 Vibration    16          0.803              1.376              0.816
 Vibration    17          0.821              1.332              0.758
 Vibration    18          0.829              1.311              0.730
 Vibration    19          0.844              1.276              0.688
 Vibration    20          0.873              1.211              0.616
 Vibration    21          0.927              1.093              0.502

 Optimization completed.
    -- Stationary point found.
 Normal termination of Gaussian 16 at Sun Feb 11 02:11:42 2024.
