 Gaussian 16, Revision A.03,
 Gaussian 16:  ES64L-G16RevA.03 25-Dec-2016

 ----------------------------------------------------------------------
 #P UB3LYP/6-311++G(d,p) nosym opt freq SCRF=(PCM,Solvent=n,n-DiMethylF
 ormamide)
 ----------------------------------------------------------------------

 -------
 Radical
 -------
 Symbolic Z-matrix:
 Charge = -1 Multiplicity = 2

 SCF Done:  E(UB3LYP) =  -744.475799047     A.U. after   19 cycles
 SCF Done:  E(UB3LYP) =  -744.476045448     A.U. after   15 cycles
 SCF Done:  E(UB3LYP) =  -744.476158415     A.U. after   15 cycles
 SCF Done:  E(UB3LYP) =  -744.476180565     A.U. after   14 cycles
 SCF Done:  E(UB3LYP) =  -744.476199819     A.U. after   13 cycles
 SCF Done:  E(UB3LYP) =  -744.476207054     A.U. after   13 cycles
 SCF Done:  E(UB3LYP) =  -744.476210354     A.U. after   11 cycles
 SCF Done:  E(UB3LYP) =  -744.476211904     A.U. after   10 cycles
 SCF Done:  E(UB3LYP) =  -744.476212255     A.U. after   10 cycles
 Optimization completed.
    -- Stationary point found.
 Normal termination of Gaussian 16 at Sat Feb 10 16:43:46 2024.

 ----------------------------------------------------------------------
 #P Geom=AllCheck Guess=TCheck SCRF=Check GenChk UB3LYP/6-311++G(d,p) F
 req
 ----------------------------------------------------------------------

 Structure from the checkpoint file:  "150-rad.chk"
 -------
 Radical
 -------
 Charge = -1 Multiplicity = 2

                          Input orientation:
 ---------------------------------------------------------------------
 Center     Atomic      Atomic             Coordinates (Angstroms)
 Number     Number       Type             X           Y           Z
 ---------------------------------------------------------------------
      1          7           0       -2.929540    1.873243    0.134143
      2          6           0       -2.528484    0.556479    0.082381
      3          6           0       -3.494627   -0.456429    0.040704
      4          6           0       -3.124708   -1.799236   -0.079070
      5          6           0       -1.791140   -2.158302   -0.159901
      6          6           0       -0.781289   -1.175750   -0.106791
      7          6           0        0.611722   -1.614808   -0.184354
      8          8           0        0.914998   -2.837974   -0.305661
      9          6           0        1.637802   -0.583019   -0.113081
     10          6           0        3.004251   -0.940277   -0.192952
     11          6           0        3.999116    0.013849   -0.120795
     12          6           0        3.658417    1.374583    0.037566
     13          6           0        2.330676    1.746530    0.117919
     14          6           0        1.294040    0.788696    0.043033
     15          6           0       -0.098267    1.229516    0.126598
     16          8           0       -0.358808    2.465902    0.287200
     17          6           0       -1.131568    0.210540    0.025975
     18          1           0       -3.867560    2.061130    0.453055
     19          1           0       -2.193565    2.537833    0.356827
     20          1           0       -4.543237   -0.180802    0.092055
     21          1           0       -3.896564   -2.561485   -0.111972
     22          1           0       -1.494041   -3.193760   -0.260273
     23          1           0        3.248379   -1.988983   -0.312211
     24          1           0        5.041533   -0.279402   -0.185041
     25          1           0        4.438967    2.125556    0.095064
     26          1           0        2.053499    2.786373    0.239582
 ---------------------------------------------------------------------

 SCF Done:  E(UB3LYP) =  -744.476212255     A.U. after    1 cycles

 Alpha  occ. eigenvalues --  -19.07678 -19.07091 -14.30657 -10.22697 -10.21953
 Alpha  occ. eigenvalues --  -10.21721 -10.17236 -10.17186 -10.17183 -10.17122
 Alpha  occ. eigenvalues --  -10.17083 -10.17077 -10.16967 -10.16916 -10.16892
 Alpha  occ. eigenvalues --  -10.16089 -10.15572  -1.00122  -0.99353  -0.91434
 Alpha  occ. eigenvalues --   -0.85689  -0.83523  -0.78211  -0.74931  -0.73738
 Alpha  occ. eigenvalues --   -0.72768  -0.66425  -0.63610  -0.61975  -0.58399
 Alpha  occ. eigenvalues --   -0.55742  -0.54421  -0.52521  -0.49871  -0.47613
 Alpha  occ. eigenvalues --   -0.47045  -0.45661  -0.44428  -0.43748  -0.42273
 Alpha  occ. eigenvalues --   -0.42225  -0.41046  -0.40530  -0.39437  -0.38180
 Alpha  occ. eigenvalues --   -0.37320  -0.37151  -0.35573  -0.34399  -0.34324
 Alpha  occ. eigenvalues --   -0.33414  -0.30865  -0.26625  -0.25569  -0.24726
 Alpha  occ. eigenvalues --   -0.24558  -0.23574  -0.21045  -0.13872
 Alpha virt. eigenvalues --   -0.04796  -0.02004  -0.00272   0.00429   0.00525
 Alpha virt. eigenvalues --    0.01089   0.02110   0.02217   0.04035   0.04365
 Alpha virt. eigenvalues --    0.04458   0.04479   0.05300   0.06004   0.06488

  Beta  occ. eigenvalues --  -19.07187 -19.06540 -14.30637 -10.22518 -10.21757
  Beta  occ. eigenvalues --  -10.21728 -10.17223 -10.17149 -10.17095 -10.17066
  Beta  occ. eigenvalues --  -10.17009 -10.17008 -10.16936 -10.16923 -10.16877
  Beta  occ. eigenvalues --  -10.15979 -10.15521  -0.99268  -0.98368  -0.91354
  Beta  occ. eigenvalues --   -0.85455  -0.83360  -0.77828  -0.74712  -0.73558
  Beta  occ. eigenvalues --   -0.72533  -0.65709  -0.63434  -0.61736  -0.58323
  Beta  occ. eigenvalues --   -0.55528  -0.54209  -0.52383  -0.49779  -0.47405
  Beta  occ. eigenvalues --   -0.46774  -0.45570  -0.44328  -0.43639  -0.42229
  Beta  occ. eigenvalues --   -0.41120  -0.40738  -0.40159  -0.39205  -0.37427
  Beta  occ. eigenvalues --   -0.37031  -0.35524  -0.35491  -0.34251  -0.33376
  Beta  occ. eigenvalues --   -0.33182  -0.30197  -0.24899  -0.24629  -0.24228
  Beta  occ. eigenvalues --   -0.24103  -0.23081  -0.20222
  Beta virt. eigenvalues --   -0.08207  -0.03811  -0.00993  -0.00257   0.00443
  Beta virt. eigenvalues --    0.00830   0.01099   0.02123   0.02217   0.04052
  Beta virt. eigenvalues --    0.04376   0.04476   0.04577   0.05880   0.06343

 Mulliken charges and spin densities:
               1          2
     1  N   -0.408101   0.008545
     2  C    0.171184   0.016818
     3  C   -0.236890   0.094159
     4  C   -0.432550   0.027129
     5  C   -0.060651   0.069260
     6  C    0.466929   0.036705
     7  C   -0.521101   0.111560
     8  O   -0.475023   0.206513
     9  C    0.022185   0.016014
    10  C    0.074203   0.036671
    11  C   -0.431231   0.025689
    12  C   -0.485141   0.047359
    13  C    0.158810   0.022559
    14  C    0.087857   0.037043
    15  C   -0.408385   0.094962
    16  O   -0.468102   0.179826
    17  C    0.188606  -0.005545
    18  H    0.268642  -0.000676
    19  H    0.307421  -0.002542
    20  H    0.159234  -0.006720
    21  H    0.181881  -0.002166
    22  H    0.152703  -0.004361
    23  H    0.161983  -0.002212
    24  H    0.178888  -0.002331
    25  H    0.178606  -0.003790
    26  H    0.168042  -0.000471
 Sum of Mulliken charges =  -1.00000   1.00000

 Dipole moment (field-independent basis, Debye):
    X=             -2.1673    Y=              2.9417    Z=              1.0818  Tot=              3.8107
 Quadrupole moment (field-independent basis, Debye-Ang):
   XX=            -94.4664   YY=           -130.9993   ZZ=           -107.2558
   XY=              4.6616   XZ=             -2.6034   YZ=             -0.8318

  Exact polarizability: 474.354  15.034 367.865  -6.773  20.709 137.275
 Approx polarizability: 484.892   6.454 438.769  -7.681  25.906 156.656

                      1                      2                      3
                      A                      A                      A
 Frequencies --     55.4340                85.3285               132.9327
 Red. masses --      6.8002                 5.0848                 5.1039
 Frc consts  --      0.0123                 0.0218                 0.0531
 IR Inten    --     14.8861                 0.2467                 0.1195

                      4                      5                      6
                      A                      A                      A
 Frequencies --    166.4310               205.8993               222.9387
 Red. masses --      7.3360                 4.4336                 4.8098
 Frc consts  --      0.1197                 0.1107                 0.1408
 IR Inten    --      2.3839                 0.8457                15.5459

                      7                      8                      9
                      A                      A                      A
 Frequencies --    262.7447               319.0506               351.1834
 Red. masses --      3.7802                 5.6696                 5.9992
 Frc consts  --      0.1538                 0.3400                 0.4359
 IR Inten    --     26.0287                17.2967                 6.8738

                     10                     11                     12
                      A                      A                      A
 Frequencies --    369.0784               391.1224               414.8638
 Red. masses --      1.6206                 4.0542                 8.7906
 Frc consts  --      0.1301                 0.3654                 0.8914
 IR Inten    --    300.2553                74.3021                34.4277

                     13                     14                     15
                      A                      A                      A
 Frequencies --    421.7298               438.1809               452.4906
 Red. masses --      5.9946                 3.2796                 4.0440
 Frc consts  --      0.6282                 0.3710                 0.4878
 IR Inten    --     17.9212                11.6905                24.1050

                     16                     17                     18
                      A                      A                      A
 Frequencies --    494.9977               498.9009               558.0825
 Red. masses --      7.9700                 4.0079                 5.5140
 Frc consts  --      1.1506                 0.5878                 1.0118
 IR Inten    --      3.6803                 7.1975                 5.1207

                     19                     20                     21
                      A                      A                      A
 Frequencies --    565.8277               607.4381               643.8758
 Red. masses --      4.1394                 5.3299                 1.3048
 Frc consts  --      0.7808                 1.1587                 0.3187
 IR Inten    --     17.6637                58.2363               105.9172

                     22                     23                     24
                      A                      A                      A
 Frequencies --    650.7225               663.6952               695.7527
 Red. masses --      3.3961                 6.2513                 6.8267
 Frc consts  --      0.8473                 1.6224                 1.9470
 IR Inten    --      9.4902                17.0056                 1.9446

                     25                     26                     27
                      A                      A                      A
 Frequencies --    709.1529               740.4329               772.7465
 Red. masses --      2.3259                 2.5039                 1.8356
 Frc consts  --      0.6892                 0.8088                 0.6458
 IR Inten    --    127.4928                13.7489                 9.2659

                     28                     29                     30
                      A                      A                      A
 Frequencies --    793.8864               797.6376               813.7889
 Red. masses --      2.0747                 6.0059                 4.0182
 Frc consts  --      0.7704                 2.2513                 1.5678
 IR Inten    --     54.1266                 4.3019                29.4641

                     31                     32                     33
                      A                      A                      A
 Frequencies --    872.2912               879.5691               883.0249
 Red. masses --      1.4862                 6.5005                 1.4810
 Frc consts  --      0.6663                 2.9630                 0.6804
 IR Inten    --      0.6536                67.5592                 0.1377

                     34                     35                     36
                      A                      A                      A
 Frequencies --    931.0647               975.5730               987.8207
 Red. masses --      6.4644                 1.2875                 1.3664
 Frc consts  --      3.3017                 0.7219                 0.7856
 IR Inten    --      4.3291                 0.6321                 2.7784

                     37                     38                     39
                      A                      A                      A
 Frequencies --    999.5950              1017.1001              1039.7141
 Red. masses --      1.2852                 3.5256                 1.9197
 Frc consts  --      0.7566                 2.1489                 1.2227
 IR Inten    --      0.0404                42.3112                24.0804

                     40                     41                     42
                      A                      A                      A
 Frequencies --   1069.9045              1110.8145              1140.2155
 Red. masses --      2.2369                 2.1602                 1.4596
 Frc consts  --      1.5087                 1.5704                 1.1181
 IR Inten    --     86.7375                47.4224                76.2474

                     43                     44                     45
                      A                      A                      A
 Frequencies --   1147.2684              1172.2584              1184.1726
 Red. masses --      1.3592                 1.5283                 1.8224
 Frc consts  --      1.0540                 1.2374                 1.5056
 IR Inten    --     58.5761                30.6165                43.8846

                     46                     47                     48
                      A                      A                      A
 Frequencies --   1203.8739              1238.3092              1251.2647
 Red. masses --      1.9362                 3.0622                 2.3676
 Frc consts  --      1.6533                 2.7666                 2.1840
 IR Inten    --      3.0060               104.0786               234.2267

                     49                     50                     51
                      A                      A                      A
 Frequencies --   1312.2720              1351.4056              1361.2602
 Red. masses --      2.8682                 7.0407                 7.9161
 Frc consts  --      2.9101                 7.5759                 8.6426
 IR Inten    --      9.7245                51.6510                28.5853

                     52                     53                     54
                      A                      A                      A
 Frequencies --   1370.5576              1410.0200              1440.2375
 Red. masses --      3.1212                 2.9240                 3.0661
 Frc consts  --      3.4544                 3.4252                 3.7471
 IR Inten    --      4.0362              1233.8810               192.6248

                     55                     56                     57
                      A                      A                      A
 Frequencies --   1469.1411              1483.0741              1504.0151
 Red. masses --      3.2370                 3.2895                 3.9795
 Frc consts  --      4.1165                 4.2629                 5.3037
 IR Inten    --     68.6274               142.2540              1335.3829

                     58                     59                     60
                      A                      A                      A
 Frequencies --   1511.7737              1560.7218              1589.7527
 Red. masses --      3.7847                 3.7519                 1.4219
 Frc consts  --      5.0963                 5.3846                 2.1172
 IR Inten    --     26.7005               152.5534               315.6856

                     61                     62                     63
                      A                      A                      A
 Frequencies --   1601.9203              1611.4032              1624.7661
 Red. masses --      5.7728                 7.0839                 5.8185
 Frc consts  --      8.7281                10.8375                 9.0499
 IR Inten    --     49.9716               118.0817                 1.1662

                     64                     65                     66
                      A                      A                      A
 Frequencies --   3150.5773              3158.2710              3167.0678
 Red. masses --      1.0862                 1.0859                 1.0930
 Frc consts  --      6.3527                 6.3819                 6.4591
 IR Inten    --     33.0986                13.4707                49.1117

                     67                     68                     69
                      A                      A                      A
 Frequencies --   3172.4458              3187.6106              3194.4548
 Red. masses --      1.0903                 1.0931                 1.0932
 Frc consts  --      6.4652                 6.5437                 6.5727
 IR Inten    --     22.1700                28.2688                37.8336

                     70                     71                     72
                      A                      A                      A
 Frequencies --   3201.1857              3444.7156              3650.4991
 Red. masses --      1.0916                 1.0573                 1.0926
 Frc consts  --      6.5910                 7.3919                 8.5783
 IR Inten    --     17.7761               174.0356                98.5339

 - Thermochemistry -
 -------------------
 Temperature   298.150 Kelvin.  Pressure   1.00000 Atm.
 Atom     1 has atomic number  7 and mass  14.00307

 Molecular mass:   223.06333 amu.
 Principal axes and moments of inertia in atomic units:
                           1         2         3
     Eigenvalues --  2024.716614446.534106469.28489
           X            0.99541  -0.09279   0.02321
           Y            0.09460   0.99097  -0.09504
           Z           -0.01419   0.09680   0.99520
 This molecule is an asymmetric top.
 Rotational symmetry number  1.
 Warning -- assumption of classical behavior for rotation
           may cause significant error
 Rotational temperatures (Kelvin)      0.04278     0.01948     0.01339
 Rotational constants (GHZ):           0.89135     0.40588     0.27897
 Zero-point vibrational energy     507990.2 (Joules/Mol)
                                  121.41257 (Kcal/Mol)
 Warning -- explicit consideration of  20 degrees of freedom as
           vibrations may cause significant error
 Vibrational temperatures:     79.76   122.77   191.26   239.46   296.24
          (Kelvin)            320.76   378.03   459.04   505.27   531.02
                              562.74   596.90   606.78   630.44   651.03
                              712.19   717.81   802.96   814.10   873.97
                              926.39   936.24   954.91  1001.03  1020.31
                             1065.32  1111.81  1142.23  1147.62  1170.86
                             1255.03  1265.50  1270.48  1339.59  1403.63
                             1421.25  1438.19  1463.38  1495.92  1539.35
                             1598.21  1640.52  1650.66  1686.62  1703.76
                             1732.11  1781.65  1800.29  1888.07  1944.37
                             1958.55  1971.93  2028.70  2072.18  2113.77
                             2133.81  2163.94  2175.11  2245.53  2287.30
                             2304.81  2318.45  2337.68  4532.98  4544.05
                             4556.70  4564.44  4586.26  4596.11  4605.79
                             4956.18  5252.25

 Zero-point correction=                           0.193483 (Hartree/Particle)
 Thermal correction to Energy=                    0.205954
 Thermal correction to Enthalpy=                  0.206898
 Thermal correction to Gibbs Free Energy=         0.154340
 Sum of electronic and zero-point Energies=           -744.282729
 Sum of electronic and thermal Energies=              -744.270258
 Sum of electronic and thermal Enthalpies=            -744.269314
 Sum of electronic and thermal Free Energies=         -744.321873

                     E (Thermal)             CV                S
                      KCal/Mol        Cal/Mol-Kelvin    Cal/Mol-Kelvin
 Total                  129.238             51.740            110.619
 Electronic               0.000              0.000              1.377
 Translational            0.889              2.981             42.109
 Rotational               0.889              2.981             32.432
 Vibrational            127.461             45.778             34.700
 Vibration     1          0.596              1.975              4.613
 Vibration     2          0.601              1.959              3.764
 Vibration     3          0.613              1.920              2.903
 Vibration     4          0.624              1.884              2.475
 Vibration     5          0.640              1.831              2.080
 Vibration     6          0.649              1.806              1.935
 Vibration     7          0.670              1.741              1.643
 Vibration     8          0.705              1.637              1.315
 Vibration     9          0.728              1.573              1.161
 Vibration    10          0.741              1.536              1.084
 Vibration    11          0.759              1.489              0.996
 Vibration    12          0.778              1.438              0.910
 Vibration    13          0.784              1.423              0.886
 Vibration    14          0.798              1.387              0.832
 Vibration    15          0.811              1.355              0.788
 Vibration    16          0.851              1.261              0.671
 Vibration    17          0.854              1.252              0.661
 Vibration    18          0.914              1.122              0.528
 Vibration    19          0.922              1.105              0.512
 Vibration    20          0.966              1.016              0.437

                           ! Non-Optimized Parameters !
 Normal termination of Gaussian 16 at Sat Feb 10 17:37:35 2024.
