 Gaussian 16, Revision A.03,
 Gaussian 16:  ES64L-G16RevA.03 25-Dec-2016

 ----------------------------------------------------------------------
 #P UB3LYP/6-311++G(d,p) nosym opt freq SCRF=(PCM,Solvent=n,n-DiMethylF
 ormamide)
 ----------------------------------------------------------------------

 --------
 Oxidized
 --------
 Symbolic Z-matrix:
 Charge =  0 Multiplicity = 1

 SCF Done:  E(UB3LYP) =  -798.750924011     A.U. after   15 cycles
 SCF Done:  E(UB3LYP) =  -798.750875688     A.U. after   13 cycles
 SCF Done:  E(UB3LYP) =  -798.751124573     A.U. after   12 cycles
 SCF Done:  E(UB3LYP) =  -798.751269732     A.U. after   12 cycles
 SCF Done:  E(UB3LYP) =  -798.751288173     A.U. after   11 cycles
 SCF Done:  E(UB3LYP) =  -798.751306684     A.U. after   11 cycles
 SCF Done:  E(UB3LYP) =  -798.751313004     A.U. after   12 cycles
 SCF Done:  E(UB3LYP) =  -798.751316590     A.U. after   11 cycles
 SCF Done:  E(UB3LYP) =  -798.751318394     A.U. after   10 cycles
 SCF Done:  E(UB3LYP) =  -798.751318707     A.U. after    9 cycles
 SCF Done:  E(UB3LYP) =  -798.751318807     A.U. after    9 cycles
 Optimization completed.
    -- Stationary point found.
 Normal termination of Gaussian 16 at Sun Feb 11 01:12:30 2024.

 ----------------------------------------------------------------------
 #P Geom=AllCheck Guess=TCheck SCRF=Check GenChk UB3LYP/6-311++G(d,p) F
 req
 ----------------------------------------------------------------------

 Structure from the checkpoint file:  "271.chk"
 --------
 Oxidized
 --------
 Charge =  0 Multiplicity = 1

                          Input orientation:
 ---------------------------------------------------------------------
 Center     Atomic      Atomic             Coordinates (Angstroms)
 Number     Number       Type             X           Y           Z
 ---------------------------------------------------------------------
      1          6           0       -1.005825    3.946862    0.027841
      2          6           0       -2.194122    3.236352    0.182859
      3          6           0       -2.178755    1.841442    0.172556
      4          6           0        0.199631    3.261391   -0.134650
      5          6           0        0.215753    1.857805   -0.144855
      6          6           0       -0.977076    1.152971    0.006463
      7          6           0        1.462422    4.012846   -0.300851
      8          6           0        2.749991    3.249640   -0.476658
      9          6           0        2.746259    1.874179   -0.416989
     10          6           0        1.498105    1.118960   -0.318262
     11          8           0        1.502120    5.235005   -0.310161
     12          8           0        1.512259   -0.113282   -0.395212
     13          7           0        3.821965    4.029534   -0.726851
     14          1           0       -1.001828    5.029447    0.030477
     15          1           0       -3.128957    3.768717    0.311207
     16          1           0       -3.102822    1.288580    0.293813
     17          1           0       -0.954063    0.070878   -0.004024
     18          1           0        3.664735    5.023803   -0.620014
     19          1           0        4.736400    3.661386   -0.472688
     20          7           0        3.867348    1.038347   -0.604645
     21          6           0        5.160351    1.193245   -0.196597
     22          6           0        6.075061    0.026080   -0.489767
     23          1           0        3.591214    0.101445   -0.878863
     24          1           0        5.557250   -0.844334   -0.892515
     25          1           0        6.590142   -0.252377    0.431310
     26          1           0        6.832636    0.349397   -1.207844
     27          8           0        5.577284    2.210919    0.362452
 ---------------------------------------------------------------------

 SCF Done:  E(UB3LYP) =  -798.751318807     A.U. after    1 cycles

 Alpha  occ. eigenvalues --  -19.14544 -19.12914 -19.11473 -14.37067 -14.34241
 Alpha  occ. eigenvalues --  -10.30084 -10.29491 -10.28242 -10.25630 -10.23753
 Alpha  occ. eigenvalues --  -10.21239 -10.21175 -10.20216 -10.20097 -10.19959
 Alpha  occ. eigenvalues --  -10.19925 -10.18241  -1.08048  -1.06849  -1.05947
 Alpha  occ. eigenvalues --   -0.96452  -0.94070  -0.89317  -0.82411  -0.78223
 Alpha  occ. eigenvalues --   -0.77854  -0.74579  -0.70121  -0.65941  -0.65256
 Alpha  occ. eigenvalues --   -0.61507  -0.59838  -0.57078  -0.54937  -0.54185
 Alpha  occ. eigenvalues --   -0.51426  -0.50852  -0.48955  -0.47875  -0.47196
 Alpha  occ. eigenvalues --   -0.46267  -0.46065  -0.45452  -0.45147  -0.44072
 Alpha  occ. eigenvalues --   -0.42992  -0.42245  -0.41083  -0.39998  -0.38776
 Alpha  occ. eigenvalues --   -0.38001  -0.37304  -0.36192  -0.32095  -0.30165
 Alpha  occ. eigenvalues --   -0.29008  -0.28788  -0.28604  -0.28139  -0.23077
 Alpha virt. eigenvalues --   -0.12446  -0.05898  -0.03176  -0.01121  -0.00179
 Alpha virt. eigenvalues --   -0.00003   0.00841   0.01655   0.02269   0.02418
 Alpha virt. eigenvalues --    0.03364   0.03654   0.03909   0.04566   0.04822

  Beta  occ. eigenvalues --  -19.14544 -19.12914 -19.11473 -14.37067 -14.34241
  Beta  occ. eigenvalues --  -10.30084 -10.29491 -10.28242 -10.25630 -10.23753
  Beta  occ. eigenvalues --  -10.21239 -10.21175 -10.20216 -10.20097 -10.19959
  Beta  occ. eigenvalues --  -10.19925 -10.18241  -1.08048  -1.06849  -1.05947
  Beta  occ. eigenvalues --   -0.96452  -0.94070  -0.89317  -0.82411  -0.78223
  Beta  occ. eigenvalues --   -0.77854  -0.74579  -0.70121  -0.65941  -0.65256
  Beta  occ. eigenvalues --   -0.61507  -0.59838  -0.57078  -0.54937  -0.54185
  Beta  occ. eigenvalues --   -0.51426  -0.50852  -0.48955  -0.47875  -0.47196
  Beta  occ. eigenvalues --   -0.46267  -0.46065  -0.45452  -0.45147  -0.44072
  Beta  occ. eigenvalues --   -0.42992  -0.42245  -0.41083  -0.39998  -0.38776
  Beta  occ. eigenvalues --   -0.38001  -0.37304  -0.36192  -0.32095  -0.30165
  Beta  occ. eigenvalues --   -0.29008  -0.28788  -0.28604  -0.28139  -0.23077
  Beta virt. eigenvalues --   -0.12446  -0.05898  -0.03176  -0.01121  -0.00179
  Beta virt. eigenvalues --   -0.00003   0.00841   0.01655   0.02269   0.02418
  Beta virt. eigenvalues --    0.03364   0.03654   0.03909   0.04566   0.04822

 Mulliken charges and spin densities:
               1          2
     1  C    0.254668   0.000000
     2  C   -0.325938   0.000000
     3  C   -0.364289   0.000000
     4  C    0.348833   0.000000
     5  C    0.016853  -0.000000
     6  C    0.202455   0.000000
     7  C   -0.619956   0.000000
     8  C    0.354049  -0.000000
     9  C    0.454692  -0.000000
    10  C   -0.796169  -0.000000
    11  O   -0.283820   0.000000
    12  O   -0.321443   0.000000
    13  N   -0.378805   0.000000
    14  H    0.190500  -0.000000
    15  H    0.205152   0.000000
    16  H    0.209349  -0.000000
    17  H    0.187762  -0.000000
    18  H    0.315054  -0.000000
    19  H    0.307024   0.000000
    20  N   -0.053931   0.000000
    21  C    0.255905  -0.000000
    22  C   -0.592840   0.000000
    23  H    0.350000   0.000000
    24  H    0.145122  -0.000000
    25  H    0.189120  -0.000000
    26  H    0.192968  -0.000000
    27  O   -0.442314   0.000000
 Sum of Mulliken charges =  -0.00000  -0.00000

 Dipole moment (field-independent basis, Debye):
    X=             -2.1681    Y=             -1.4821    Z=             -1.0522  Tot=              2.8292
 Quadrupole moment (field-independent basis, Debye-Ang):
   XX=            -87.9090   YY=           -108.1525   ZZ=           -100.8608
   XY=            -16.9519   XZ=            -10.1485   YZ=             -0.8439

  Exact polarizability: 321.675   2.224 305.334 -14.697  -1.362 123.674
 Approx polarizability: 335.820  22.111 408.619 -14.282  -2.096 146.004

                      1                      2                      3
                      A                      A                      A
 Frequencies --     38.6392                44.8834                64.2534
 Red. masses --      2.3753                 1.4704                 4.2090
 Frc consts  --      0.0021                 0.0017                 0.0102
 IR Inten    --      2.1629                 0.7024                10.2938

                      4                      5                      6
                      A                      A                      A
 Frequencies --     74.9036               108.2691               122.0831
 Red. masses --      7.4798                 4.6770                 5.9359
 Frc consts  --      0.0247                 0.0323                 0.0521
 IR Inten    --     11.8548                 1.1965                 1.4281

                      7                      8                      9
                      A                      A                      A
 Frequencies --    175.6510               190.2032               261.2981
 Red. masses --      5.7602                 5.3353                 6.4282
 Frc consts  --      0.1047                 0.1137                 0.2586
 IR Inten    --      1.7500                 8.7781                 5.7714

                     10                     11                     12
                      A                      A                      A
 Frequencies --    275.8540               310.1399               327.3282
 Red. masses --      5.6713                 4.6119                 5.3140
 Frc consts  --      0.2543                 0.2614                 0.3355
 IR Inten    --      5.7796                 3.4018                 7.5305

                     13                     14                     15
                      A                      A                      A
 Frequencies --    374.9403               395.2931               411.1029
 Red. masses --      4.5882                 6.7988                 7.6376
 Frc consts  --      0.3800                 0.6259                 0.7605
 IR Inten    --     17.7759                25.6809                34.9700

                     16                     17                     18
                      A                      A                      A
 Frequencies --    434.1611               448.9419               476.2636
 Red. masses --      3.8778                 4.6145                 6.4689
 Frc consts  --      0.4307                 0.5480                 0.8645
 IR Inten    --      2.8550                 2.1860                26.9678

                     19                     20                     21
                      A                      A                      A
 Frequencies --    516.8348               551.8164               582.7639
 Red. masses --      5.9827                 2.8702                 1.2904
 Frc consts  --      0.9416                 0.5149                 0.2582
 IR Inten    --     26.7083                27.5665               305.4145

                     22                     23                     24
                      A                      A                      A
 Frequencies --    602.4062               614.8471               634.9342
 Red. masses --      3.8586                 2.4799                 1.4162
 Frc consts  --      0.8250                 0.5524                 0.3364
 IR Inten    --     53.5238               174.7399               262.7793

                     25                     26                     27
                      A                      A                      A
 Frequencies --    659.5844               675.0890               685.9246
 Red. masses --      1.7064                 3.0564                 4.9867
 Frc consts  --      0.4374                 0.8207                 1.3823
 IR Inten    --     30.2390                16.7181                15.6378

                     28                     29                     30
                      A                      A                      A
 Frequencies --    707.1054               729.2131               738.8700
 Red. masses --      5.3405                 3.2756                 3.6421
 Frc consts  --      1.5733                 1.0262                 1.1715
 IR Inten    --      6.1221                45.1626                41.2246

                     31                     32                     33
                      A                      A                      A
 Frequencies --    776.5586               806.0815               855.9159
 Red. masses --      6.9312                 1.9717                 5.3691
 Frc consts  --      2.4627                 0.7548                 2.3175
 IR Inten    --      1.2452                25.2871                17.8991

                     34                     35                     36
                      A                      A                      A
 Frequencies --    910.5980               928.3673               996.9316
 Red. masses --      1.3553                 3.6261                 1.3887
 Frc consts  --      0.6621                 1.8413                 0.8132
 IR Inten    --      0.2006                28.3467                 2.2926

                     37                     38                     39
                      A                      A                      A
 Frequencies --   1003.1598              1021.2579              1022.0058
 Red. masses --      3.9103                 1.3337                 3.3107
 Frc consts  --      2.3185                 0.8195                 2.0374
 IR Inten    --     49.1515                 0.3486               102.6635

                     40                     41                     42
                      A                      A                      A
 Frequencies --   1049.2200              1055.2285              1062.4608
 Red. masses --      1.9097                 1.7654                 2.0370
 Frc consts  --      1.2386                 1.1582                 1.3548
 IR Inten    --     27.6792                16.7497                16.6437

                     43                     44                     45
                      A                      A                      A
 Frequencies --   1113.0656              1177.2805              1194.2055
 Red. masses --      1.9744                 1.1703                 2.7328
 Frc consts  --      1.4412                 0.9557                 2.2962
 IR Inten    --     10.7434                12.8010                12.7221

                     46                     47                     48
                      A                      A                      A
 Frequencies --   1226.6054              1244.2367              1284.2419
 Red. masses --      2.2435                 2.4036                 2.2121
 Frc consts  --      1.9888                 2.1924                 2.1496
 IR Inten    --     14.2687               121.1924               300.2306

                     49                     50                     51
                      A                      A                      A
 Frequencies --   1296.7194              1332.4937              1368.6564
 Red. masses --      2.6451                 4.6036                 6.5559
 Frc consts  --      2.6205                 4.8159                 7.2355
 IR Inten    --    450.3001               478.8761               265.5899

                     52                     53                     54
                      A                      A                      A
 Frequencies --   1374.4791              1398.3571              1460.2240
 Red. masses --      3.3589                 1.2451                 1.0454
 Frc consts  --      3.7387                 1.4345                 1.3133
 IR Inten    --    383.6435                38.2688                16.8442

                     55                     56                     57
                      A                      A                      A
 Frequencies --   1477.5644              1483.1455              1505.9742
 Red. masses --      1.1461                 2.2614                 2.7342
 Frc consts  --      1.4743                 2.9309                 3.6535
 IR Inten    --     30.0391                 3.9614                55.2088

                     58                     59                     60
                      A                      A                      A
 Frequencies --   1534.4446              1590.1029              1600.1989
 Red. masses --      2.1187                 1.5507                 7.4671
 Frc consts  --      2.9392                 2.3100                11.2654
 IR Inten    --    691.3029               434.0982               913.0155

                     61                     62                     63
                      A                      A                      A
 Frequencies --   1621.1818              1641.9072              1661.8309
 Red. masses --      4.8050                 8.1165                 5.7704
 Frc consts  --      7.4407                12.8918                 9.3892
 IR Inten    --     60.0261               549.7831               156.3914

                     64                     65                     66
                      A                      A                      A
 Frequencies --   1684.3840              1707.1720              3047.7996
 Red. masses --      5.3614                 6.7491                 1.0357
 Frc consts  --      8.9621                11.5891                 5.6681
 IR Inten    --    206.2848               321.1049                 5.9062

                     67                     68                     69
                      A                      A                      A
 Frequencies --   3112.5405              3133.0465              3180.1307
 Red. masses --      1.1000                 1.1047                 1.0874
 Frc consts  --      6.2788                 6.3888                 6.4796
 IR Inten    --      6.7043                17.5033                 3.6934

                     70                     71                     72
                      A                      A                      A
 Frequencies --   3192.4296              3204.0900              3207.2788
 Red. masses --      1.0914                 1.0928                 1.0956
 Frc consts  --      6.5533                 6.6102                 6.6404
 IR Inten    --      9.6343                 3.2853                15.6122

                     73                     74                     75
                      A                      A                      A
 Frequencies --   3429.2288              3543.5158              3603.0415
 Red. masses --      1.0566                 1.0760                 1.0931
 Frc consts  --      7.3211                 7.9601                 8.3607
 IR Inten    --    284.8826               137.2108               215.0479

 - Thermochemistry -
 -------------------
 Temperature   298.150 Kelvin.  Pressure   1.00000 Atm.
 Atom     1 has atomic number  6 and mass  12.00000

 Molecular mass:   230.06914 amu.
 Principal axes and moments of inertia in atomic units:
                           1         2         3
     Eigenvalues --  1872.078495628.112007368.02162
           X            0.97157   0.23075   0.05307
           Y           -0.23143   0.97282   0.00715
           Z           -0.04998  -0.01923   0.99856
 This molecule is an asymmetric top.
 Rotational symmetry number  1.
 Warning -- assumption of classical behavior for rotation
           may cause significant error
 Rotational temperatures (Kelvin)      0.04627     0.01539     0.01176
 Rotational constants (GHZ):           0.96403     0.32067     0.24494
 Zero-point vibrational energy     534449.4 (Joules/Mol)
                                  127.73647 (Kcal/Mol)
 Warning -- explicit consideration of  23 degrees of freedom as
           vibrations may cause significant error
 Vibrational temperatures:     55.59    64.58    92.45   107.77   155.78
          (Kelvin)            175.65   252.72   273.66   375.95   396.89
                              446.22   470.95   539.46   568.74   591.49
                              624.66   645.93   685.24   743.61   793.94
                              838.47   866.73   884.63   913.53   948.99
                              971.30   986.89  1017.37  1049.18  1063.07
                             1117.29  1159.77  1231.47  1310.15  1335.71
                             1434.36  1443.32  1469.36  1470.44  1509.59
                             1518.24  1528.64  1601.45  1693.84  1718.20
                             1764.81  1790.18  1847.74  1865.69  1917.16
                             1969.19  1977.57  2011.92  2100.94  2125.89
                             2133.92  2166.76  2207.72  2287.80  2302.33
                             2332.52  2362.34  2391.00  2423.45  2456.24
                             4385.10  4478.25  4507.76  4575.50  4593.19
                             4609.97  4614.56  4933.90  5098.33  5183.97

 Zero-point correction=                           0.203561 (Hartree/Particle)
 Thermal correction to Energy=                    0.218174
 Thermal correction to Enthalpy=                  0.219118
 Thermal correction to Gibbs Free Energy=         0.160954
 Sum of electronic and zero-point Energies=           -798.547758
 Sum of electronic and thermal Energies=              -798.533145
 Sum of electronic and thermal Enthalpies=            -798.532200
 Sum of electronic and thermal Free Energies=         -798.590364

                     E (Thermal)             CV                S
                      KCal/Mol        Cal/Mol-Kelvin    Cal/Mol-Kelvin
 Total                  136.906             55.911            122.416
 Electronic               0.000              0.000              0.000
 Translational            0.889              2.981             42.202
 Rotational               0.889              2.981             32.718
 Vibrational            135.129             49.949             47.497
 Vibration     1          0.594              1.981              5.328
 Vibration     2          0.595              1.979              5.031
 Vibration     3          0.597              1.971              4.322
 Vibration     4          0.599              1.966              4.020
 Vibration     5          0.606              1.943              3.300
 Vibration     6          0.610              1.931              3.067
 Vibration     7          0.628              1.872              2.374
 Vibration     8          0.634              1.853              2.226
 Vibration     9          0.669              1.744              1.653
 Vibration    10          0.677              1.718              1.559
 Vibration    11          0.699              1.654              1.362
 Vibration    12          0.711              1.621              1.273
 Vibration    13          0.746              1.523              1.060
 Vibration    14          0.762              1.480              0.980
 Vibration    15          0.775              1.446              0.923
 Vibration    16          0.795              1.396              0.845
 Vibration    17          0.808              1.363              0.799
 Vibration    18          0.833              1.303              0.720
 Vibration    19          0.872              1.213              0.617
 Vibration    20          0.907              1.136              0.540
 Vibration    21          0.940              1.069              0.480
 Vibration    22          0.961              1.027              0.446
 Vibration    23          0.974              1.000              0.425

                           ! Non-Optimized Parameters !
 Normal termination of Gaussian 16 at Sun Feb 11 02:03:59 2024.
