 Gaussian 16, Revision A.03,
 Gaussian 16:  ES64L-G16RevA.03 25-Dec-2016

 ----------------------------------------------------------------
 #P UB3LYP/6-311++G(d,p) SCRF=(PCM,Solvent=n,n-DiMethylFormamide)
 ----------------------------------------------------------------

 ------------------
 Radical PCM in DMF
 ------------------
 Symbolic Z-matrix:
 Charge = -1 Multiplicity = 2

                         Standard orientation:
 ---------------------------------------------------------------------
 Center     Atomic      Atomic             Coordinates (Angstroms)
 Number     Number       Type             X           Y           Z
 ---------------------------------------------------------------------
      1          6           0        0.597210   -0.019476   -0.033248
      2          6           0        0.232393    1.310280   -0.021663
      3          6           0       -1.146119    1.719237    0.002241
      4          8           0       -1.488622    2.928701    0.015061
      5          6           0       -2.155715    0.638442    0.011050
      6          6           0       -3.524139    0.959817    0.033224
      7          6           0       -4.492625   -0.030122    0.041736
      8          6           0       -4.108869   -1.386113    0.028039
      9          6           0       -2.769104   -1.726376    0.006192
     10          6           0       -1.768518   -0.730218   -0.002650
     11          6           0       -0.364729   -1.109045   -0.025450
     12          8           0        0.036462   -2.315706   -0.037644
     13          1           0        0.986106    2.084925   -0.031024
     14          1           0       -3.787640    2.011506    0.043111
     15          1           0       -5.545363    0.236121    0.058749
     16          1           0       -4.866994   -2.164035    0.034465
     17          1           0       -2.448912   -2.761972   -0.005058
     18          7           0        1.908807   -0.518610   -0.046957
     19          6           0        3.109040    0.132451   -0.066398
     20          7           0        4.201798   -0.745790   -0.091367
     21          6           0        5.528610   -0.220927    0.176713
     22          8           0        3.268750    1.346413   -0.088644
     23          1           0        1.872899   -1.537887   -0.077129
     24          1           0        4.023667   -1.683437    0.237048
     25          1           0        5.659544    0.703118   -0.384868
     26          1           0        6.275966   -0.946334   -0.154525
     27          1           0        5.699170    0.005814    1.238605
 ---------------------------------------------------------------------

 SCF Done:  E(UB3LYP) =  -798.882660691     A.U. after   21 cycles

 The electronic state is 2-A.
 Alpha  occ. eigenvalues --  -19.09352 -19.08465 -19.07506 -14.34473 -14.33202
 Alpha  occ. eigenvalues --  -10.30372 -10.22536 -10.22476 -10.21541 -10.19557
 Alpha  occ. eigenvalues --  -10.17601 -10.17413 -10.17356 -10.17322 -10.17160
 Alpha  occ. eigenvalues --  -10.17071 -10.15660  -1.05882  -1.01015  -1.00027
 Alpha  occ. eigenvalues --   -0.94330  -0.90967  -0.85915  -0.80150  -0.75186
 Alpha  occ. eigenvalues --   -0.74478  -0.70684  -0.67442  -0.63201  -0.62106
 Alpha  occ. eigenvalues --   -0.58175  -0.57019  -0.55830  -0.52470  -0.49602
 Alpha  occ. eigenvalues --   -0.48762  -0.46625  -0.46185  -0.44760  -0.43902
 Alpha  occ. eigenvalues --   -0.43262  -0.42721  -0.42324  -0.41525  -0.40647
 Alpha  occ. eigenvalues --   -0.40439  -0.39073  -0.38894  -0.38072  -0.35662
 Alpha  occ. eigenvalues --   -0.35644  -0.33944  -0.31982  -0.28416  -0.26923
 Alpha  occ. eigenvalues --   -0.26140  -0.25825  -0.25654  -0.24015  -0.22966
 Alpha  occ. eigenvalues --   -0.15233
 Alpha virt. eigenvalues --   -0.03521  -0.01775  -0.00600   0.00186   0.01219
 Alpha virt. eigenvalues --    0.01647   0.02243   0.03292   0.03461   0.03636
 Alpha virt. eigenvalues --    0.04145   0.04757   0.04912   0.05330   0.05752

  Beta  occ. eigenvalues --  -19.09328 -19.07835 -19.06962 -14.34445 -14.33191
  Beta  occ. eigenvalues --  -10.30369 -10.22359 -10.22270 -10.21415 -10.19557
  Beta  occ. eigenvalues --  -10.17588 -10.17409 -10.17261 -10.17246 -10.17115
  Beta  occ. eigenvalues --  -10.17093 -10.15565  -1.05832  -0.99979  -0.99071
  Beta  occ. eigenvalues --   -0.94156  -0.90878  -0.85709  -0.79705  -0.74983
  Beta  occ. eigenvalues --   -0.74306  -0.70466  -0.66768  -0.62975  -0.61939
  Beta  occ. eigenvalues --   -0.58019  -0.56878  -0.55672  -0.52276  -0.49430
  Beta  occ. eigenvalues --   -0.48455  -0.46478  -0.46029  -0.44656  -0.43862
  Beta  occ. eigenvalues --   -0.43041  -0.42297  -0.41805  -0.41135  -0.40259
  Beta  occ. eigenvalues --   -0.39818  -0.38939  -0.38734  -0.35807  -0.35506
  Beta  occ. eigenvalues --   -0.34911  -0.33822  -0.30710  -0.28353  -0.26282
  Beta  occ. eigenvalues --   -0.25170  -0.25087  -0.24835  -0.23502  -0.22088
  Beta virt. eigenvalues --   -0.08780  -0.02737  -0.00826  -0.00550   0.00195
  Beta virt. eigenvalues --    0.01240   0.01667   0.02249   0.03338   0.03473
  Beta virt. eigenvalues --    0.03937   0.04396   0.04898   0.04989   0.05750

 Mulliken charges and spin densities:
               1          2
     1  C    0.518873   0.086461
     2  C    0.159791   0.066749
     3  C   -0.276474   0.070510
     4  O   -0.489495   0.195445
     5  C    0.673069   0.074280
     6  C    0.142039  -0.000882
     7  C   -0.360025   0.063096
     8  C   -0.441180   0.001539
     9  C    0.087162   0.074945
    10  C   -0.266411  -0.037340
    11  C   -1.226611   0.168366
    12  O   -0.470923   0.238481
    13  H    0.231104  -0.007271
    14  H    0.158097  -0.000627
    15  H    0.183495  -0.004387
    16  H    0.181965  -0.000656
    17  H    0.170567  -0.003904
    18  N   -0.274373   0.005926
    19  C    0.088977   0.000734
    20  N   -0.173550   0.003695
    21  C   -0.278943  -0.001042
    22  O   -0.451807   0.007688
    23  H    0.368273  -0.002990
    24  H    0.256771   0.000306
    25  H    0.170084   0.000106
    26  H    0.152229  -0.000010
    27  H    0.167298   0.000783
 Sum of Mulliken charges =  -1.00000   1.00000

 Dipole moment (field-independent basis, Debye):
    X=              3.4948    Y=             -6.8741    Z=              0.9573  Tot=              7.7706
 Quadrupole moment (field-independent basis, Debye-Ang):
   XX=            -97.8508   YY=           -136.3557   ZZ=           -105.3509
   XY=             -4.3723   XZ=              3.8712   YZ=             -1.1217

 Normal termination of Gaussian 16 at Sun Jan 21 08:34:10 2024.
