 Gaussian 16, Revision A.03,
 Gaussian 16:  ES64L-G16RevA.03 25-Dec-2016

 ----------------------------------------------------------------
 #P UB3LYP/6-311++G(d,p) SCRF=(PCM,Solvent=n,n-DiMethylFormamide)
 ----------------------------------------------------------------

 -------
 Reduced
 -------
 Symbolic Z-matrix:
 Charge = -2 Multiplicity = 1

                         Standard orientation:
 ---------------------------------------------------------------------
 Center     Atomic      Atomic             Coordinates (Angstroms)
 Number     Number       Type             X           Y           Z
 ---------------------------------------------------------------------
      1          8           0       -0.215243   -1.777856    0.012493
      2          6           0       -0.506981   -0.528124    0.012648
      3          6           0       -1.956113   -0.177193    0.012656
      4          6           0       -2.876752   -1.259424   -0.006412
      5          6           0       -4.251386   -1.059775   -0.006404
      6          6           0       -4.788813    0.234680   -0.001257
      7          6           0       -3.898890    1.316867    0.002918
      8          6           0       -2.518379    1.126760    0.005145
      9          6           0        0.507007    0.528180   -0.012734
     10          8           0        0.215306    1.777925   -0.012326
     11          6           0        1.956112    0.177221   -0.012676
     12          6           0        2.876782    1.259426    0.006424
     13          6           0        4.251407    1.059730    0.006404
     14          6           0        4.788787   -0.234746    0.001224
     15          6           0        3.898827   -1.316907   -0.002969
     16          6           0        2.518325   -1.126757   -0.005176
     17          1           0       -2.452898   -2.256849   -0.021499
     18          1           0       -4.920016   -1.919786   -0.012277
     19          1           0       -5.865541    0.393421    0.008250
     20          1           0       -4.291834    2.332494    0.004903
     21          1           0       -1.835630    1.964688   -0.001197
     22          1           0        2.452953    2.256862    0.021521
     23          1           0        4.920069    1.919718    0.012294
     24          1           0        5.865507   -0.393525   -0.008293
     25          1           0        4.291743   -2.332546   -0.004967
     26          1           0        1.835544   -1.964658    0.001171
 ---------------------------------------------------------------------

 SCF Done:  E(UB3LYP) =  -690.349304492     A.U. after   19 cycles

 The electronic state is 1-A.
 Alpha  occ. eigenvalues --  -19.00353 -19.00352 -10.15628 -10.15594 -10.15177
 Alpha  occ. eigenvalues --  -10.15177 -10.15016 -10.15016 -10.14638 -10.14637
 Alpha  occ. eigenvalues --  -10.14117 -10.14116 -10.13698 -10.13698 -10.13486
 Alpha  occ. eigenvalues --  -10.13486  -0.93473  -0.91657  -0.82382  -0.82177
 Alpha  occ. eigenvalues --   -0.72203  -0.71872  -0.71702  -0.71605  -0.62218
 Alpha  occ. eigenvalues --   -0.58890  -0.57683  -0.56990  -0.54667  -0.51002
 Alpha  occ. eigenvalues --   -0.48493  -0.45186  -0.43964  -0.41900  -0.41408
 Alpha  occ. eigenvalues --   -0.41269  -0.39326  -0.39240  -0.37681  -0.37304
 Alpha  occ. eigenvalues --   -0.36328  -0.34652  -0.34405  -0.33214  -0.31815
 Alpha  occ. eigenvalues --   -0.30897  -0.30640  -0.30390  -0.27613  -0.23373
 Alpha  occ. eigenvalues --   -0.23315  -0.22253  -0.21561  -0.20611  -0.16335
 Alpha  occ. eigenvalues --   -0.09153
 Alpha virt. eigenvalues --   -0.01613   0.00040   0.00542   0.01001   0.01192
 Alpha virt. eigenvalues --    0.01563   0.02155   0.02400   0.03588   0.03808
 Alpha virt. eigenvalues --    0.04151   0.04909   0.05002   0.06273   0.06367

  Beta  occ. eigenvalues --  -19.00353 -19.00352 -10.15628 -10.15594 -10.15177
  Beta  occ. eigenvalues --  -10.15177 -10.15016 -10.15016 -10.14638 -10.14637
  Beta  occ. eigenvalues --  -10.14117 -10.14116 -10.13698 -10.13698 -10.13486
  Beta  occ. eigenvalues --  -10.13486  -0.93473  -0.91657  -0.82382  -0.82177
  Beta  occ. eigenvalues --   -0.72203  -0.71872  -0.71702  -0.71605  -0.62218
  Beta  occ. eigenvalues --   -0.58890  -0.57683  -0.56990  -0.54667  -0.51002
  Beta  occ. eigenvalues --   -0.48493  -0.45186  -0.43964  -0.41900  -0.41408
  Beta  occ. eigenvalues --   -0.41269  -0.39326  -0.39240  -0.37681  -0.37304
  Beta  occ. eigenvalues --   -0.36328  -0.34652  -0.34405  -0.33214  -0.31815
  Beta  occ. eigenvalues --   -0.30897  -0.30640  -0.30390  -0.27613  -0.23373
  Beta  occ. eigenvalues --   -0.23315  -0.22253  -0.21561  -0.20611  -0.16335
  Beta  occ. eigenvalues --   -0.09153
  Beta virt. eigenvalues --   -0.01613   0.00040   0.00542   0.01001   0.01192
  Beta virt. eigenvalues --    0.01563   0.02155   0.02400   0.03588   0.03808
  Beta virt. eigenvalues --    0.04151   0.04909   0.05002   0.06273   0.06367

 Mulliken charges and spin densities:
               1          2
     1  O   -0.624020  -0.000000
     2  C   -0.409348   0.000000
     3  C    1.498130  -0.000000
     4  C    0.298920  -0.000000
     5  C   -0.361004   0.000000
     6  C   -0.534095  -0.000000
     7  C   -0.455740   0.000000
     8  C   -1.217569   0.000000
     9  C   -0.409529   0.000000
    10  O   -0.624048  -0.000000
    11  C    1.498119  -0.000000
    12  C    0.298832  -0.000000
    13  C   -0.361040  -0.000000
    14  C   -0.534037  -0.000000
    15  C   -0.455753   0.000000
    16  C   -1.217455  -0.000000
    17  H    0.159466  -0.000000
    18  H    0.164249  -0.000000
    19  H    0.141575  -0.000000
    20  H    0.175040  -0.000000
    21  H    0.164490   0.000000
    22  H    0.159465   0.000000
    23  H    0.164248   0.000000
    24  H    0.141574  -0.000000
    25  H    0.175038   0.000000
    26  H    0.164491  -0.000000
 Sum of Mulliken charges =  -2.00000   0.00000

 Dipole moment (field-independent basis, Debye):
    X=             -0.0005    Y=             -0.0003    Z=             -0.0004  Tot=              0.0007
 Quadrupole moment (field-independent basis, Debye-Ang):
   XX=           -139.2355   YY=           -123.0480   ZZ=           -109.2030
   XY=             -2.0197   XZ=             -0.0040   YZ=              0.2473

 Normal termination of Gaussian 16 at Sat Jan 13 19:23:02 2024.
