 Gaussian 16, Revision A.03,
 Gaussian 16:  ES64L-G16RevA.03 25-Dec-2016

 ----------------------------------------------------------------
 #P UB3LYP/6-311++G(d,p) SCRF=(PCM,Solvent=n,n-DiMethylFormamide)
 ----------------------------------------------------------------

 ------------------
 Quinone PCM in DMF
 ------------------
 Symbolic Z-matrix:
 Charge =  0 Multiplicity = 1

                         Standard orientation:
 ---------------------------------------------------------------------
 Center     Atomic      Atomic             Coordinates (Angstroms)
 Number     Number       Type             X           Y           Z
 ---------------------------------------------------------------------
      1          7           0        2.411415   -2.638842    0.000643
      2          6           0        2.534914   -1.287157    0.000206
      3          6           0        3.831840   -0.718494    0.000181
      4          6           0        4.019749    0.647375   -0.000104
      5          6           0        2.923654    1.514926   -0.000295
      6          6           0        1.639807    0.988887   -0.000201
      7          6           0        0.502118    1.945669   -0.000289
      8          8           0        0.686128    3.152702   -0.000564
      9          6           0       -0.885559    1.391196    0.000053
     10          6           0       -1.933276    2.311260    0.000453
     11          6           0       -3.247390    1.867349    0.000707
     12          6           0       -3.511960    0.503617    0.000422
     13          6           0       -2.469807   -0.423984   -0.000021
     14         17           0       -2.979835   -2.100681   -0.000637
     15          6           0       -1.122913   -0.002782   -0.000086
     16          6           0        0.039137   -0.954399   -0.000010
     17          8           0       -0.158224   -2.169815    0.000336
     18          6           0        1.406606   -0.408465    0.000028
     19          1           0        3.233201   -3.217906   -0.000601
     20          1           0        1.483686   -3.041720    0.000461
     21          1           0        4.687553   -1.386092    0.000446
     22          1           0        5.027326    1.047927   -0.000130
     23          1           0        3.048787    2.589179   -0.000499
     24          1           0       -1.688348    3.365328    0.000539
     25          1           0       -4.068548    2.574646    0.001117
     26          1           0       -4.531117    0.139013    0.000547
 ---------------------------------------------------------------------

 SCF Done:  E(UB3LYP) =  -1203.95890820     A.U. after   15 cycles

 The electronic state is 1-A.
 Alpha  occ. eigenvalues -- -101.56408 -19.12944 -19.12621 -14.33579 -10.28454
 Alpha  occ. eigenvalues --  -10.28256 -10.26413 -10.24979 -10.22428 -10.21446
 Alpha  occ. eigenvalues --  -10.20710 -10.20637 -10.20406 -10.20384 -10.20008
 Alpha  occ. eigenvalues --  -10.19788 -10.19345 -10.18784  -9.47899  -7.24372
 Alpha  occ. eigenvalues --   -7.23412  -7.23291  -1.06613  -1.06374  -0.94618
 Alpha  occ. eigenvalues --   -0.91471  -0.87417  -0.85948  -0.81398  -0.77566
 Alpha  occ. eigenvalues --   -0.76509  -0.75693  -0.69075  -0.66946  -0.65526
 Alpha  occ. eigenvalues --   -0.61435  -0.59051  -0.57756  -0.55898  -0.53150
 Alpha  occ. eigenvalues --   -0.51303  -0.50640  -0.49532  -0.47908  -0.47627
 Alpha  occ. eigenvalues --   -0.46037  -0.45892  -0.45478  -0.44848  -0.43414
 Alpha  occ. eigenvalues --   -0.42232  -0.41504  -0.40189  -0.39431  -0.38575
 Alpha  occ. eigenvalues --   -0.38139  -0.37798  -0.35110  -0.33588  -0.33340
 Alpha  occ. eigenvalues --   -0.29345  -0.28582  -0.27988  -0.26985  -0.26772
 Alpha  occ. eigenvalues --   -0.22832
 Alpha virt. eigenvalues --   -0.11788  -0.07150  -0.04055  -0.02041  -0.00632
 Alpha virt. eigenvalues --   -0.00090   0.00275   0.01015   0.01814   0.02412
 Alpha virt. eigenvalues --    0.02957   0.03494   0.03767   0.04073   0.04236

  Beta  occ. eigenvalues -- -101.56408 -19.12944 -19.12621 -14.33579 -10.28454
  Beta  occ. eigenvalues --  -10.28256 -10.26413 -10.24979 -10.22428 -10.21446
  Beta  occ. eigenvalues --  -10.20710 -10.20637 -10.20406 -10.20384 -10.20008
  Beta  occ. eigenvalues --  -10.19788 -10.19345 -10.18784  -9.47899  -7.24372
  Beta  occ. eigenvalues --   -7.23412  -7.23291  -1.06613  -1.06374  -0.94618
  Beta  occ. eigenvalues --   -0.91471  -0.87417  -0.85948  -0.81398  -0.77566
  Beta  occ. eigenvalues --   -0.76509  -0.75693  -0.69075  -0.66946  -0.65526
  Beta  occ. eigenvalues --   -0.61435  -0.59051  -0.57756  -0.55898  -0.53150
  Beta  occ. eigenvalues --   -0.51303  -0.50640  -0.49532  -0.47908  -0.47627
  Beta  occ. eigenvalues --   -0.46037  -0.45892  -0.45478  -0.44848  -0.43414
  Beta  occ. eigenvalues --   -0.42232  -0.41504  -0.40189  -0.39431  -0.38575
  Beta  occ. eigenvalues --   -0.38139  -0.37798  -0.35110  -0.33588  -0.33340
  Beta  occ. eigenvalues --   -0.29345  -0.28582  -0.27988  -0.26985  -0.26772
  Beta  occ. eigenvalues --   -0.22832
  Beta virt. eigenvalues --   -0.11788  -0.07150  -0.04055  -0.02041  -0.00632
  Beta virt. eigenvalues --   -0.00090   0.00275   0.01015   0.01814   0.02412
  Beta virt. eigenvalues --    0.02957   0.03494   0.03767   0.04073   0.04236

 Mulliken charges and spin densities:
               1          2
     1  N   -0.432851  -0.000000
     2  C    0.155629  -0.000000
     3  C   -0.210350  -0.000000
     4  C   -0.478812  -0.000000
     5  C    0.043238   0.000000
     6  C    0.494352   0.000000
     7  C   -0.892875  -0.000000
     8  O   -0.269216   0.000000
     9  C    0.406179  -0.000000
    10  C    0.402695  -0.000000
    11  C   -0.720822   0.000000
    12  C   -0.047137  -0.000000
    13  C    0.884866   0.000000
    14  Cl   0.371317  -0.000000
    15  C   -0.170444   0.000000
    16  C   -1.262170   0.000000
    17  O   -0.229833   0.000000
    18  C    0.089794   0.000000
    19  H    0.313342   0.000000
    20  H    0.344242   0.000000
    21  H    0.187946  -0.000000
    22  H    0.209956  -0.000000
    23  H    0.178970  -0.000000
    24  H    0.195466  -0.000000
    25  H    0.209304   0.000000
    26  H    0.227214   0.000000
 Sum of Mulliken charges =  -0.00000   0.00000

 Dipole moment (field-independent basis, Debye):
    X=              2.0252    Y=             -1.0212    Z=             -0.0011  Tot=              2.2681
 Quadrupole moment (field-independent basis, Debye-Ang):
   XX=            -78.6789   YY=           -114.6077   ZZ=           -113.6408
   XY=            -19.3893   XZ=             -0.0108   YZ=              0.0135

 Normal termination of Gaussian 16 at Sun Jan 14 01:04:58 2024.
