 Gaussian 16, Revision A.03,
 Gaussian 16:  ES64L-G16RevA.03 25-Dec-2016

 ----------------------------------------------------------------------
 #P UB3LYP/6-311++G(d,p) nosym opt freq SCRF=(PCM,Solvent=n,n-DiMethylF
 ormamide)
 ----------------------------------------------------------------------

 -------
 Radical
 -------
 Symbolic Z-matrix:
 Charge = -1 Multiplicity = 2

 SCF Done:  E(UB3LYP) =  -918.183939092     A.U. after   17 cycles
 SCF Done:  E(UB3LYP) =  -918.184496023     A.U. after   14 cycles
 SCF Done:  E(UB3LYP) =  -918.184634746     A.U. after   13 cycles
 SCF Done:  E(UB3LYP) =  -918.184664593     A.U. after   11 cycles
 SCF Done:  E(UB3LYP) =  -918.184668306     A.U. after   11 cycles
 SCF Done:  E(UB3LYP) =  -918.184671092     A.U. after   11 cycles
 SCF Done:  E(UB3LYP) =  -918.184672747     A.U. after   10 cycles
 SCF Done:  E(UB3LYP) =  -918.184669277     A.U. after   12 cycles
 SCF Done:  E(UB3LYP) =  -918.184693120     A.U. after   14 cycles
 SCF Done:  E(UB3LYP) =  -918.184685289     A.U. after   14 cycles
 SCF Done:  E(UB3LYP) =  -918.183014350     A.U. after   15 cycles
 SCF Done:  E(UB3LYP) =  -918.184668974     A.U. after   14 cycles
 SCF Done:  E(UB3LYP) =  -918.184695168     A.U. after    6 cycles
 SCF Done:  E(UB3LYP) =  -918.184690474     A.U. after   14 cycles
 SCF Done:  E(UB3LYP) =  -918.184704969     A.U. after   14 cycles
 SCF Done:  E(UB3LYP) =  -918.184705971     A.U. after   10 cycles
 SCF Done:  E(UB3LYP) =  -918.184706449     A.U. after   10 cycles
 SCF Done:  E(UB3LYP) =  -918.184706626     A.U. after   10 cycles
 SCF Done:  E(UB3LYP) =  -918.184706691     A.U. after    9 cycles
 Optimization completed.
    -- Stationary point found.
 Normal termination of Gaussian 16 at Sat Feb 10 18:39:53 2024.

 ----------------------------------------------------------------------
 #P Geom=AllCheck Guess=TCheck SCRF=Check GenChk UB3LYP/6-311++G(d,p) F
 req
 ----------------------------------------------------------------------

 Structure from the checkpoint file:  "139-rad.chk"
 -------
 Radical
 -------
 Charge = -1 Multiplicity = 2

                          Input orientation:
 ---------------------------------------------------------------------
 Center     Atomic      Atomic             Coordinates (Angstroms)
 Number     Number       Type             X           Y           Z
 ---------------------------------------------------------------------
      1          6           0       -3.268662    2.991338   -0.133579
      2          8           0       -1.930057    2.511095   -0.064055
      3          6           0       -1.717301    1.161032   -0.033719
      4          6           0       -2.775093    0.272199   -0.055856
      5          6           0       -2.556507   -1.112837   -0.034997
      6          6           0       -1.276638   -1.630919    0.018398
      7          8           0       -1.061136   -2.981052    0.021340
      8          6           0       -2.185074   -3.852712   -0.044388
      9          6           0       -0.137487   -0.753895    0.059688
     10          6           0        1.221472   -1.298925    0.147530
     11          8           0        1.481192   -2.527765    0.262117
     12          6           0        2.333587   -0.345471    0.101322
     13          6           0        3.661383   -0.831071    0.123991
     14          6           0        4.739272    0.030845    0.082621
     15          6           0        4.521413    1.423287    0.022034
     16          6           0        3.231628    1.915975    0.004108
     17          6           0        2.115316    1.048739    0.041240
     18          6           0        0.764784    1.618362    0.026035
     19          8           0        0.637131    2.873107    0.014958
     20          6           0       -0.362777    0.679833    0.018466
     21          1           0       -3.188420    4.077248   -0.154603
     22          1           0       -3.853354    2.690005    0.741954
     23          1           0       -3.774526    2.648919   -1.042422
     24          1           0       -3.794637    0.626594   -0.095324
     25          1           0       -3.417011   -1.765021   -0.064592
     26          1           0       -2.845056   -3.728284    0.820528
     27          1           0       -1.773287   -4.860932   -0.038985
     28          1           0       -2.760715   -3.702321   -0.963761
     29          1           0        3.808801   -1.902569    0.172981
     30          1           0        5.751081   -0.360194    0.096713
     31          1           0        5.365691    2.103743   -0.010017
     32          1           0        3.044987    2.981652   -0.039727
 ---------------------------------------------------------------------

 SCF Done:  E(UB3LYP) =  -918.184706691     A.U. after    1 cycles

 Alpha  occ. eigenvalues --  -19.14563 -19.14562 -19.06585 -19.06576 -10.23069
 Alpha  occ. eigenvalues --  -10.23065 -10.22213 -10.22211 -10.21591 -10.21588
 Alpha  occ. eigenvalues --  -10.17972 -10.17935 -10.17071 -10.17023 -10.16862
 Alpha  occ. eigenvalues --  -10.16816 -10.16699 -10.16693 -10.16692 -10.16648
 Alpha  occ. eigenvalues --   -1.06216  -1.06127  -0.99358  -0.99103  -0.85676
 Alpha  occ. eigenvalues --   -0.84580  -0.78306  -0.75942  -0.74616  -0.74317
 Alpha  occ. eigenvalues --   -0.71023  -0.68028  -0.66573  -0.63023  -0.61804
 Alpha  occ. eigenvalues --   -0.57819  -0.55717  -0.53859  -0.53241  -0.50760
 Alpha  occ. eigenvalues --   -0.49429  -0.47849  -0.46773  -0.46318  -0.45902
 Alpha  occ. eigenvalues --   -0.45837  -0.43322  -0.42926  -0.42070  -0.41698
 Alpha  occ. eigenvalues --   -0.41021  -0.40706  -0.40113  -0.38652  -0.37944
 Alpha  occ. eigenvalues --   -0.37644  -0.37565  -0.34977  -0.34150  -0.34111
 Alpha  occ. eigenvalues --   -0.33566  -0.33348  -0.32811  -0.29396  -0.26430
 Alpha  occ. eigenvalues --   -0.25269  -0.24786  -0.23099  -0.22349  -0.21264
 Alpha  occ. eigenvalues --   -0.13579
 Alpha virt. eigenvalues --   -0.04434  -0.02189  -0.00453   0.00254   0.00600
 Alpha virt. eigenvalues --    0.00996   0.01886   0.01904   0.02787   0.03123
 Alpha virt. eigenvalues --    0.03596   0.03974   0.04490   0.05018   0.05201

  Beta  occ. eigenvalues --  -19.14555 -19.14554 -19.06025 -19.06015 -10.23063
  Beta  occ. eigenvalues --  -10.23059 -10.22063 -10.22061 -10.21590 -10.21588
  Beta  occ. eigenvalues --  -10.17894 -10.17856 -10.17035 -10.16987 -10.16797
  Beta  occ. eigenvalues --  -10.16754 -10.16693 -10.16688 -10.16606 -10.16554
  Beta  occ. eigenvalues --   -1.06186  -1.06099  -0.98399  -0.98115  -0.85432
  Beta  occ. eigenvalues --   -0.84440  -0.77900  -0.75806  -0.74452  -0.74148
  Beta  occ. eigenvalues --   -0.70976  -0.67864  -0.65874  -0.62857  -0.61563
  Beta  occ. eigenvalues --   -0.57744  -0.55582  -0.53633  -0.53126  -0.50703
  Beta  occ. eigenvalues --   -0.49349  -0.47578  -0.46673  -0.46268  -0.45746
  Beta  occ. eigenvalues --   -0.45696  -0.43280  -0.42788  -0.42041  -0.40906
  Beta  occ. eigenvalues --   -0.40647  -0.40235  -0.40036  -0.38414  -0.37739
  Beta  occ. eigenvalues --   -0.37228  -0.35997  -0.34867  -0.33552  -0.33328
  Beta  occ. eigenvalues --   -0.33210  -0.33066  -0.32723  -0.29026  -0.24675
  Beta  occ. eigenvalues --   -0.24322  -0.24194  -0.22595  -0.21847  -0.20443
  Beta virt. eigenvalues --   -0.07866  -0.03503  -0.01102  -0.00443   0.00257
  Beta virt. eigenvalues --    0.00605   0.01345   0.01903   0.01907   0.02800
  Beta virt. eigenvalues --    0.03156   0.03605   0.03981   0.04520   0.05031

 Mulliken charges and spin densities:
               1          2
     1  C   -0.304716  -0.000961
     2  O   -0.151534   0.001787
     3  C   -0.285963   0.014586
     4  C   -0.266187   0.078697
     5  C   -0.255910   0.080048
     6  C   -0.213946   0.016372
     7  O   -0.152281   0.001810
     8  C   -0.301922  -0.000921
     9  C    0.358219   0.035869
    10  C   -0.126026   0.079367
    11  O   -0.471869   0.210869
    12  C    0.092923   0.024673
    13  C    0.132062   0.027932
    14  C   -0.466705   0.030932
    15  C   -0.436653   0.030767
    16  C    0.104205   0.029981
    17  C    0.063722   0.028876
    18  C   -0.203375   0.079919
    19  O   -0.473658   0.211470
    20  C    0.284637   0.032463
    21  H    0.190147  -0.000226
    22  H    0.153186   0.000654
    23  H    0.151716   0.000662
    24  H    0.204434  -0.004687
    25  H    0.201939  -0.004683
    26  H    0.154256   0.000708
    27  H    0.191987  -0.000256
    28  H    0.149581   0.000615
    29  H    0.160424  -0.001239
    30  H    0.178202  -0.002406
    31  H    0.179367  -0.002424
    32  H    0.159738  -0.001254
 Sum of Mulliken charges =  -1.00000   1.00000

 Dipole moment (field-independent basis, Debye):
    X=             -8.5180    Y=             -1.3737    Z=             -0.8665  Tot=              8.6714
 Quadrupole moment (field-independent basis, Debye-Ang):
   XX=           -108.0857   YY=           -146.7962   ZZ=           -123.3107
   XY=              6.1674   XZ=             -0.3760   YZ=              1.4768

  Exact polarizability: 510.216  16.489 408.529   7.025  -7.337 160.648
 Approx polarizability: 515.754   6.918 473.870   6.879  -9.408 183.079

                      1                      2                      3
                      A                      A                      A
 Frequencies --     32.0042                47.7900                68.7507
 Red. masses --      5.8399                 4.7474                 3.5737
 Frc consts  --      0.0035                 0.0064                 0.0100
 IR Inten    --     12.8965                13.1446                 0.0195

                      4                      5                      6
                      A                      A                      A
 Frequencies --    103.6317               115.3514               128.0531
 Red. masses --      3.8190                 4.3542                 5.0774
 Frc consts  --      0.0242                 0.0341                 0.0491
 IR Inten    --      0.3277                 0.8134                 0.9007

                      7                      8                      9
                      A                      A                      A
 Frequencies --    169.5872               173.6362               198.5497
 Red. masses --      4.7985                 6.5498                 3.4212
 Frc consts  --      0.0813                 0.1163                 0.0795
 IR Inten    --     17.0942                 4.4223                 1.9079

                     10                     11                     12
                      A                      A                      A
 Frequencies --    255.2000               267.3147               280.8473
 Red. masses --      1.0893                 5.2224                 1.1564
 Frc consts  --      0.0418                 0.2199                 0.0537
 IR Inten    --      0.0043                 1.1208                 0.9604

                     13                     14                     15
                      A                      A                      A
 Frequencies --    292.0566               326.7050               337.1732
 Red. masses --      5.7081                 5.0027                 4.5196
 Frc consts  --      0.2869                 0.3146                 0.3027
 IR Inten    --      0.2389                 0.2638                 9.4726

                     16                     17                     18
                      A                      A                      A
 Frequencies --    361.8851               390.4203               393.4919
 Red. masses --      6.8963                 7.0626                 5.1309
 Frc consts  --      0.5321                 0.6343                 0.4681
 IR Inten    --      0.2993                 7.9223                 3.9415

                     19                     20                     21
                      A                      A                      A
 Frequencies --    396.9698               418.6515               437.0987
 Red. masses --     11.3692                 6.3174                 3.3004
 Frc consts  --      1.0556                 0.6524                 0.3715
 IR Inten    --     14.7709                 0.6776                 1.7020

                     22                     23                     24
                      A                      A                      A
 Frequencies --    483.4925               506.2808               510.9735
 Red. masses --     11.3438                 4.3767                 6.6222
 Frc consts  --      1.5624                 0.6610                 1.0187
 IR Inten    --      0.3016                 0.0794                 4.3916

                     25                     26                     27
                      A                      A                      A
 Frequencies --    574.0843               605.7360               626.4960
 Red. masses --      5.5677                 3.1971                 5.4752
 Frc consts  --      1.0811                 0.6911                 1.2662
 IR Inten    --      0.4165                40.4794                19.8623

                     28                     29                     30
                      A                      A                      A
 Frequencies --    648.5886               666.0013               722.0419
 Red. masses --      4.8113                 6.3485                 5.9151
 Frc consts  --      1.1925                 1.6591                 1.8169
 IR Inten    --      0.5888                11.8436                 1.9933

                     31                     32                     33
                      A                      A                      A
 Frequencies --    725.4417               742.3966               745.3649
 Red. masses --      2.1329                 6.1049                 5.4479
 Frc consts  --      0.6613                 1.9825                 1.7833
 IR Inten    --     45.0299                77.3699                14.6644

                     34                     35                     36
                      A                      A                      A
 Frequencies --    789.8531               805.7733               814.2623
 Red. masses --      1.6500                 2.1212                 5.5926
 Frc consts  --      0.6065                 0.8115                 2.1847
 IR Inten    --    122.4857                28.1810                 0.1040

                     37                     38                     39
                      A                      A                      A
 Frequencies --    849.2440               869.3689               883.2582
 Red. masses --      6.9253                 8.1818                 1.3972
 Frc consts  --      2.9428                 3.6434                 0.6422
 IR Inten    --     46.9835                49.9875                 0.0970

                     40                     41                     42
                      A                      A                      A
 Frequencies --    887.9651               933.4773               990.7997
 Red. masses --      1.4945                 5.9604                 1.4225
 Frc consts  --      0.6943                 3.0601                 0.8227
 IR Inten    --      0.0344                 4.3217                 9.7799

                     43                     44                     45
                      A                      A                      A
 Frequencies --    992.0373              1001.9740              1039.4002
 Red. masses --      5.8773                 1.2819                 2.0739
 Frc consts  --      3.4079                 0.7582                 1.3201
 IR Inten    --    146.3318                 0.0760                 9.8395

                     46                     47                     48
                      A                      A                      A
 Frequencies --   1072.8820              1109.2829              1113.2430
 Red. masses --      9.6856                 4.4610                 2.1305
 Frc consts  --      6.5687                 3.2342                 1.5557
 IR Inten    --    387.6925               213.7491                34.2319

                     49                     50                     51
                      A                      A                      A
 Frequencies --   1143.5961              1161.7569              1162.2676
 Red. masses --      1.5076                 1.2768                 1.2775
 Frc consts  --      1.1617                 1.0153                 1.0168
 IR Inten    --     35.5318                 0.3425                 2.6062

                     52                     53                     54
                      A                      A                      A
 Frequencies --   1180.1286              1194.4268              1203.5759
 Red. masses --      1.5025                 2.2707                 1.3906
 Frc consts  --      1.2329                 1.9087                 1.1869
 IR Inten    --      3.0001                12.0698                 0.0039

                     55                     56                     57
                      A                      A                      A
 Frequencies --   1207.5785              1219.3069              1239.9116
 Red. masses --      1.7333                 2.2980                 2.1243
 Frc consts  --      1.4892                 2.0129                 1.9241
 IR Inten    --     59.6439                15.4497               286.8710

                     58                     59                     60
                      A                      A                      A
 Frequencies --   1259.8278              1261.2022              1309.1411
 Red. masses --      3.1751                 3.6035                10.2529
 Frc consts  --      2.9692                 3.3771                10.3531
 IR Inten    --    436.2058                95.5023                 2.8857

                     61                     62                     63
                      A                      A                      A
 Frequencies --   1347.9002              1370.4344              1381.4993
 Red. masses --      2.8323                 8.9126                 4.9031
 Frc consts  --      3.0318                 9.8621                 5.5135
 IR Inten    --      6.6083                 3.9847                77.6569

                     64                     65                     66
                      A                      A                      A
 Frequencies --   1403.4796              1464.2919              1471.6700
 Red. masses --      3.2632                 1.7073                 1.1991
 Frc consts  --      3.7871                 2.1568                 1.5301
 IR Inten    --    838.6530               408.0086                18.4670

                     67                     68                     69
                      A                      A                      A
 Frequencies --   1479.7132              1480.8666              1483.4821
 Red. masses --      1.8412                 2.5814                 1.0462
 Frc consts  --      2.3753                 3.3353                 1.3565
 IR Inten    --      2.5448                41.6456                 9.3753

                     70                     71                     72
                      A                      A                      A
 Frequencies --   1483.7023              1496.4813              1497.3394
 Red. masses --      1.0462                 1.1138                 1.1308
 Frc consts  --      1.3569                 1.4696                 1.4938
 IR Inten    --     14.3900                53.1718               314.4518

                     73                     74                     75
                      A                      A                      A
 Frequencies --   1512.3516              1518.4206              1571.7519
 Red. masses --      3.2948                 5.2515                 5.4992
 Frc consts  --      4.4400                 7.1337                 8.0043
 IR Inten    --   1292.8491                89.6434               364.3451

                     76                     77                     78
                      A                      A                      A
 Frequencies --   1600.9559              1618.1947              1627.3011
 Red. masses --      4.9245                 7.7605                 5.9015
 Frc consts  --      7.4366                11.9730                 9.2076
 IR Inten    --    139.3412                 6.3181                 4.8424

                     79                     80                     81
                      A                      A                      A
 Frequencies --   3003.0299              3003.9714              3062.4094
 Red. masses --      1.0338                 1.0340                 1.1061
 Frc consts  --      5.4930                 5.4973                 6.1119
 IR Inten    --     74.9849               164.5803                55.6647

                     82                     83                     84
                      A                      A                      A
 Frequencies --   3062.6096              3126.2501              3127.0077
 Red. masses --      1.1061                 1.0997                 1.0995
 Frc consts  --      6.1126                 6.3322                 6.3346
 IR Inten    --     69.1712                39.2790                31.3614

                     85                     86                     87
                      A                      A                      A
 Frequencies --   3157.1220              3172.1206              3194.1977
 Red. masses --      1.0862                 1.0915                 1.0914
 Frc consts  --      6.3790                 6.4710                 6.5610
 IR Inten    --     15.8620                33.0130                15.1863

                     88                     89                     90
                      A                      A                      A
 Frequencies --   3197.2753              3209.9642              3223.8973
 Red. masses --      1.0928                 1.0867                 1.0925
 Frc consts  --      6.5818                 6.5971                 6.6900
 IR Inten    --     41.6210                22.2957                 6.5574

 - Thermochemistry -
 -------------------
 Temperature   298.150 Kelvin.  Pressure   1.00000 Atm.
 Atom     1 has atomic number  6 and mass  12.00000

 Molecular mass:   268.07356 amu.
 Principal axes and moments of inertia in atomic units:
                           1         2         3
     Eigenvalues --  3841.597775871.003989683.81432
           X            0.98778  -0.15402  -0.02385
           Y            0.15454   0.98775   0.02144
           Z            0.02026  -0.02487   0.99949
 This molecule is an asymmetric top.
 Rotational symmetry number  1.
 Warning -- assumption of classical behavior for rotation
           may cause significant error
 Rotational temperatures (Kelvin)      0.02255     0.01475     0.00894
 Rotational constants (GHZ):           0.46979     0.30740     0.18637
 Zero-point vibrational energy     632808.4 (Joules/Mol)
                                  151.24483 (Kcal/Mol)
 Warning -- explicit consideration of  26 degrees of freedom as
           vibrations may cause significant error
 Vibrational temperatures:     46.05    68.76    98.92   149.10   165.96
          (Kelvin)            184.24   244.00   249.82   285.67   367.18
                              384.61   404.08   420.20   470.06   485.12
                              520.67   561.73   566.15   571.15   602.35
                              628.89   695.64   728.43   735.18   825.98
                              871.52   901.39   933.17   958.23  1038.86
                             1043.75  1068.14  1072.41  1136.42  1159.33
                             1171.54  1221.87  1250.83  1270.81  1277.58
                             1343.07  1425.54  1427.32  1441.62  1495.47
                             1543.64  1596.01  1601.71  1645.38  1671.51
                             1672.24  1697.94  1718.51  1731.68  1737.44
                             1754.31  1783.96  1812.61  1814.59  1883.56
                             1939.33  1971.75  1987.67  2019.29  2106.79
                             2117.40  2128.98  2130.64  2134.40  2134.72
                             2153.10  2154.34  2175.94  2184.67  2261.40
                             2303.42  2328.22  2341.32  4320.69  4322.04
                             4406.12  4406.41  4497.98  4499.07  4542.39
                             4563.97  4595.74  4600.17  4618.42  4638.47

 Zero-point correction=                           0.241024 (Hartree/Particle)
 Thermal correction to Energy=                    0.257543
 Thermal correction to Enthalpy=                  0.258487
 Thermal correction to Gibbs Free Energy=         0.196032
 Sum of electronic and zero-point Energies=           -917.943683
 Sum of electronic and thermal Energies=              -917.927164
 Sum of electronic and thermal Enthalpies=            -917.926220
 Sum of electronic and thermal Free Energies=         -917.988674

                     E (Thermal)             CV                S
                      KCal/Mol        Cal/Mol-Kelvin    Cal/Mol-Kelvin
 Total                  161.610             64.666            131.446
 Electronic               0.000              0.000              1.377
 Translational            0.889              2.981             42.657
 Rotational               0.889              2.981             33.745
 Vibrational            159.833             58.704             53.666
 Vibration     1          0.594              1.983              5.701
 Vibration     2          0.595              1.978              4.907
 Vibration     3          0.598              1.969              4.189
 Vibration     4          0.605              1.946              3.385
 Vibration     5          0.608              1.937              3.177
 Vibration     6          0.611              1.925              2.975
 Vibration     7          0.625              1.880              2.440
 Vibration     8          0.627              1.875              2.396
 Vibration     9          0.637              1.842              2.146
 Vibration    10          0.666              1.754              1.694
 Vibration    11          0.672              1.733              1.614
 Vibration    12          0.681              1.709              1.529
 Vibration    13          0.687              1.689              1.462
 Vibration    14          0.710              1.622              1.276
 Vibration    15          0.718              1.601              1.225
 Vibration    16          0.736              1.551              1.114
 Vibration    17          0.758              1.491              0.999
 Vibration    18          0.761              1.484              0.987
 Vibration    19          0.763              1.477              0.974
 Vibration    20          0.782              1.430              0.897
 Vibration    21          0.797              1.389              0.836
 Vibration    22          0.840              1.287              0.701
 Vibration    23          0.862              1.236              0.643
 Vibration    24          0.866              1.226              0.631
 Vibration    25          0.930              1.087              0.496
 Vibration    26          0.964              1.020              0.440

 Optimization completed.
    -- Stationary point found.
 Normal termination of Gaussian 16 at Sat Feb 10 20:15:45 2024.
