 Q-Chem 5.4, Q-Chem, Inc., Pleasanton, CA (2021)
 Q-Chem 5.4.0 for Intel X86 EM64T Linux

User input:
--------------------------------------------------------------
$molecule
0 1
C                 -1.7435860000      1.4579360000      1.0133250000
C                 -2.9848160000      0.6889460000      0.7914970000
C                 -3.0408480000     -0.5194970000      0.2076680000
C                 -1.7445800000     -1.1336290000     -0.2533610000
C                 -0.4607710000     -0.3648040000     -0.0361180000
C                 -0.4527790000      0.8469640000      0.5550450000
O                 -1.7120980000     -2.2219650000     -0.7900160000
O                 -1.7871350000      2.5478180000      1.5509890000
I                  1.2450140000      2.0136230000      0.9152490000
I                  1.2515930000     -1.3527820000     -0.7303510000
H                 -3.8680390000      1.1999380000      1.1507370000
C                 -4.3484970000     -1.2910800000     -0.0077380000
C                 -5.5552210000     -0.4985410000      0.5298060000
C                 -4.2914960000     -2.6441120000      0.7453490000
C                 -4.5727880000     -1.5346850000     -1.5214890000
H                 -5.6774420000      0.4613740000      0.0205170000
H                 -5.4807940000     -0.3140190000      1.6050580000
H                 -6.4653360000     -1.0781200000      0.3590760000
H                 -4.1319730000     -2.4879220000      1.8163180000
H                 -3.5003230000     -3.2872510000      0.3640380000
H                 -5.2457510000     -3.1641520000      0.6230540000
H                 -4.6139170000     -0.5872650000     -2.0669360000
H                 -5.5297730000     -2.0439800000     -1.6658090000
H                 -3.7879020000     -2.1531750000     -1.9532260000
$end
$rem
MAX_SCF_CYCLES=200
BASIS  =  6-311++G(d,p)
GUI  =  2
JOB_TYPE  =  SP
METHOD  =  B3LYP
SOLVENT_METHOD = PCM
$end
$pcm
theory = CPCM
$end
$solvent
dielectric 37.219
opticaldielectric 1.43
$end

--------------------------------------------------------------

             Standard Nuclear Orientation (Angstroms)
    I     Atom           X                Y                Z
 ----------------------------------------------------------------
    1      C      -1.7435860000     1.4579360000     1.0133250000
    2      C      -2.9848160000     0.6889460000     0.7914970000
    3      C      -3.0408480000    -0.5194970000     0.2076680000
    4      C      -1.7445800000    -1.1336290000    -0.2533610000
    5      C      -0.4607710000    -0.3648040000    -0.0361180000
    6      C      -0.4527790000     0.8469640000     0.5550450000
    7      O      -1.7120980000    -2.2219650000    -0.7900160000
    8      O      -1.7871350000     2.5478180000     1.5509890000
    9      I       1.2450140000     2.0136230000     0.9152490000
   10      I       1.2515930000    -1.3527820000    -0.7303510000
   11      H      -3.8680390000     1.1999380000     1.1507370000
   12      C      -4.3484970000    -1.2910800000    -0.0077380000
   13      C      -5.5552210000    -0.4985410000     0.5298060000
   14      C      -4.2914960000    -2.6441120000     0.7453490000
   15      C      -4.5727880000    -1.5346850000    -1.5214890000
   16      H      -5.6774420000     0.4613740000     0.0205170000
   17      H      -5.4807940000    -0.3140190000     1.6050580000
   18      H      -6.4653360000    -1.0781200000     0.3590760000
   19      H      -4.1319730000    -2.4879220000     1.8163180000
   20      H      -3.5003230000    -3.2872510000     0.3640380000
   21      H      -5.2457510000    -3.1641520000     0.6230540000
   22      H      -4.6139170000    -0.5872650000    -2.0669360000
   23      H      -5.5297730000    -2.0439800000    -1.6658090000
   24      H      -3.7879020000    -2.1531750000    -1.9532260000
 ----------------------------------------------------------------

    8  -14376.6914625616      8.62e-06  Convergence criterion met
 Total energy in the final basis set =   -14376.6914625616

                    Orbital Energies (a.u.)
 --------------------------------------------------------------

 Alpha MOs
 -- Occupied --
*****************-176.3166-176.3158-165.7204-165.7196-165.7184-165.7181
********-165.7173 -35.8131 -35.8123 -31.3063 -31.3055 -31.3005 -31.2998
-31.2998 -31.2990 -22.9568 -22.9560 -22.9555 -22.9551 -22.9548 -22.9543
-22.9510 -22.9510 -22.9502 -22.9502 -19.1527 -19.1506 -10.3050 -10.3008
-10.2628 -10.2610 -10.2259 -10.2088 -10.2051 -10.1598 -10.1589 -10.1589
 -6.3624  -6.3617  -4.7748  -4.7741  -4.7608  -4.7601  -4.7592  -4.7585
 -2.0411  -2.0401  -2.0363  -2.0359  -2.0352  -2.0346  -2.0233  -2.0231
 -2.0225  -2.0223  -1.0895  -1.0848  -0.8818  -0.8432  -0.7880  -0.7315
 -0.6963  -0.6891  -0.6808  -0.6712  -0.6123  -0.6029  -0.5549  -0.5418
 -0.5003  -0.4834  -0.4679  -0.4656  -0.4449  -0.4431  -0.4364  -0.4276
 -0.4145  -0.3902  -0.3888  -0.3818  -0.3694  -0.3619  -0.3548  -0.3433
 -0.3400  -0.3032  -0.3021  -0.2971  -0.2916  -0.2905  -0.2616  -0.2587

          Ground-State Mulliken Net Atomic Charges

     Atom                 Charge (a.u.)
  ----------------------------------------
      1 C                    -0.994843
      2 C                    -0.472952
      3 C                     1.295734
      4 C                    -0.857451
      5 C                    -0.181718
      6 C                     1.006954
      7 O                    -0.171688
      8 O                    -0.223962
      9 I                     0.094427
     10 I                     0.099820
     11 H                     0.262345
     12 C                     0.571503
     13 C                    -0.508586
     14 C                    -0.717616
     15 C                    -0.717638
     16 H                     0.151379
     17 H                     0.151334
     18 H                     0.192154
     19 H                     0.155636
     20 H                     0.177535
     21 H                     0.177187
     22 H                     0.155931
     23 H                     0.176936
     24 H                     0.177580
  ----------------------------------------
  Sum of atomic charges =     0.000000

                    Cartesian Multipole Moments
 -----------------------------------------------------------------
    Charge (ESU x 10^10)
                 0.0000
    Dipole Moment (Debye)
         X      -2.5140      Y      -1.1653      Z      -0.2566
       Tot       2.7828
    Quadrupole Moments (Debye-Ang)
        XX    -106.1024     XY       4.8524     YY    -141.4414
        XZ      -0.5325     YZ      -7.3525     ZZ    -131.3646

 Total job time:  52.16s(wall), 290.29s(cpu)
        *  Thank you very much for using Q-Chem.  Have a nice day.  *
