 Q-Chem 5.4, Q-Chem, Inc., Pleasanton, CA (2021)
 Q-Chem 5.4.0 for Intel X86 EM64T Linux

User input:
--------------------------------------------------------------
$molecule
0 1
C                 -0.5633810000     -1.1483750000      2.4870270000
C                 -0.4787080000     -1.9503900000      1.2419870000
C                  0.1014340000     -1.4720530000      0.1364800000
C                  0.6712660000     -0.1085850000      0.0984480000
C                  0.5697120000      0.7423070000      1.3414050000
C                 -0.0695400000      0.2620300000      2.4225340000
O                 -0.9796270000     -1.6421930000      3.5167960000
O                  1.1933720000      0.3326030000     -0.9081440000
S                 -0.4039980000      1.3407320000      3.8692160000
C                  0.6545030000      0.7187030000      5.1778520000
C                  0.1125190000     -0.1315280000      6.1390240000
C                  1.9888080000      1.1245010000      5.2080940000
C                  2.8018120000      0.6533960000      6.2354870000
C                  0.9382620000     -0.5860740000      7.1638150000
C                  2.2769360000     -0.1961890000      7.2098580000
O                  0.0871370000      2.6653520000      3.4697920000
O                 -1.8053610000      1.1523550000      4.2364570000
H                 -0.8912050000     -2.9511500000      1.3050890000
H                  0.1917050000     -2.0465960000     -0.7785180000
H                 -0.9271650000     -0.4236070000      6.0756520000
H                  2.3763390000      1.7933950000      4.4494420000
H                  3.8411660000      0.9567200000      6.2780190000
H                  0.5354060000     -1.2435600000      7.9251310000
H                  2.9145870000     -0.5556060000      8.0096380000
C                  1.3378690000      2.0666750000      1.2384830000
C                  0.6841940000      3.2174280000      0.5332340000
O                  2.4782800000      2.0539630000      1.6362750000
H                 -0.3096940000      3.4046960000      0.9420980000
H                  0.5851500000      2.9623680000     -0.5268660000
H                  1.3068130000      4.1056040000      0.6370160000
$end
$rem
MAX_SCF_CYCLES=200
BASIS  =  6-311++G(d,p)
GUI  =  2
JOB_TYPE  =  SP
METHOD  =  B3LYP
SOLVENT_METHOD = PCM
$end
$pcm
theory = CPCM
$end
$solvent
dielectric 37.219
opticaldielectric 1.43
$end

--------------------------------------------------------------

             Standard Nuclear Orientation (Angstroms)
    I     Atom           X                Y                Z
 ----------------------------------------------------------------
    1      C      -0.5633810000    -1.1483750000     2.4870270000
    2      C      -0.4787080000    -1.9503900000     1.2419870000
    3      C       0.1014340000    -1.4720530000     0.1364800000
    4      C       0.6712660000    -0.1085850000     0.0984480000
    5      C       0.5697120000     0.7423070000     1.3414050000
    6      C      -0.0695400000     0.2620300000     2.4225340000
    7      O      -0.9796270000    -1.6421930000     3.5167960000
    8      O       1.1933720000     0.3326030000    -0.9081440000
    9      S      -0.4039980000     1.3407320000     3.8692160000
   10      C       0.6545030000     0.7187030000     5.1778520000
   11      C       0.1125190000    -0.1315280000     6.1390240000
   12      C       1.9888080000     1.1245010000     5.2080940000
   13      C       2.8018120000     0.6533960000     6.2354870000
   14      C       0.9382620000    -0.5860740000     7.1638150000
   15      C       2.2769360000    -0.1961890000     7.2098580000
   16      O       0.0871370000     2.6653520000     3.4697920000
   17      O      -1.8053610000     1.1523550000     4.2364570000
   18      H      -0.8912050000    -2.9511500000     1.3050890000
   19      H       0.1917050000    -2.0465960000    -0.7785180000
   20      H      -0.9271650000    -0.4236070000     6.0756520000
   21      H       2.3763390000     1.7933950000     4.4494420000
   22      H       3.8411660000     0.9567200000     6.2780190000
   23      H       0.5354060000    -1.2435600000     7.9251310000
   24      H       2.9145870000    -0.5556060000     8.0096380000
   25      C       1.3378690000     2.0666750000     1.2384830000
   26      C       0.6841940000     3.2174280000     0.5332340000
   27      O       2.4782800000     2.0539630000     1.6362750000
   28      H      -0.3096940000     3.4046960000     0.9420980000
   29      H       0.5851500000     2.9623680000    -0.5268660000
   30      H       1.3068130000     4.1056040000     0.6370160000
 ----------------------------------------------------------------

    9   -1314.0030301195      5.89e-06  Convergence criterion met
 Total energy in the final basis set =    -1314.0030301195

                    Orbital Energies (a.u.)
 --------------------------------------------------------------

 Alpha MOs
 -- Occupied --
-89.0794 -19.1637 -19.1594 -19.1477 -19.1449 -19.1435 -10.3113 -10.3103
-10.3031 -10.2590 -10.2552 -10.2282 -10.2245 -10.2232 -10.2056 -10.2044
-10.1972 -10.1950 -10.1948 -10.1794  -8.1431  -6.1059  -6.1051  -6.1040
 -1.1412  -1.0976  -1.0929  -1.0837  -1.0373  -0.8919  -0.8879  -0.8272
 -0.7964  -0.7743  -0.7684  -0.7359  -0.7037  -0.6662  -0.6425  -0.6331
 -0.6019  -0.5793  -0.5601  -0.5490  -0.5317  -0.5131  -0.5010  -0.4983
 -0.4949  -0.4819  -0.4772  -0.4715  -0.4640  -0.4636  -0.4589  -0.4472
 -0.4426  -0.4402  -0.4348  -0.4064  -0.3987  -0.3909  -0.3876  -0.3707
 -0.3679  -0.3567  -0.3408  -0.3353  -0.3313  -0.3202  -0.3124  -0.3068
 -0.2861  -0.2800  -0.2783

          Ground-State Mulliken Net Atomic Charges

     Atom                 Charge (a.u.)
  ----------------------------------------
      1 C                    -0.227788
      2 C                     0.002522
      3 C                    -0.086802
      4 C                    -0.433510
      5 C                     0.870812
      6 C                    -0.094731
      7 O                    -0.221451
      8 O                    -0.225551
      9 S                     0.476678
     10 C                     0.738539
     11 C                    -0.106642
     12 C                    -0.383859
     13 C                    -0.519036
     14 C                    -0.449404
     15 C                    -0.336992
     16 O                    -0.153015
     17 O                    -0.157691
     18 H                     0.280943
     19 H                     0.275572
     20 H                     0.276745
     21 H                     0.254583
     22 H                     0.240849
     23 H                     0.237414
     24 H                     0.215037
     25 C                    -0.212656
     26 C                    -0.663226
     27 O                    -0.224094
     28 H                     0.206235
     29 H                     0.226985
     30 H                     0.193534
  ----------------------------------------
  Sum of atomic charges =     0.000000

                    Cartesian Multipole Moments
 -----------------------------------------------------------------
    Charge (ESU x 10^10)
                -0.0000
    Dipole Moment (Debye)
         X       1.2177      Y      -4.6911      Z      -0.3938
       Tot       4.8625
    Quadrupole Moments (Debye-Ang)
        XX    -130.2242     XY      -1.5920     YY    -122.8281
        XZ      25.0963     YZ     -14.6148     ZZ    -108.0606

 Total job time:  66.56s(wall), 465.76s(cpu)
        *  Thank you very much for using Q-Chem.  Have a nice day.  *
