 Q-Chem 5.4, Q-Chem, Inc., Pleasanton, CA (2021)
 Q-Chem 5.4.0 for Intel X86 EM64T Linux

User input:
--------------------------------------------------------------
$molecule
-2 1
C                 -0.8014290000      3.7904200000     -0.1332010000
C                 -1.8533490000      3.1112850000      0.4496360000
C                 -1.6826620000      1.7610260000      0.8649680000
C                  0.4701140000      3.1884060000     -0.3406010000
C                  0.6385420000      1.8034320000      0.0726640000
C                 -0.4563840000      1.1443430000      0.6704780000
C                  1.5346760000      3.9386680000     -0.9448370000
C                  2.7534860000      3.2209840000     -1.0914600000
C                  2.9174200000      1.8580640000     -0.7422480000
C                  1.8941450000      1.0897280000     -0.1141740000
O                  1.4270430000      5.1751860000     -1.3624710000
O                  2.0603470000     -0.1423520000      0.2600920000
N                  3.8357260000      3.9603520000     -1.6286110000
H                 -0.9054550000      4.8224010000     -0.4564170000
H                 -2.8122640000      3.6091690000      0.5947040000
H                 -2.5067590000      1.2193670000      1.3276440000
H                 -0.2903450000      0.1132370000      0.9709520000
H                  3.4426420000      4.7666270000     -2.1127750000
H                  4.4473840000      3.3789240000     -2.1899510000
N                  4.2123410000      1.2602200000     -1.0464260000
C                  5.0241780000      1.0368400000      0.1470930000
C                  4.1252850000      0.0609050000     -1.8764220000
H                  5.1323930000      1.9847460000      0.6811750000
H                  6.0309520000      0.6924120000     -0.1436640000
H                  4.5751860000      0.2940220000      0.8263550000
H                  3.5753060000      0.3042790000     -2.7912190000
H                  3.6047800000     -0.7649930000     -1.3691830000
H                  5.1411290000     -0.2581420000     -2.1630260000
$end
$rem
MAX_SCF_CYCLES=200
BASIS  =  6-311++G(d,p)
GUI  =  2
JOB_TYPE  =  SP
METHOD  =  B3LYP
SOLVENT_METHOD = COSMO
$end
$solvent
dielectric 37.219
opticaldielectric 1.43
$end

--------------------------------------------------------------

             Standard Nuclear Orientation (Angstroms)
    I     Atom           X                Y                Z
 ----------------------------------------------------------------
    1      C       2.9231834513    -0.7813192378    -0.0204765360
    2      C       3.8260527109     0.2637335309    -0.0081959069
    3      C       3.3562920661     1.6064758805     0.0264740879
    4      C       1.5169236417    -0.5709798932     0.0006877035
    5      C       1.0385285765     0.8030520439     0.0226724592
    6      C       1.9905799236     1.8441531308     0.0413698759
    7      C       0.6187733331    -1.6910521017    -0.0064351503
    8      C      -0.7596337932    -1.3426954523     0.0201709205
    9      C      -1.2410906522    -0.0109263956    -0.0108899279
   10      C      -0.3815868847     1.1256771617     0.0250893890
   11      O       0.9956475305    -2.9441922635    -0.0572815791
   12      O      -0.8209744468     2.3470396052     0.0556118692
   13      N      -1.6630290496    -2.4322777486     0.0760912576
   14      H       3.2563788721    -1.8150947120    -0.0442221921
   15      H       4.8971325362     0.0611050353    -0.0216450682
   16      H       4.0620762782     2.4361241042     0.0387984273
   17      H       1.5950481025     2.8561301865     0.0635097630
   18      H      -1.1624098760    -3.2593085512    -0.2470336100
   19      H      -2.5253210973    -2.2323992053    -0.4176572778
   20      N      -2.6886899607     0.1558468261    -0.0692426038
   21      C      -3.2535254387     0.6226175795     1.1943045813
   22      C      -3.1418173170     0.9647086098    -1.1985108581
   23      H      -2.9582881680    -0.0688465501     1.9881510182
   24      H      -4.3549902247     0.6232039093     1.1348138360
   25      H      -2.9098092086     1.6360657918     1.4580300749
   26      H      -2.7547417584     0.5264151587    -2.1240554104
   27      H      -2.7932011352     2.0063308856    -1.1367519972
   28      H      -4.2433036211     0.9418425325    -1.2440842904
 ----------------------------------------------------------------

   11    -724.6134327345      8.96e-06  Convergence criterion met
 Total energy in the final basis set =     -724.6134327345
    6    -724.8958217023      2.68e-06  Convergence criterion met
 Total energy in the final basis set =     -724.8958217023

                    Orbital Energies (a.u.)
 --------------------------------------------------------------

 Alpha MOs
 -- Occupied --
-19.0214 -19.0180 -14.2819 -14.2794 -10.1723 -10.1641 -10.1626 -10.1605
-10.1579 -10.1480 -10.1465 -10.1447 -10.1441 -10.1429 -10.1370 -10.1340
 -0.9383  -0.9317  -0.8922  -0.8594  -0.8215  -0.7518  -0.7208  -0.6927
 -0.6812  -0.6425  -0.6109  -0.5740  -0.5557  -0.5263  -0.5023  -0.4769
 -0.4572  -0.4359  -0.4291  -0.4263  -0.4155  -0.4047  -0.3942  -0.3834
 -0.3771  -0.3674  -0.3654  -0.3581  -0.3436  -0.3380  -0.3312  -0.3216
 -0.3122  -0.3015  -0.2775  -0.2289  -0.2231  -0.2187  -0.2037  -0.1871
 -0.1789  -0.1121

          Ground-State Mulliken Net Atomic Charges

     Atom                 Charge (a.u.)
  ----------------------------------------
      1 C                    -0.201384
      2 C                    -0.387196
      3 C                    -0.433375
      4 C                     0.744655
      5 C                     0.145827
      6 C                    -0.062882
      7 C                    -0.657792
      8 C                     0.093683
      9 C                    -0.252540
     10 C                    -0.837291
     11 O                    -0.786329
     12 O                    -0.667592
     13 N                    -0.509514
     14 H                     0.147299
     15 H                     0.174636
     16 H                     0.174872
     17 H                     0.149070
     18 H                     0.279989
     19 H                     0.286172
     20 N                     0.196524
     21 C                    -0.251701
     22 C                    -0.202231
     23 H                     0.134983
     24 H                     0.140363
     25 H                     0.157388
     26 H                     0.139117
     27 H                     0.156308
     28 H                     0.128942
  ----------------------------------------
  Sum of atomic charges =    -2.000000

                    Cartesian Multipole Moments
 -----------------------------------------------------------------
    Charge (ESU x 10^10)
                -9.6064
    Dipole Moment (Debye)
         X      -3.7597      Y       3.0658      Z      -1.3502
       Tot       5.0356
    Quadrupole Moments (Debye-Ang)
        XX    -121.7569     XY      13.3968     YY    -158.8638
        XZ       2.9469     YZ       2.7262     ZZ    -106.9383

 Total job time:  63.33s(wall), 485.16s(cpu)
        *  Thank you very much for using Q-Chem.  Have a nice day.  *
