 Gaussian 16, Revision A.03,
 Gaussian 16:  ES64L-G16RevA.03 25-Dec-2016

 ----------------------------------------------------------------
 #P UB3LYP/6-311++G(d,p) SCRF=(PCM,Solvent=n,n-DiMethylFormamide)
 ----------------------------------------------------------------

 ------------------
 Quinone PCM in DMF
 ------------------
 Symbolic Z-matrix:
 Charge =  0 Multiplicity = 1

                         Standard orientation:
 ---------------------------------------------------------------------
 Center     Atomic      Atomic             Coordinates (Angstroms)
 Number     Number       Type             X           Y           Z
 ---------------------------------------------------------------------
      1          8           0       -2.722489   -2.200432    0.000314
      2          6           0       -2.471644   -0.886215    0.000024
      3          6           0       -3.567788   -0.008452    0.000004
      4          6           0       -3.363496    1.360317   -0.000026
      5          6           0       -2.070096    1.894681   -0.000069
      6          6           0       -0.974307    1.043248   -0.000149
      7          6           0        0.396731    1.636627   -0.000557
      8          8           0        0.566389    2.844729    0.000662
      9          6           0        1.554547    0.695274   -0.000209
     10          6           0        2.853303    1.211415   -0.000189
     11          6           0        3.946274    0.352386    0.000039
     12          6           0        3.751346   -1.031564    0.000229
     13          6           0        2.463757   -1.554687    0.000145
     14          6           0        1.358911   -0.697006   -0.000047
     15          6           0       -0.009030   -1.275238   -0.000226
     16          8           0       -0.165884   -2.504970   -0.000254
     17          6           0       -1.155033   -0.361967   -0.000073
     18          1           0       -1.850177   -2.664290    0.000657
     19          1           0       -4.563544   -0.434769    0.000089
     20          1           0       -4.219010    2.026342   -0.000001
     21          1           0       -1.901160    2.963488   -0.000113
     22          1           0        2.981154    2.286766   -0.000416
     23          1           0        4.951730    0.757643    0.000036
     24          1           0        4.605308   -1.699229    0.000401
     25          1           0        2.290715   -2.623473    0.000199
 ---------------------------------------------------------------------

 SCF Done:  E(UB3LYP) =  -764.221753566     A.U. after   14 cycles

 The electronic state is 1-A.
 Alpha  occ. eigenvalues --  -19.16663 -19.14317 -19.13377 -10.29254 -10.28624
 Alpha  occ. eigenvalues --  -10.27067 -10.21397 -10.21315 -10.21169 -10.21155
 Alpha  occ. eigenvalues --  -10.20489 -10.20167 -10.20135 -10.20089 -10.20045
 Alpha  occ. eigenvalues --  -10.19786 -10.19616  -1.09598  -1.06888  -1.06559
 Alpha  occ. eigenvalues --   -0.89769  -0.88305  -0.81788  -0.78328  -0.77663
 Alpha  occ. eigenvalues --   -0.77302  -0.69782  -0.67257  -0.65905  -0.62314
 Alpha  occ. eigenvalues --   -0.60267  -0.56794  -0.56320  -0.54276  -0.51190
 Alpha  occ. eigenvalues --   -0.49893  -0.49012  -0.48016  -0.46729  -0.46575
 Alpha  occ. eigenvalues --   -0.45521  -0.45319  -0.44758  -0.43288  -0.41969
 Alpha  occ. eigenvalues --   -0.41669  -0.39874  -0.38879  -0.38338  -0.38060
 Alpha  occ. eigenvalues --   -0.37152  -0.35997  -0.29794  -0.29583  -0.28221
 Alpha  occ. eigenvalues --   -0.28073  -0.28058  -0.25408
 Alpha virt. eigenvalues --   -0.12429  -0.07452  -0.04096  -0.02315  -0.00659
 Alpha virt. eigenvalues --    0.00226   0.00842   0.01672   0.02161   0.02842
 Alpha virt. eigenvalues --    0.03545   0.03782   0.03970   0.04235   0.04284

  Beta  occ. eigenvalues --  -19.16663 -19.14317 -19.13377 -10.29254 -10.28624
  Beta  occ. eigenvalues --  -10.27067 -10.21397 -10.21315 -10.21169 -10.21155
  Beta  occ. eigenvalues --  -10.20489 -10.20167 -10.20135 -10.20089 -10.20045
  Beta  occ. eigenvalues --  -10.19786 -10.19616  -1.09598  -1.06888  -1.06559
  Beta  occ. eigenvalues --   -0.89769  -0.88305  -0.81788  -0.78328  -0.77663
  Beta  occ. eigenvalues --   -0.77302  -0.69782  -0.67257  -0.65905  -0.62314
  Beta  occ. eigenvalues --   -0.60267  -0.56794  -0.56320  -0.54276  -0.51190
  Beta  occ. eigenvalues --   -0.49893  -0.49012  -0.48016  -0.46729  -0.46575
  Beta  occ. eigenvalues --   -0.45521  -0.45319  -0.44758  -0.43288  -0.41969
  Beta  occ. eigenvalues --   -0.41669  -0.39874  -0.38879  -0.38338  -0.38060
  Beta  occ. eigenvalues --   -0.37152  -0.35997  -0.29794  -0.29583  -0.28221
  Beta  occ. eigenvalues --   -0.28073  -0.28058  -0.25408
  Beta virt. eigenvalues --   -0.12429  -0.07452  -0.04096  -0.02315  -0.00659
  Beta virt. eigenvalues --    0.00226   0.00842   0.01672   0.02161   0.02842
  Beta virt. eigenvalues --    0.03545   0.03782   0.03970   0.04235   0.04284

 Mulliken charges and spin densities:
               1          2
     1  O   -0.302149  -0.000000
     2  C   -0.122592   0.000000
     3  C   -0.139673   0.000000
     4  C   -0.342814   0.000000
     5  C   -0.028190   0.000000
     6  C    0.480125   0.000000
     7  C   -0.452108  -0.000000
     8  O   -0.274755   0.000000
     9  C   -0.049602  -0.000000
    10  C    0.139000   0.000000
    11  C   -0.397860  -0.000000
    12  C   -0.413974  -0.000000
    13  C    0.177644   0.000000
    14  C    0.199730  -0.000000
    15  C   -0.354508   0.000000
    16  O   -0.318084  -0.000000
    17  C    0.448101  -0.000000
    18  H    0.342267   0.000000
    19  H    0.215884   0.000000
    20  H    0.220200  -0.000000
    21  H    0.178828  -0.000000
    22  H    0.185094  -0.000000
    23  H    0.209672  -0.000000
    24  H    0.208016   0.000000
    25  H    0.191747  -0.000000
 Sum of Mulliken charges =  -0.00000   0.00000

 Dipole moment (field-independent basis, Debye):
    X=              1.7043    Y=              0.1606    Z=             -0.0013  Tot=              1.7119
 Quadrupole moment (field-independent basis, Debye-Ang):
   XX=            -72.5387   YY=           -108.9599   ZZ=            -99.7553
   XY=            -11.0532   XZ=             -0.0015   YZ=             -0.0101

 Normal termination of Gaussian 16 at Sun Jan 14 01:06:43 2024.
