 Gaussian 16, Revision A.03,
 Gaussian 16:  ES64L-G16RevA.03 25-Dec-2016

 --------------------------------------
 #P UB3LYP/6-311++G(d,p) nosym opt freq
 --------------------------------------

 --------
 Oxidized
 --------
 Symbolic Z-matrix:
 Charge =  0 Multiplicity = 1

 SCF Done:  E(UB3LYP) =  -764.213111626     A.U. after   15 cycles
 SCF Done:  E(UB3LYP) =  -764.213111474     A.U. after    8 cycles
 Optimization completed.
    -- Stationary point found.
 Normal termination of Gaussian 16 at Wed Dec 27 19:54:28 2023.

 ----------------------------------------------------------------------
 #P Geom=AllCheck Guess=TCheck SCRF=Check GenChk UB3LYP/6-311++G(d,p) F
 req
 ----------------------------------------------------------------------

 Structure from the checkpoint file:  "177.chk"
 --------
 Oxidized
 --------
 Charge =  0 Multiplicity = 1

                          Input orientation:
 ---------------------------------------------------------------------
 Center     Atomic      Atomic             Coordinates (Angstroms)
 Number     Number       Type             X           Y           Z
 ---------------------------------------------------------------------
      1          8           0        2.577111    2.523257   -0.207995
      2          6           0        2.460890    1.209577    0.017456
      3          6           0        3.634923    0.478791    0.261581
      4          6           0        3.570276   -0.882762    0.500865
      5          6           0        2.342929   -1.555098    0.504572
      6          6           0        1.171905   -0.850023    0.265270
      7          6           0       -0.126370   -1.589111    0.273851
      8          8           0       -0.172993   -2.789389    0.487056
      9          6           0       -1.367917   -0.803268    0.013672
     10          6           0       -2.602408   -1.458402    0.013657
     11          6           0       -3.771434   -0.745522   -0.226547
     12          6           0       -3.717604    0.629811   -0.469189
     13          6           0       -2.494870    1.290463   -0.471360
     14          6           0       -1.314222    0.580285   -0.230494
     15          6           0       -0.017435    1.304105   -0.237064
     16          8           0        0.014218    2.524249   -0.454068
     17          6           0        1.209540    0.544427    0.017514
     18          1           0        1.666392    2.875509   -0.358332
     19          1           0        4.578320    1.011001    0.256004
     20          1           0        4.484661   -1.434498    0.687898
     21          1           0        2.283126   -2.619366    0.690703
     22          1           0       -2.620841   -2.524333    0.203860
     23          1           0       -4.726565   -1.258258   -0.225521
     24          1           0       -4.630635    1.183365   -0.656219
     25          1           0       -2.430999    2.355189   -0.657173
 ---------------------------------------------------------------------

 SCF Done:  E(UB3LYP) =  -764.213111474     A.U. after    1 cycles

 Alpha  occ. eigenvalues --  -19.16199 -19.14127 -19.12945 -10.29128 -10.28236
 Alpha  occ. eigenvalues --  -10.26993 -10.21556 -10.21387 -10.21382 -10.21123
 Alpha  occ. eigenvalues --  -10.20762 -10.20756 -10.20702 -10.20502 -10.20386
 Alpha  occ. eigenvalues --  -10.19918 -10.19634  -1.09241  -1.06401  -1.06258
 Alpha  occ. eigenvalues --   -0.89954  -0.88456  -0.82009  -0.78598  -0.77901
 Alpha  occ. eigenvalues --   -0.77329  -0.69839  -0.67505  -0.66055  -0.62433
 Alpha  occ. eigenvalues --   -0.60371  -0.56992  -0.56449  -0.54160  -0.51188
 Alpha  occ. eigenvalues --   -0.50118  -0.49311  -0.48198  -0.46644  -0.46185
 Alpha  occ. eigenvalues --   -0.45781  -0.45434  -0.44658  -0.42992  -0.41765
 Alpha  occ. eigenvalues --   -0.41614  -0.40158  -0.39067  -0.38475  -0.38195
 Alpha  occ. eigenvalues --   -0.37368  -0.35812  -0.29642  -0.29480  -0.28493
 Alpha  occ. eigenvalues --   -0.28355  -0.27664  -0.25245
 Alpha virt. eigenvalues --   -0.12345  -0.07553  -0.04374  -0.02465  -0.01137
 Alpha virt. eigenvalues --   -0.00434   0.00844   0.01215   0.01890   0.02667
 Alpha virt. eigenvalues --    0.03551   0.03594   0.03758   0.04198   0.04213

  Beta  occ. eigenvalues --  -19.16199 -19.14127 -19.12945 -10.29128 -10.28236
  Beta  occ. eigenvalues --  -10.26993 -10.21556 -10.21387 -10.21382 -10.21123
  Beta  occ. eigenvalues --  -10.20762 -10.20756 -10.20702 -10.20502 -10.20386
  Beta  occ. eigenvalues --  -10.19918 -10.19634  -1.09241  -1.06401  -1.06258
  Beta  occ. eigenvalues --   -0.89954  -0.88456  -0.82009  -0.78598  -0.77901
  Beta  occ. eigenvalues --   -0.77329  -0.69839  -0.67505  -0.66055  -0.62433
  Beta  occ. eigenvalues --   -0.60371  -0.56992  -0.56449  -0.54160  -0.51188
  Beta  occ. eigenvalues --   -0.50118  -0.49311  -0.48198  -0.46644  -0.46185
  Beta  occ. eigenvalues --   -0.45781  -0.45434  -0.44658  -0.42992  -0.41765
  Beta  occ. eigenvalues --   -0.41614  -0.40158  -0.39067  -0.38475  -0.38195
  Beta  occ. eigenvalues --   -0.37368  -0.35812  -0.29642  -0.29480  -0.28493
  Beta  occ. eigenvalues --   -0.28355  -0.27664  -0.25245
  Beta virt. eigenvalues --   -0.12345  -0.07553  -0.04374  -0.02465  -0.01137
  Beta virt. eigenvalues --   -0.00434   0.00844   0.01215   0.01890   0.02667
  Beta virt. eigenvalues --    0.03551   0.03594   0.03758   0.04198   0.04213

 Mulliken charges and spin densities:
               1          2
     1  O   -0.265361   0.000000
     2  C   -0.183330  -0.000000
     3  C   -0.086339   0.000000
     4  C   -0.283350  -0.000000
     5  C   -0.040562  -0.000000
     6  C    0.483894  -0.000000
     7  C   -0.530147   0.000000
     8  O   -0.214183  -0.000000
     9  C   -0.028491   0.000000
    10  C    0.121624  -0.000000
    11  C   -0.344243  -0.000000
    12  C   -0.374847  -0.000000
    13  C    0.167829   0.000000
    14  C    0.221312   0.000000
    15  C   -0.396528   0.000000
    16  O   -0.279748   0.000000
    17  C    0.413650   0.000000
    18  H    0.329621  -0.000000
    19  H    0.195592   0.000000
    20  H    0.188381  -0.000000
    21  H    0.176872   0.000000
    22  H    0.184310   0.000000
    23  H    0.179136  -0.000000
    24  H    0.177115  -0.000000
    25  H    0.187794   0.000000
 Sum of Mulliken charges =  -0.00000  -0.00000

 Dipole moment (field-independent basis, Debye):
    X=             -1.3098    Y=             -0.3395    Z=             -0.0651  Tot=              1.3547
 Quadrupole moment (field-independent basis, Debye-Ang):
   XX=            -76.5084   YY=           -108.0741   ZZ=            -99.6355
   XY=             -5.4519   XZ=              3.2089   YZ=              0.9852

  Exact polarizability: 259.085   3.259 188.122  16.436 -18.963  86.209
 Approx polarizability: 387.248   5.163 368.285  23.587 -42.291 140.937

                      1                      2                      3
                      A                      A                      A
 Frequencies --     45.5377                92.2593               124.2653
 Red. masses --      7.0254                 5.7837                 6.1521
 Frc consts  --      0.0086                 0.0290                 0.0560
 IR Inten    --      4.7443                 0.2376                 0.4354

                      4                      5                      6
                      A                      A                      A
 Frequencies --    166.6401               209.0765               216.9249
 Red. masses --      7.4467                 4.6072                 5.3899
 Frc consts  --      0.1218                 0.1187                 0.1494
 IR Inten    --      0.2688                 0.0164                 0.0401

                      7                      8                      9
                      A                      A                      A
 Frequencies --    257.3607               318.0569               348.5157
 Red. masses --      5.9699                 6.8914                 7.0645
 Frc consts  --      0.2330                 0.4107                 0.5056
 IR Inten    --      0.0213                 1.6860                 0.6640

                     10                     11                     12
                      A                      A                      A
 Frequencies --    391.8662               424.8479               427.3547
 Red. masses --      9.2070                 3.4934                12.2608
 Frc consts  --      0.8330                 0.3715                 1.3193
 IR Inten    --      7.4116                 0.1854                24.6075

                     13                     14                     15
                      A                      A                      A
 Frequencies --    430.0034               459.8051               484.9099
 Red. masses --      4.8993                 8.1510                 3.9668
 Frc consts  --      0.5337                 1.0153                 0.5496
 IR Inten    --      0.1089                 4.4922                 0.5362

                     16                     17                     18
                      A                      A                      A
 Frequencies --    501.2384               554.9663               560.8589
 Red. masses --      7.2753                 4.4825                 7.8086
 Frc consts  --      1.0769                 0.8134                 1.4472
 IR Inten    --      3.0209                 5.7447                 4.3712

                     19                     20                     21
                      A                      A                      A
 Frequencies --    624.7615               669.1805               670.3062
 Red. masses --      6.4159                 4.4142                 6.7245
 Frc consts  --      1.4755                 1.1646                 1.7801
 IR Inten    --      0.8806                 2.2322                 9.7726

                     22                     23                     24
                      A                      A                      A
 Frequencies --    704.4255               715.8611               738.2453
 Red. masses --      7.1606                 3.4692                 2.2437
 Frc consts  --      2.0935                 1.0475                 0.7205
 IR Inten    --      2.0167                21.8426                43.8311

                     25                     26                     27
                      A                      A                      A
 Frequencies --    783.7330               796.5232               804.5615
 Red. masses --      2.8681                 6.5572                 1.6915
 Frc consts  --      1.0380                 2.4511                 0.6451
 IR Inten    --     28.8844                 2.7049                57.0169

                     28                     29                     30
                      A                      A                      A
 Frequencies --    808.4436               834.1835               895.6192
 Red. masses --      1.3955                 1.5730                 7.7629
 Frc consts  --      0.5374                 0.6449                 3.6688
 IR Inten    --     70.4519                 2.1047                45.8554

                     31                     32                     33
                      A                      A                      A
 Frequencies --    915.9512               934.4372               936.0683
 Red. masses --      1.3647                 1.4133                 6.3918
 Frc consts  --      0.6746                 0.7271                 3.2998
 IR Inten    --      0.0238                 0.1042                 5.7071

                     34                     35                     36
                      A                      A                      A
 Frequencies --   1002.8801              1004.8605              1018.8511
 Red. masses --      1.3672                 1.3332                 1.3260
 Frc consts  --      0.8102                 0.7932                 0.8110
 IR Inten    --      0.9035                 1.1979                 0.0415

                     37                     38                     39
                      A                      A                      A
 Frequencies --   1032.0365              1060.8464              1085.2699
 Red. masses --      4.7921                 2.1252                 1.9080
 Frc consts  --      3.0072                 1.4092                 1.3240
 IR Inten    --     42.5118                 2.1605                 8.7584

                     40                     41                     42
                      A                      A                      A
 Frequencies --   1113.0856              1176.5258              1185.7185
 Red. masses --      2.3633                 1.4672                 1.2183
 Frc consts  --      1.7252                 1.1965                 1.0092
 IR Inten    --      0.8855                 6.8237                26.1248

                     43                     44                     45
                      A                      A                      A
 Frequencies --   1186.7585              1211.7842              1251.7268
 Red. masses --      1.7407                 2.0011                 1.9644
 Frc consts  --      1.4444                 1.7313                 1.8135
 IR Inten    --      1.7688                 4.8877               104.6844

                     46                     47                     48
                      A                      A                      A
 Frequencies --   1287.8431              1307.5333              1342.0174
 Red. masses --      2.4373                 2.7198                 3.8212
 Frc consts  --      2.3817                 2.7396                 4.0548
 IR Inten    --    333.7865               303.7183                19.6759

                     49                     50                     51
                      A                      A                      A
 Frequencies --   1358.4428              1378.1765              1398.4352
 Red. masses --      6.7066                 4.5375                 3.2312
 Frc consts  --      7.2919                 5.0778                 3.7230
 IR Inten    --     12.4703               177.9297                90.2452

                     52                     53                     54
                      A                      A                      A
 Frequencies --   1480.1476              1485.5576              1503.0546
 Red. masses --      2.4720                 2.5110                 2.6702
 Frc consts  --      3.1909                 3.2650                 3.5542
 IR Inten    --     10.9765                75.1689                50.5875

                     55                     56                     57
                      A                      A                      A
 Frequencies --   1511.5561              1608.6554              1609.7640
 Red. masses --      2.6891                 3.9140                 6.8658
 Frc consts  --      3.6200                 5.9675                10.4825
 IR Inten    --     60.2888                31.3901                19.1973

                     58                     59                     60
                      A                      A                      A
 Frequencies --   1626.4913              1633.3977              1675.5220
 Red. masses --      5.8880                 5.9395                 7.8285
 Frc consts  --      9.1774                 9.3365                12.9489
 IR Inten    --     64.2941                71.3759               236.3671

                     61                     62                     63
                      A                      A                      A
 Frequencies --   1725.1661              3171.6248              3175.6062
 Red. masses --     12.0708                 1.0871                 1.0884
 Frc consts  --     21.1665                 6.4431                 6.4667
 IR Inten    --    163.8318                 3.0827                 8.2414

                     64                     65                     66
                      A                      A                      A
 Frequencies --   3185.9198              3197.7331              3201.5955
 Red. masses --      1.0920                 1.0934                 1.0928
 Frc consts  --      6.5303                 6.5874                 6.5999
 IR Inten    --     10.2638                 3.4036                 1.7001

                     67                     68                     69
                      A                      A                      A
 Frequencies --   3204.7402              3208.9490              3334.5525
 Red. masses --      1.0945                 1.0933                 1.0680
 Frc consts  --      6.6232                 6.6329                 6.9971
 IR Inten    --      9.0682                 2.4463               253.2021

 - Thermochemistry -
 -------------------
 Temperature   298.150 Kelvin.  Pressure   1.00000 Atm.
 Atom     1 has atomic number  8 and mass  15.99491

 Molecular mass:   224.04734 amu.
 Principal axes and moments of inertia in atomic units:
                           1         2         3
     Eigenvalues --  1987.745964465.915096453.66093
           X            0.98888  -0.11544  -0.09378
           Y            0.13065   0.97556   0.17667
           Z            0.07110  -0.18696   0.97979
 This molecule is an asymmetric top.
 Rotational symmetry number  1.
 Warning -- assumption of classical behavior for rotation
           may cause significant error
 Rotational temperatures (Kelvin)      0.04357     0.01939     0.01342
 Rotational constants (GHZ):           0.90793     0.40411     0.27965
 Zero-point vibrational energy     483229.2 (Joules/Mol)
                                  115.49455 (Kcal/Mol)
 Warning -- explicit consideration of  18 degrees of freedom as
           vibrations may cause significant error
 Vibrational temperatures:     65.52   132.74   178.79   239.76   300.81
          (Kelvin)            312.11   370.28   457.61   501.44   563.81
                              611.26   614.87   618.68   661.56   697.68
                              721.17   798.47   806.95   898.89   962.80
                              964.42  1013.51  1029.96  1062.17  1127.62
                             1146.02  1157.58  1163.17  1200.20  1288.60
                             1317.85  1344.45  1346.79  1442.92  1445.77
                             1465.90  1484.87  1526.32  1561.46  1601.48
                             1692.76  1705.98  1707.48  1743.49  1800.96
                             1852.92  1881.25  1930.86  1954.50  1982.89
                             2012.04  2129.60  2137.39  2162.56  2174.79
                             2314.50  2316.09  2340.16  2350.10  2410.70
                             2482.13  4563.26  4568.99  4583.83  4600.82
                             4606.38  4610.91  4616.96  4797.68

 Zero-point correction=                           0.184052 (Hartree/Particle)
 Thermal correction to Energy=                    0.196046
 Thermal correction to Enthalpy=                  0.196990
 Thermal correction to Gibbs Free Energy=         0.145629
 Sum of electronic and zero-point Energies=           -764.029059
 Sum of electronic and thermal Energies=              -764.017065
 Sum of electronic and thermal Enthalpies=            -764.016121
 Sum of electronic and thermal Free Energies=         -764.067483

                     E (Thermal)             CV                S
                      KCal/Mol        Cal/Mol-Kelvin    Cal/Mol-Kelvin
 Total                  123.021             49.076            108.100
 Electronic               0.000              0.000              0.000
 Translational            0.889              2.981             42.123
 Rotational               0.889              2.981             32.416
 Vibrational            121.243             43.114             33.561
 Vibration     1          0.595              1.979              5.002
 Vibration     2          0.602              1.955              3.612
 Vibration     3          0.610              1.929              3.033
 Vibration     4          0.624              1.883              2.473
 Vibration     5          0.642              1.827              2.052
 Vibration     6          0.646              1.815              1.985
 Vibration     7          0.667              1.750              1.680
 Vibration     8          0.704              1.639              1.320
 Vibration     9          0.726              1.578              1.173
 Vibration    10          0.759              1.488              0.993
 Vibration    11          0.787              1.416              0.876
 Vibration    12          0.789              1.411              0.867
 Vibration    13          0.791              1.405              0.859
 Vibration    14          0.818              1.339              0.767
 Vibration    15          0.841              1.284              0.697
 Vibration    16          0.857              1.247              0.655
 Vibration    17          0.910              1.129              0.534
 Vibration    18          0.917              1.116              0.522

 Optimization completed.
    -- Stationary point found.
 Normal termination of Gaussian 16 at Wed Dec 27 20:59:25 2023.
