 Gaussian 16, Revision A.03,
 Gaussian 16:  ES64L-G16RevA.03 25-Dec-2016

 --------------------------------------
 #P UB3LYP/6-311++G(d,p) nosym opt freq
 --------------------------------------

 -------
 Reduced
 -------
 Symbolic Z-matrix:
 Charge = -2 Multiplicity = 1

 SCF Done:  E(UB3LYP) =  -718.672253709     A.U. after   32 cycles
 SCF Done:  E(UB3LYP) =  -718.703006430     A.U. after   18 cycles
 SCF Done:  E(UB3LYP) =  -718.706909318     A.U. after   15 cycles
 SCF Done:  E(UB3LYP) =  -718.707274795     A.U. after   15 cycles
 SCF Done:  E(UB3LYP) =  -718.707329862     A.U. after   14 cycles
 SCF Done:  E(UB3LYP) =  -718.707336555     A.U. after   12 cycles
 SCF Done:  E(UB3LYP) =  -718.707337867     A.U. after   12 cycles
 Optimization completed.
    -- Stationary point found.
 Normal termination of Gaussian 16 at Wed Dec 20 01:33:48 2023.

 ----------------------------------------------------------------------
 #P Geom=AllCheck Guess=TCheck SCRF=Check GenChk UB3LYP/6-311++G(d,p) F
 req
 ----------------------------------------------------------------------

 Structure from the checkpoint file:  "075-an.chk"
 -------
 Reduced
 -------
 Charge = -2 Multiplicity = 1

                          Input orientation:
 ---------------------------------------------------------------------
 Center     Atomic      Atomic             Coordinates (Angstroms)
 Number     Number       Type             X           Y           Z
 ---------------------------------------------------------------------
      1          6           0        1.572899    1.113888   -1.601348
      2          6           0        0.194647    0.895222   -1.343546
      3          6           0       -0.299552    0.154864   -0.231462
      4          6           0        0.561666   -0.453033    0.753908
      5          6           0        1.953205   -0.219388    0.475862
      6          6           0        2.422830    0.505082   -0.613060
      7          8           0        2.037119    1.791135   -2.616320
      8          8           0        0.157377   -1.130815    1.776356
      9          6           0       -1.756411   -0.003232   -0.071304
     10          9           0       -2.502061    0.613969   -1.063332
     11          9           0       -2.226245   -1.306590   -0.088003
     12          9           0       -2.293712    0.514616    1.095936
     13          1           0       -0.510128    1.326576   -2.048068
     14          1           0        2.657851   -0.653758    1.186683
     15          1           0        3.498654    0.634782   -0.749701
 ---------------------------------------------------------------------

 SCF Done:  E(UB3LYP) =  -718.707337867     A.U. after    1 cycles

 Alpha  occ. eigenvalues --  -24.43917 -24.42861 -24.42858 -18.74308 -18.73375
 Alpha  occ. eigenvalues --  -10.14285  -9.91142  -9.89826  -9.87569  -9.86699
 Alpha  occ. eigenvalues --   -9.86406  -9.86075  -1.02745  -0.94451  -0.93754
 Alpha  occ. eigenvalues --   -0.65837  -0.64116  -0.52491  -0.47582  -0.41432
 Alpha  occ. eigenvalues --   -0.38016  -0.32635  -0.31675  -0.30934  -0.27850
 Alpha  occ. eigenvalues --   -0.22447  -0.19927  -0.19630  -0.16606  -0.15850
 Alpha  occ. eigenvalues --   -0.15385  -0.15263  -0.13855  -0.13713  -0.10612
 Alpha  occ. eigenvalues --   -0.08180  -0.07880  -0.05853  -0.05114  -0.03341
 Alpha  occ. eigenvalues --    0.04151   0.04991   0.07915   0.08667   0.15178
 Alpha virt. eigenvalues --    0.20003   0.21646   0.21773   0.24818   0.26582
 Alpha virt. eigenvalues --    0.27049   0.27424   0.28965   0.29437   0.30852
 Alpha virt. eigenvalues --    0.31061   0.32833   0.33249   0.33366   0.34002

  Beta  occ. eigenvalues --  -24.43917 -24.42861 -24.42858 -18.74308 -18.73375
  Beta  occ. eigenvalues --  -10.14285  -9.91142  -9.89826  -9.87569  -9.86699
  Beta  occ. eigenvalues --   -9.86406  -9.86075  -1.02745  -0.94451  -0.93754
  Beta  occ. eigenvalues --   -0.65837  -0.64116  -0.52491  -0.47582  -0.41432
  Beta  occ. eigenvalues --   -0.38016  -0.32635  -0.31675  -0.30934  -0.27850
  Beta  occ. eigenvalues --   -0.22447  -0.19927  -0.19630  -0.16606  -0.15850
  Beta  occ. eigenvalues --   -0.15385  -0.15263  -0.13855  -0.13713  -0.10612
  Beta  occ. eigenvalues --   -0.08180  -0.07880  -0.05853  -0.05114  -0.03341
  Beta  occ. eigenvalues --    0.04151   0.04991   0.07915   0.08667   0.15178
  Beta virt. eigenvalues --    0.20003   0.21646   0.21773   0.24818   0.26582
  Beta virt. eigenvalues --    0.27049   0.27424   0.28965   0.29437   0.30852
  Beta virt. eigenvalues --    0.31061   0.32833   0.33249   0.33366   0.34002

 Mulliken charges and spin densities:
               1          2
     1  C   -0.995982  -0.000000
     2  C   -0.172738   0.000000
     3  C    0.573729   0.000000
     4  C   -0.871191  -0.000000
     5  C    0.192900  -0.000000
     6  C    0.369207  -0.000000
     7  O   -0.610272   0.000000
     8  O   -0.560738   0.000000
     9  C    0.485306  -0.000000
    10  F   -0.240261   0.000000
    11  F   -0.159519   0.000000
    12  F   -0.159443   0.000000
    13  H    0.060516   0.000000
    14  H    0.047525   0.000000
    15  H    0.040961  -0.000000
 Sum of Mulliken charges =  -2.00000   0.00000

 Dipole moment (field-independent basis, Debye):
    X=             -5.1783    Y=             -3.0240    Z=              4.1221  Tot=              7.2767
 Quadrupole moment (field-independent basis, Debye-Ang):
   XX=           -107.4005   YY=            -94.6198   ZZ=           -115.0757
   XY=            -13.4665   XZ=             18.9107   YZ=             24.9113

  Exact polarizability: 150.693   4.408  98.585  -2.439 -35.288 129.740
 Approx polarizability: 225.494   3.162 148.171   1.889 -60.251 201.885

                      1                      2                      3
                      A                      A                      A
 Frequencies --     38.5715               103.4178               145.4594
 Red. masses --     15.5622                 5.7649                12.3068
 Frc consts  --      0.0136                 0.0363                 0.1534
 IR Inten    --      0.8224                 4.4240                 5.4595

                      4                      5                      6
                      A                      A                      A
 Frequencies --    174.0625               278.3114               293.5445
 Red. masses --     13.7431                15.3649                 9.0261
 Frc consts  --      0.2453                 0.7012                 0.4582
 IR Inten    --      1.5316                 0.8314                 0.0053

                      7                      8                      9
                      A                      A                      A
 Frequencies --    338.0410               358.1328               406.0292
 Red. masses --     17.0693                 6.1850                 9.3582
 Frc consts  --      1.1492                 0.4674                 0.9090
 IR Inten    --      6.3229                 0.2784                 0.6478

                     10                     11                     12
                      A                      A                      A
 Frequencies --    450.2714               481.0785               501.7027
 Red. masses --      4.5796                11.9838                10.9181
 Frc consts  --      0.5470                 1.6341                 1.6192
 IR Inten    --      0.3368                 1.3079                 0.0955

                     13                     14                     15
                      A                      A                      A
 Frequencies --    528.6285               574.3046               601.0337
 Red. masses --      3.3795                 6.3474                 3.8291
 Frc consts  --      0.5564                 1.2335                 0.8150
 IR Inten    --      5.4171                 1.1859                21.7190

                     16                     17                     18
                      A                      A                      A
 Frequencies --    664.1480               713.2766               717.4181
 Red. masses --      8.7129                11.8559                 2.4200
 Frc consts  --      2.2644                 3.5539                 0.7339
 IR Inten    --     16.1793                10.5845                 2.3543

                     19                     20                     21
                      A                      A                      A
 Frequencies --    796.1186               812.2142               814.4179
 Red. masses --      1.8687                 6.3289                 2.2444
 Frc consts  --      0.6978                 2.4599                 0.8771
 IR Inten    --      2.5287               130.2735                43.3435

                     22                     23                     24
                      A                      A                      A
 Frequencies --    881.4226               886.4950               972.4767
 Red. masses --      1.2813                 6.6788                 7.3401
 Frc consts  --      0.5865                 3.0924                 4.0899
 IR Inten    --      1.2160               107.8107                38.5975

                     25                     26                     27
                      A                      A                      A
 Frequencies --    975.8075              1018.7941              1099.7261
 Red. masses --     12.4280                 3.4941                 1.6818
 Frc consts  --      6.9724                 2.1368                 1.1984
 IR Inten    --    297.0084               257.5612                33.3951

                     28                     29                     30
                      A                      A                      A
 Frequencies --   1155.1706              1228.8801              1246.7826
 Red. masses --      2.7731                 1.8703                 3.2381
 Frc consts  --      2.1802                 1.6641                 2.9657
 IR Inten    --    486.5248               201.0943                48.4307

                     31                     32                     33
                      A                      A                      A
 Frequencies --   1312.8861              1341.1628              1408.4751
 Red. masses --      3.0049                 8.5588                 4.7424
 Frc consts  --      3.0516                 9.0704                 5.5430
 IR Inten    --    248.5277                86.0920               132.0439

                     34                     35                     36
                      A                      A                      A
 Frequencies --   1460.7424              1478.2887              1616.5525
 Red. masses --      5.4432                 3.9093                 6.9354
 Frc consts  --      6.8431                 5.0334                10.6783
 IR Inten    --    329.1107               845.0677                 3.6233

                     37                     38                     39
                      A                      A                      A
 Frequencies --   3058.5372              3091.6147              3145.0015
 Red. masses --      1.0830                 1.0916                 1.0867
 Frc consts  --      5.9693                 6.1470                 6.3327
 IR Inten    --     80.6404               143.4015                42.7201

 - Thermochemistry -
 -------------------
 Temperature   298.150 Kelvin.  Pressure   1.00000 Atm.
 Atom     1 has atomic number  6 and mass  12.00000

 Molecular mass:   176.00851 amu.
 Principal axes and moments of inertia in atomic units:
                           1         2         3
     Eigenvalues --  1189.086942502.538443371.19207
           X            0.89133   0.45227  -0.03140
           Y            0.26986  -0.47363   0.83836
           Z           -0.36430   0.75573   0.54420
 This molecule is an asymmetric top.
 Rotational symmetry number  1.
 Warning -- assumption of classical behavior for rotation
           may cause significant error
 Rotational temperatures (Kelvin)      0.07284     0.03461     0.02569
 Rotational constants (GHZ):           1.51775     0.72116     0.53534
 Zero-point vibrational energy     222320.0 (Joules/Mol)
                                   53.13575 (Kcal/Mol)
 Warning -- explicit consideration of  15 degrees of freedom as
           vibrations may cause significant error
 Vibrational temperatures:     55.50   148.80   209.28   250.44   400.43
          (Kelvin)            422.35   486.37   515.27   584.19   647.84
                              692.16   721.84   760.58   826.30   864.75
                              955.56  1026.25  1032.20  1145.44  1168.60
                             1171.77  1268.17  1275.47  1399.18  1403.97
                             1465.82  1582.26  1662.03  1768.08  1793.84
                             1888.95  1929.63  2026.48  2101.68  2126.93
                             2325.86  4400.55  4448.14  4524.96

 Zero-point correction=                           0.084677 (Hartree/Particle)
 Thermal correction to Energy=                    0.094436
 Thermal correction to Enthalpy=                  0.095380
 Thermal correction to Gibbs Free Energy=         0.048667
 Sum of electronic and zero-point Energies=           -718.622661
 Sum of electronic and thermal Energies=              -718.612902
 Sum of electronic and thermal Enthalpies=            -718.611958
 Sum of electronic and thermal Free Energies=         -718.658671

                     E (Thermal)             CV                S
                      KCal/Mol        Cal/Mol-Kelvin    Cal/Mol-Kelvin
 Total                   59.259             36.987             98.317
 Electronic               0.000              0.000              0.000
 Translational            0.889              2.981             41.403
 Rotational               0.889              2.981             30.685
 Vibrational             57.482             31.025             26.229
 Vibration     1          0.594              1.981              5.331
 Vibration     2          0.605              1.946              3.389
 Vibration     3          0.617              1.908              2.731
 Vibration     4          0.627              1.874              2.391
 Vibration     5          0.679              1.714              1.544
 Vibration     6          0.688              1.686              1.453
 Vibration     7          0.718              1.600              1.221
 Vibration     8          0.733              1.559              1.130
 Vibration     9          0.771              1.457              0.941
 Vibration    10          0.809              1.360              0.795
 Vibration    11          0.837              1.292              0.707
 Vibration    12          0.857              1.246              0.654
 Vibration    13          0.884              1.187              0.590
 Vibration    14          0.931              1.087              0.496
 Vibration    15          0.959              1.030              0.448

                           ! Non-Optimized Parameters !
 Normal termination of Gaussian 16 at Wed Dec 20 01:42:18 2023.
