 Q-Chem 5.4, Q-Chem, Inc., Pleasanton, CA (2021)
 Q-Chem 5.4.0 for Intel X86 EM64T Linux

User input:
--------------------------------------------------------------
$molecule
-1 2
C                 -0.9988090000     -1.6238980000      3.6131270000
C                  0.3025120000     -1.9557590000      3.1140990000
C                  0.8465520000     -1.4570710000      1.9482580000
C                  0.0470320000     -0.5219400000      1.1468310000
C                 -1.2739500000     -0.1954790000      1.6336960000
C                 -1.8032470000     -0.7050930000      2.7957360000
O                 -1.4640470000     -2.0728510000      4.7088650000
O                  0.4697710000     -0.0105540000      0.0659480000
N                 -3.0707670000     -0.4830870000      3.3246790000
C                 -3.9059650000      0.7130300000      3.1695320000
C                 -5.0069570000      0.6075660000      4.2398550000
C                 -4.5808920000      0.7323510000      1.7813420000
C                 -3.1088680000      2.0170270000      3.3956020000
C                  2.2557830000     -1.8482650000      1.4706530000
C                  2.9488480000     -2.8356660000      2.4292490000
C                  2.1707280000     -2.5241320000      0.0798720000
C                  3.1469470000     -0.5857480000      1.3701800000
H                  0.8558940000     -2.6422210000      3.7443100000
H                 -1.8278640000      0.4829630000      0.9968770000
H                 -3.0991300000     -0.9147560000      4.2463290000
H                 -4.5720440000      0.6035310000      5.2443060000
H                 -5.5783370000     -0.3164350000      4.1110140000
H                 -5.6961190000      1.4540710000      4.1699740000
H                 -5.1454280000     -0.1915470000      1.6302180000
H                 -3.8502540000      0.8126480000      0.9764780000
H                 -5.2685950000      1.5815950000      1.7009050000
H                 -2.6872900000      2.0301300000      4.4048590000
H                 -3.7562100000      2.8931730000      3.2783230000
H                 -2.2823280000      2.1016230000      2.6886060000
H                  3.0755000000     -2.4114450000      3.4297260000
H                  3.9438300000     -3.0806100000      2.0410040000
H                  2.3883200000     -3.7701250000      2.5266790000
H                  1.5744670000     -3.4409550000      0.1376330000
H                  3.1740510000     -2.7931840000     -0.2756590000
H                  1.7053360000     -1.8498730000     -0.6386700000
H                  3.2501360000     -0.1130540000      2.3527480000
H                  2.7044070000      0.1335380000      0.6815020000
H                  4.1506440000     -0.8542890000      1.0153330000
$end

$rem
BASIS  =  6-311++G(d,p)
GUI  =  2
JOB_TYPE  =  SP
METHOD  =  B3LYP
SCF_CONVERGENCE  = 8
SOLVENT_METHOD = sm12
$end

$smx
solvent dimethylformamide
charges CM5
$end

--------------------------------------------------------------

             Standard Nuclear Orientation (Angstroms)
    I     Atom           X                Y                Z
 ----------------------------------------------------------------
    1      C      -0.9988090000    -1.6238980000     3.6131270000
    2      C       0.3025120000    -1.9557590000     3.1140990000
    3      C       0.8465520000    -1.4570710000     1.9482580000
    4      C       0.0470320000    -0.5219400000     1.1468310000
    5      C      -1.2739500000    -0.1954790000     1.6336960000
    6      C      -1.8032470000    -0.7050930000     2.7957360000
    7      O      -1.4640470000    -2.0728510000     4.7088650000
    8      O       0.4697710000    -0.0105540000     0.0659480000
    9      N      -3.0707670000    -0.4830870000     3.3246790000
   10      C      -3.9059650000     0.7130300000     3.1695320000
   11      C      -5.0069570000     0.6075660000     4.2398550000
   12      C      -4.5808920000     0.7323510000     1.7813420000
   13      C      -3.1088680000     2.0170270000     3.3956020000
   14      C       2.2557830000    -1.8482650000     1.4706530000
   15      C       2.9488480000    -2.8356660000     2.4292490000
   16      C       2.1707280000    -2.5241320000     0.0798720000
   17      C       3.1469470000    -0.5857480000     1.3701800000
   18      H       0.8558940000    -2.6422210000     3.7443100000
   19      H      -1.8278640000     0.4829630000     0.9968770000
   20      H      -3.0991300000    -0.9147560000     4.2463290000
   21      H      -4.5720440000     0.6035310000     5.2443060000
   22      H      -5.5783370000    -0.3164350000     4.1110140000
   23      H      -5.6961190000     1.4540710000     4.1699740000
   24      H      -5.1454280000    -0.1915470000     1.6302180000
   25      H      -3.8502540000     0.8126480000     0.9764780000
   26      H      -5.2685950000     1.5815950000     1.7009050000
   27      H      -2.6872900000     2.0301300000     4.4048590000
   28      H      -3.7562100000     2.8931730000     3.2783230000
   29      H      -2.2823280000     2.1016230000     2.6886060000
   30      H       3.0755000000    -2.4114450000     3.4297260000
   31      H       3.9438300000    -3.0806100000     2.0410040000
   32      H       2.3883200000    -3.7701250000     2.5266790000
   33      H       1.5744670000    -3.4409550000     0.1376330000
   34      H       3.1740510000    -2.7931840000    -0.2756590000
   35      H       1.7053360000    -1.8498730000    -0.6386700000
   36      H       3.2501360000    -0.1130540000     2.3527480000
   37      H       2.7044070000     0.1335380000     0.6815020000
   38      H       4.1506440000    -0.8542890000     1.0153330000
 ----------------------------------------------------------------

   17    -751.6046887138      6.62e-09  Convergence criterion met
 Total energy in the final basis set =     -751.6874647860

                    Orbital Energies (a.u.)
 --------------------------------------------------------------

 Alpha MOs
 -- Occupied --
-19.0751 -19.0638 -14.3141 -10.2227 -10.2155 -10.2148 -10.2041 -10.1910
-10.1693 -10.1644 -10.1631 -10.1625 -10.1623 -10.1586 -10.1577 -10.1577
-10.1492  -0.9977  -0.9863  -0.9269  -0.8345  -0.8111  -0.7825  -0.7248
 -0.6947  -0.6940  -0.6894  -0.6866  -0.6722  -0.6162  -0.5796  -0.5606
 -0.5339  -0.4968  -0.4873  -0.4699  -0.4578  -0.4537  -0.4415  -0.4411
 -0.4275  -0.4251  -0.4167  -0.4095  -0.4024  -0.3984  -0.3887  -0.3852
 -0.3826  -0.3756  -0.3728  -0.3716  -0.3569  -0.3506  -0.3500  -0.3387
 -0.3359  -0.3339  -0.3281  -0.3034  -0.2674  -0.2424  -0.2270  -0.2123
 -0.1515

 Beta MOs
 -- Occupied --
-19.0680 -19.0578 -14.3133 -10.2227 -10.2143 -10.2127 -10.2030 -10.1911
-10.1668 -10.1644 -10.1631 -10.1625 -10.1623 -10.1580 -10.1575 -10.1575
-10.1494  -0.9861  -0.9758  -0.9242  -0.8312  -0.8093  -0.7800  -0.7231
 -0.6946  -0.6937  -0.6888  -0.6862  -0.6629  -0.6137  -0.5767  -0.5592
 -0.5320  -0.4945  -0.4857  -0.4687  -0.4563  -0.4529  -0.4405  -0.4402
 -0.4269  -0.4234  -0.4096  -0.4072  -0.3995  -0.3933  -0.3850  -0.3813
 -0.3789  -0.3736  -0.3724  -0.3689  -0.3494  -0.3478  -0.3385  -0.3378
 -0.3329  -0.3306  -0.3274  -0.2925  -0.2405  -0.2359  -0.2214  -0.2040

          Ground-State Mulliken Net Atomic Charges

     Atom                 Charge (a.u.)    Spin (a.u.)
  --------------------------------------------------------
      1 C                    -1.327184       0.120437
      2 C                    -0.960458       0.024017
      3 C                     0.670962       0.224911
      4 C                    -1.422721       0.045624
      5 C                    -0.766075      -0.031973
      6 C                    -0.105665       0.123667
      7 O                    -0.344491       0.261664
      8 O                    -0.301383       0.217927
      9 N                     0.043085       0.036544
     10 C                    -0.358101       0.000158
     11 C                     0.389907      -0.000933
     12 C                    -0.146429      -0.002810
     13 C                    -0.317930       0.003136
     14 C                     0.926854      -0.034836
     15 C                     0.434290       0.000655
     16 C                    -0.505842       0.014529
     17 C                    -0.475582       0.015410
     18 H                     0.131356      -0.007692
     19 H                     0.033582      -0.004883
     20 H                     0.276407      -0.004320
     21 H                     0.183586       0.000049
     22 H                     0.197377       0.000578
     23 H                     0.271881      -0.000041
     24 H                     0.091017       0.000880
     25 H                     0.113912      -0.000529
     26 H                     0.302774       0.000142
     27 H                     0.091569       0.000213
     28 H                     0.300717       0.000843
     29 H                     0.059403      -0.001458
     30 H                     0.141901      -0.000351
     31 H                     0.337837       0.000004
     32 H                     0.140690      -0.000381
     33 H                     0.096496       0.001115
     34 H                     0.263593       0.001309
     35 H                     0.084265      -0.003215
     36 H                     0.096511       0.001051
     37 H                     0.090009      -0.002986
     38 H                     0.261882       0.001548
  --------------------------------------------------------
  Sum of atomic charges =    -1.000000

                    Cartesian Multipole Moments
 -----------------------------------------------------------------
    Charge (ESU x 10^10)
                -4.8032
    Dipole Moment (Debye)
         X       0.6775      Y       5.8016      Z     -10.1228
       Tot      11.6872
    Quadrupole Moments (Debye-Ang)
        XX    -117.0719     XY      -7.3735     YY    -124.6164
        XZ       9.5933     YZ      24.2603     ZZ    -158.0993

 Total job time:  1527.96s(wall), 11802.85s(cpu)
        *  Thank you very much for using Q-Chem.  Have a nice day.  *
