 Gaussian 16, Revision A.03,
 Gaussian 16:  ES64L-G16RevA.03 25-Dec-2016

 ----------------------------------------------------------------
 #P UB3LYP/6-311++G(d,p) SCRF=(PCM,Solvent=n,n-DiMethylFormamide)
 ----------------------------------------------------------------

 ------------------
 Quinone PCM in DMF
 ------------------
 Symbolic Z-matrix:
 Charge =  0 Multiplicity = 1

                         Standard orientation:
 ---------------------------------------------------------------------
 Center     Atomic      Atomic             Coordinates (Angstroms)
 Number     Number       Type             X           Y           Z
 ---------------------------------------------------------------------
      1          6           0       -6.788988   -0.138407   -1.029491
      2          6           0       -7.362607   -1.405636   -1.038883
      3          6           0       -6.677619   -2.490422   -0.485009
      4          6           0       -5.525069    0.049317   -0.464861
      5          6           0       -4.838385   -1.037784    0.091052
      6          6           0       -5.419128   -2.308426    0.079029
      7          6           0       -4.908192    1.404474   -0.456699
      8          6           0       -3.550652    1.577003    0.147179
      9          6           0       -2.892570    0.530689    0.707462
     10          6           0       -3.491930   -0.842480    0.698546
     11          8           0       -5.493784    2.365651   -0.932829
     12          8           0       -2.883652   -1.785493    1.182627
     13          1           0       -8.343346   -1.551450   -1.477274
     14          6           0       -1.525910    0.627665    1.337769
     15          1           0       -7.127763   -3.476624   -0.494278
     16          6           0       -3.020178    2.981527    0.078893
     17          6           0       -0.383109    0.366632    0.333429
     18          6           0        1.001295    0.421546    0.987834
     19          6           0        2.148528    0.162912    0.004622
     20          1           0       -7.301559    0.716373   -1.453157
     21          1           0       -4.871213   -3.134965    0.514215
     22          1           0       -1.463103   -0.117216    2.133746
     23          1           0       -1.391517    1.609110    1.797937
     24          1           0       -3.059959    3.346804   -0.950252
     25          1           0       -1.997950    3.059626    0.441279
     26          1           0       -3.655701    3.656115    0.660679
     27          1           0       -0.436415    1.101837   -0.478408
     28          1           0       -0.531860   -0.616532   -0.125094
     29          1           0        1.044962   -0.316114    1.798765
     30          1           0        1.142554    1.402904    1.459532
     31          1           0        2.101998    0.898783   -0.808653
     32          1           0        2.006293   -0.818640   -0.465202
     33          6           0        3.535808    0.215733    0.654784
     34          6           0        4.683904   -0.045813   -0.326633
     35          6           0        6.071404    0.005093    0.323037
     36          6           0        7.219669   -0.257231   -0.658049
     37          6           0        8.607197   -0.207131   -0.008832
     38          1           0        3.581326   -0.519323    1.468696
     39          1           0        3.678198    1.197668    1.124575
     40          1           0        4.638560    0.689447   -1.140575
     41          1           0        4.540702   -1.027387   -0.796723
     42          1           0        6.116455   -0.730059    1.137024
     43          1           0        6.214769    0.986713    0.793176
     44          1           0        7.174804    0.478042   -1.472037
     45          1           0        7.076044   -1.238757   -1.128293
     46          1           0        8.653044   -0.942262    0.805396
     47          1           0        8.752153    0.774454    0.461278
     48          6           0        9.756209   -0.469987   -0.988950
     49          6           0       11.138225   -0.417890   -0.331044
     50          1           0        9.711324    0.264626   -1.802288
     51          1           0        9.612244   -1.450920   -1.458212
     52          1           0       11.326378    0.563042    0.116984
     53          1           0       11.934251   -0.609405   -1.056092
     54          1           0       11.226388   -1.165454    0.463761
 ---------------------------------------------------------------------

 SCF Done:  E(UB3LYP) =  -1007.16951728     A.U. after   16 cycles

 The electronic state is 1-A.
 Alpha  occ. eigenvalues --  -19.13350 -19.13327 -10.28169 -10.28101 -10.21408
 Alpha  occ. eigenvalues --  -10.21142 -10.20690 -10.20637 -10.19850 -10.19811
 Alpha  occ. eigenvalues --  -10.19769 -10.19754 -10.17704 -10.17474 -10.17041
 Alpha  occ. eigenvalues --  -10.16354 -10.16164 -10.16121 -10.16007 -10.15955
 Alpha  occ. eigenvalues --  -10.15939 -10.15925 -10.15910 -10.15526  -1.06765
 Alpha  occ. eigenvalues --   -1.06579  -0.89047  -0.85324  -0.81433  -0.80344
 Alpha  occ. eigenvalues --   -0.78982  -0.77861  -0.77809  -0.75665  -0.73203
 Alpha  occ. eigenvalues --   -0.70863  -0.68421  -0.67332  -0.64462  -0.62816
 Alpha  occ. eigenvalues --   -0.61114  -0.59369  -0.58299  -0.58015  -0.57405
 Alpha  occ. eigenvalues --   -0.57176  -0.55147  -0.51989  -0.50081  -0.48735
 Alpha  occ. eigenvalues --   -0.47963  -0.47238  -0.46203  -0.46065  -0.45928
 Alpha  occ. eigenvalues --   -0.45219  -0.45077  -0.43658  -0.43151  -0.42956
 Alpha  occ. eigenvalues --   -0.42639  -0.42300  -0.41334  -0.41183  -0.40466
 Alpha  occ. eigenvalues --   -0.40040  -0.39767  -0.38875  -0.38293  -0.37926
 Alpha  occ. eigenvalues --   -0.37596  -0.37010  -0.36870  -0.35706  -0.35011
 Alpha  occ. eigenvalues --   -0.34259  -0.33774  -0.33443  -0.32861  -0.32529
 Alpha  occ. eigenvalues --   -0.32308  -0.32068  -0.31975  -0.30184  -0.29021
 Alpha  occ. eigenvalues --   -0.28886  -0.27893  -0.27241  -0.27074
 Alpha virt. eigenvalues --   -0.12304  -0.05663  -0.02958  -0.00835  -0.00400
 Alpha virt. eigenvalues --    0.00085   0.00480   0.00526   0.00972   0.01315
 Alpha virt. eigenvalues --    0.01518   0.01901   0.02090   0.02438   0.02966

  Beta  occ. eigenvalues --  -19.13350 -19.13327 -10.28169 -10.28101 -10.21408
  Beta  occ. eigenvalues --  -10.21142 -10.20690 -10.20637 -10.19850 -10.19811
  Beta  occ. eigenvalues --  -10.19769 -10.19754 -10.17704 -10.17474 -10.17041
  Beta  occ. eigenvalues --  -10.16354 -10.16164 -10.16121 -10.16007 -10.15955
  Beta  occ. eigenvalues --  -10.15939 -10.15925 -10.15910 -10.15526  -1.06765
  Beta  occ. eigenvalues --   -1.06579  -0.89047  -0.85324  -0.81433  -0.80344
  Beta  occ. eigenvalues --   -0.78982  -0.77861  -0.77809  -0.75665  -0.73203
  Beta  occ. eigenvalues --   -0.70863  -0.68421  -0.67332  -0.64462  -0.62816
  Beta  occ. eigenvalues --   -0.61114  -0.59369  -0.58299  -0.58015  -0.57405
  Beta  occ. eigenvalues --   -0.57176  -0.55147  -0.51989  -0.50081  -0.48735
  Beta  occ. eigenvalues --   -0.47963  -0.47238  -0.46203  -0.46065  -0.45928
  Beta  occ. eigenvalues --   -0.45219  -0.45077  -0.43658  -0.43151  -0.42956
  Beta  occ. eigenvalues --   -0.42639  -0.42300  -0.41334  -0.41183  -0.40466
  Beta  occ. eigenvalues --   -0.40040  -0.39767  -0.38875  -0.38293  -0.37926
  Beta  occ. eigenvalues --   -0.37596  -0.37010  -0.36870  -0.35706  -0.35011
  Beta  occ. eigenvalues --   -0.34259  -0.33774  -0.33443  -0.32861  -0.32529
  Beta  occ. eigenvalues --   -0.32308  -0.32068  -0.31975  -0.30184  -0.29021
  Beta  occ. eigenvalues --   -0.28886  -0.27893  -0.27241  -0.27074
  Beta virt. eigenvalues --   -0.12304  -0.05663  -0.02958  -0.00835  -0.00400
  Beta virt. eigenvalues --    0.00085   0.00480   0.00526   0.00972   0.01315
  Beta virt. eigenvalues --    0.01518   0.01901   0.02090   0.02438   0.02966

 Mulliken charges and spin densities:
               1          2
     1  C    0.259005   0.000000
     2  C   -0.470068   0.000000
     3  C   -0.395801   0.000000
     4  C   -0.016987   0.000000
     5  C   -0.177703  -0.000000
     6  C    0.205123   0.000000
     7  C   -0.304979  -0.000000
     8  C    0.862681   0.000000
     9  C    1.006226   0.000000
    10  C   -0.889915  -0.000000
    11  O   -0.277560   0.000000
    12  O   -0.259843   0.000000
    13  H    0.204295   0.000000
    14  C   -0.592591  -0.000000
    15  H    0.203791  -0.000000
    16  C   -0.457885  -0.000000
    17  C   -0.972801   0.000000
    18  C   -0.324375  -0.000000
    19  C   -0.060133   0.000000
    20  H    0.190295  -0.000000
    21  H    0.189023  -0.000000
    22  H    0.225583   0.000000
    23  H    0.216767   0.000000
    24  H    0.186226   0.000000
    25  H    0.141323  -0.000000
    26  H    0.206109   0.000000
    27  H    0.146367   0.000000
    28  H    0.193268  -0.000000
    29  H    0.122151   0.000000
    30  H    0.128983  -0.000000
    31  H    0.131357  -0.000000
    32  H    0.128308  -0.000000
    33  C    0.025425  -0.000000
    34  C    0.044198  -0.000000
    35  C   -0.050532  -0.000000
    36  C   -0.293393   0.000000
    37  C   -0.473525  -0.000000
    38  H    0.133158   0.000000
    39  H    0.132263   0.000000
    40  H    0.129943   0.000000
    41  H    0.129781   0.000000
    42  H    0.128913   0.000000
    43  H    0.129236   0.000000
    44  H    0.126906  -0.000000
    45  H    0.127132  -0.000000
    46  H    0.123752  -0.000000
    47  H    0.123527   0.000000
    48  C   -0.282475   0.000000
    49  C   -0.690367  -0.000000
    50  H    0.130996  -0.000000
    51  H    0.131025   0.000000
    52  H    0.139962  -0.000000
    53  H    0.147870  -0.000000
    54  H    0.139963  -0.000000
 Sum of Mulliken charges =  -0.00000   0.00000

 Dipole moment (field-independent basis, Debye):
    X=             -0.1781    Y=             -0.4159    Z=             -0.2808  Tot=              0.5325
 Quadrupole moment (field-independent basis, Debye-Ang):
   XX=           -139.9378   YY=           -149.8172   ZZ=           -152.8051
   XY=             17.8955   XZ=              1.4637   YZ=              7.1820

 Normal termination of Gaussian 16 at Sun Jan 21 08:05:52 2024.
