 Q-Chem 5.4, Q-Chem, Inc., Pleasanton, CA (2021)
 Q-Chem 5.4.0 for Intel X86 EM64T Linux

User input:
--------------------------------------------------------------
$molecule
-2 1
C                  4.3662360000      2.6797810000     -0.3371340000
C                  3.7321200000      1.3844810000     -0.4698910000
C                  3.2363290000      0.6942070000      0.6330370000
C                  3.2994480000      1.2266030000      1.9751590000
C                  3.9641620000      2.5036900000      2.1087640000
C                  4.4673820000      3.1902880000      1.0137770000
O                  4.8191360000      3.3385000000     -1.3398470000
O                  2.8085710000      0.6028540000      2.9831330000
C                  6.3739880000      4.5803430000      0.8253370000
C                  4.7381310000      2.3631680000      4.3420210000
H                  6.6517660000      5.6233300000      1.0105620000
H                  6.4893630000      4.3408350000     -0.2350510000
H                  7.0241800000      3.9285840000      1.4307330000
H                  4.6766260000      2.9412220000      5.2699780000
H                  5.7985970000      2.2505340000      4.0651960000
C                  2.5953770000     -0.6782160000      0.5035720000
C                  1.0987320000     -0.6313050000      0.3225280000
C                  0.3322160000     -1.2625550000     -0.5807700000
C                 -1.1773210000     -1.1084600000     -0.5624520000
C                 -1.9287390000     -2.3894320000     -0.1178940000
C                 -3.4261380000     -2.2412470000     -0.1229050000
C                 -4.3490510000     -3.0017780000     -0.7318970000
C                 -5.8281280000     -2.7028940000     -0.5770690000
C                 -6.5455340000     -2.2453960000     -1.8727680000
C                 -8.0415720000     -2.1985410000     -1.7151380000
C                 -8.8723770000     -1.1524480000     -1.8215140000
C                -10.3608490000     -1.3190270000     -1.6301500000
C                  0.8705530000     -2.1646650000     -1.6686440000
C                 -4.0279240000     -4.2208850000     -1.5652960000
C                 -8.4438720000      0.2598400000     -2.1348820000
H                  2.7822970000     -1.1973590000      1.4527280000
H                  3.0711950000     -1.2532630000     -0.2950270000
H                  0.6011450000      0.0010040000      1.0558510000
H                 -1.5366400000     -0.8299930000     -1.5636300000
H                 -1.4507130000     -0.2880040000      0.1087110000
H                 -1.5967410000     -2.6252410000      0.9022000000
H                 -1.6177570000     -3.2294910000     -0.7423910000
H                 -3.7948650000     -1.3989750000      0.4640640000
H                 -5.9722200000     -1.9359930000      0.1898020000
H                 -6.3351180000     -3.6070190000     -0.2097990000
H                 -6.3090160000     -2.9516900000     -2.6788560000
H                 -6.1368380000     -1.2807200000     -2.1815600000
H                 -8.4944590000     -3.1627310000     -1.4818830000
H                -10.6402640000     -2.3566570000     -1.4268710000
H                -10.9124100000     -0.9911000000     -2.5212900000
H                  1.9557380000     -2.1082000000     -1.7505440000
H                  0.4459320000     -1.8901370000     -2.6433350000
H                  0.6070240000     -3.2170270000     -1.4978530000
H                 -2.9592520000     -4.4264490000     -1.6222930000
H                 -4.4006520000     -4.1150800000     -2.5900750000
H                 -4.5207720000     -5.1085550000     -1.1476630000
H                 -7.3641170000      0.3731290000     -2.2383810000
H                 -8.7845250000      0.9450350000     -1.3483130000
H                 -8.9129920000      0.6038420000     -3.0660570000
H                -10.7250100000     -0.6997780000     -0.7994060000
O                  4.0390220000      3.1094270000      3.3565370000
O                  5.0183500000      4.4479180000      1.2258090000
C                  3.6295150000      0.8280350000     -1.8706120000
H                  4.2824920000      1.3788690000      4.4780970000
H                  4.2599600000     -0.0632870000     -2.0116310000
H                  3.9681520000      1.5917340000     -2.5732350000
H                  2.6035860000      0.5370910000     -2.1250910000
$end
$rem
MAX_SCF_CYCLES=200
BASIS  =  6-311++G(d,p)
GUI  =  2
JOB_TYPE  =  SP
METHOD  =  B3LYP
THRESH = 14
SCF_ALGORITHM = DIIS_GDM
SOLVENT_METHOD = PCM
$end
$pcm
theory = CPCM
$end
$solvent
dielectric 37.219
opticaldielectric 1.43
$end

--------------------------------------------------------------

             Standard Nuclear Orientation (Angstroms)
    I     Atom           X                Y                Z
 ----------------------------------------------------------------
    1      C       4.3662360000     2.6797810000    -0.3371340000
    2      C       3.7321200000     1.3844810000    -0.4698910000
    3      C       3.2363290000     0.6942070000     0.6330370000
    4      C       3.2994480000     1.2266030000     1.9751590000
    5      C       3.9641620000     2.5036900000     2.1087640000
    6      C       4.4673820000     3.1902880000     1.0137770000
    7      O       4.8191360000     3.3385000000    -1.3398470000
    8      O       2.8085710000     0.6028540000     2.9831330000
    9      C       6.3739880000     4.5803430000     0.8253370000
   10      C       4.7381310000     2.3631680000     4.3420210000
   11      H       6.6517660000     5.6233300000     1.0105620000
   12      H       6.4893630000     4.3408350000    -0.2350510000
   13      H       7.0241800000     3.9285840000     1.4307330000
   14      H       4.6766260000     2.9412220000     5.2699780000
   15      H       5.7985970000     2.2505340000     4.0651960000
   16      C       2.5953770000    -0.6782160000     0.5035720000
   17      C       1.0987320000    -0.6313050000     0.3225280000
   18      C       0.3322160000    -1.2625550000    -0.5807700000
   19      C      -1.1773210000    -1.1084600000    -0.5624520000
   20      C      -1.9287390000    -2.3894320000    -0.1178940000
   21      C      -3.4261380000    -2.2412470000    -0.1229050000
   22      C      -4.3490510000    -3.0017780000    -0.7318970000
   23      C      -5.8281280000    -2.7028940000    -0.5770690000
   24      C      -6.5455340000    -2.2453960000    -1.8727680000
   25      C      -8.0415720000    -2.1985410000    -1.7151380000
   26      C      -8.8723770000    -1.1524480000    -1.8215140000
   27      C     -10.3608490000    -1.3190270000    -1.6301500000
   28      C       0.8705530000    -2.1646650000    -1.6686440000
   29      C      -4.0279240000    -4.2208850000    -1.5652960000
   30      C      -8.4438720000     0.2598400000    -2.1348820000
   31      H       2.7822970000    -1.1973590000     1.4527280000
   32      H       3.0711950000    -1.2532630000    -0.2950270000
   33      H       0.6011450000     0.0010040000     1.0558510000
   34      H      -1.5366400000    -0.8299930000    -1.5636300000
   35      H      -1.4507130000    -0.2880040000     0.1087110000
   36      H      -1.5967410000    -2.6252410000     0.9022000000
   37      H      -1.6177570000    -3.2294910000    -0.7423910000
   38      H      -3.7948650000    -1.3989750000     0.4640640000
   39      H      -5.9722200000    -1.9359930000     0.1898020000
   40      H      -6.3351180000    -3.6070190000    -0.2097990000
   41      H      -6.3090160000    -2.9516900000    -2.6788560000
   42      H      -6.1368380000    -1.2807200000    -2.1815600000
   43      H      -8.4944590000    -3.1627310000    -1.4818830000
   44      H     -10.6402640000    -2.3566570000    -1.4268710000
   45      H     -10.9124100000    -0.9911000000    -2.5212900000
   46      H       1.9557380000    -2.1082000000    -1.7505440000
   47      H       0.4459320000    -1.8901370000    -2.6433350000
   48      H       0.6070240000    -3.2170270000    -1.4978530000
   49      H      -2.9592520000    -4.4264490000    -1.6222930000
   50      H      -4.4006520000    -4.1150800000    -2.5900750000
   51      H      -4.5207720000    -5.1085550000    -1.1476630000
   52      H      -7.3641170000     0.3731290000    -2.2383810000
   53      H      -8.7845250000     0.9450350000    -1.3483130000
   54      H      -8.9129920000     0.6038420000    -3.0660570000
   55      H     -10.7250100000    -0.6997780000    -0.7994060000
   56      O       4.0390220000     3.1094270000     3.3565370000
   57      O       5.0183500000     4.4479180000     1.2258090000
   58      C       3.6295150000     0.8280350000    -1.8706120000
   59      H       4.2824920000     1.3788690000     4.4780970000
   60      H       4.2599600000    -0.0632870000    -2.0116310000
   61      H       3.9681520000     1.5917340000    -2.5732350000
   62      H       2.6035860000     0.5370910000    -2.1250910000
 ----------------------------------------------------------------

   12   -1236.4352954059      9.60e-06  Convergence criterion met
 Total energy in the final basis set =    -1236.4352954059

                    Orbital Energies (a.u.)
 --------------------------------------------------------------

 Alpha MOs
 -- Occupied --
-19.1104 -19.1100 -19.0104 -19.0091 -10.1873 -10.1872 -10.1723 -10.1699
-10.1663 -10.1657 -10.1622 -10.1617 -10.1603 -10.1601 -10.1594 -10.1594
-10.1574 -10.1560 -10.1560 -10.1554 -10.1552 -10.1546 -10.1500 -10.1462
-10.1403 -10.1306 -10.1186 -10.1174  -1.0305  -1.0129  -0.9306  -0.9280
 -0.8218  -0.8105  -0.8000  -0.7814  -0.7579  -0.7402  -0.7267  -0.7062
 -0.6862  -0.6797  -0.6778  -0.6720  -0.6695  -0.6482  -0.6207  -0.6056
 -0.5996  -0.5820  -0.5297  -0.5223  -0.5159  -0.5109  -0.4991  -0.4798
 -0.4725  -0.4626  -0.4619  -0.4551  -0.4433  -0.4413  -0.4403  -0.4331
 -0.4263  -0.4244  -0.4199  -0.4157  -0.4096  -0.4043  -0.4036  -0.3958
 -0.3917  -0.3824  -0.3797  -0.3784  -0.3675  -0.3670  -0.3661  -0.3632
 -0.3587  -0.3570  -0.3564  -0.3528  -0.3516  -0.3421  -0.3398  -0.3301
 -0.3261  -0.3238  -0.3215  -0.3171  -0.3149  -0.3111  -0.3054  -0.3028
 -0.2654  -0.2542  -0.2421  -0.2301  -0.2226  -0.2129  -0.1935  -0.1861
 -0.1812  -0.1059

          Ground-State Mulliken Net Atomic Charges

     Atom                 Charge (a.u.)
  ----------------------------------------
      1 C                    -0.680813
      2 C                     0.585909
      3 C                     0.887245
      4 C                    -0.525450
      5 C                    -0.029352
      6 C                    -0.462260
      7 O                    -0.729682
      8 O                    -0.699285
      9 C                    -0.270146
     10 C                    -0.258705
     11 H                     0.146773
     12 H                     0.168947
     13 H                     0.112741
     14 H                     0.146524
     15 H                     0.112092
     16 C                     0.022852
     17 C                    -0.692861
     18 C                     1.098399
     19 C                    -1.005212
     20 C                    -0.262078
     21 C                    -0.271921
     22 C                     0.612776
     23 C                    -0.581732
     24 C                    -0.290603
     25 C                    -0.014504
     26 C                     0.316066
     27 C                    -0.650916
     28 C                    -0.840615
     29 C                    -0.801369
     30 C                    -0.702103
     31 H                     0.187794
     32 H                     0.165212
     33 H                     0.229606
     34 H                     0.181344
     35 H                     0.123386
     36 H                     0.165540
     37 H                     0.148522
     38 H                     0.199321
     39 H                     0.175004
     40 H                     0.137318
     41 H                     0.128284
     42 H                     0.158281
     43 H                     0.201245
     44 H                     0.160589
     45 H                     0.152051
     46 H                     0.113463
     47 H                     0.163650
     48 H                     0.169707
     49 H                     0.135647
     50 H                     0.176028
     51 H                     0.166627
     52 H                     0.149239
     53 H                     0.153008
     54 H                     0.152051
     55 H                     0.158127
     56 O                    -0.262062
     57 O                    -0.252720
     58 C                    -0.594579
     59 H                     0.162189
     60 H                     0.149153
     61 H                     0.158991
     62 H                     0.147264
  ----------------------------------------
  Sum of atomic charges =    -2.000000

                    Cartesian Multipole Moments
 -----------------------------------------------------------------
    Charge (ESU x 10^10)
                -9.6064
    Dipole Moment (Debye)
         X     -34.6650      Y     -21.6692      Z      -9.1601
       Tot      41.8942
    Quadrupole Moments (Debye-Ang)
        XX    -309.7130     XY     -92.4135     YY    -252.9707
        XZ     -13.3620     YZ      -2.1201     ZZ    -229.0052

 Total job time:  584.87s(wall), 4088.24s(cpu)
        *  Thank you very much for using Q-Chem.  Have a nice day.  *
