 Gaussian 16, Revision A.03,
 Gaussian 16:  ES64L-G16RevA.03 25-Dec-2016

 --------------------------------------
 #P UB3LYP/6-311++G(d,p) nosym opt freq
 --------------------------------------

 -------
 Radical
 -------
 Symbolic Z-matrix:
 Charge = -1 Multiplicity = 2

 SCF Done:  E(UB3LYP) =  -839.476588681     A.U. after   23 cycles
 SCF Done:  E(UB3LYP) =  -839.502112923     A.U. after   17 cycles
 SCF Done:  E(UB3LYP) =  -839.505830480     A.U. after   16 cycles
 SCF Done:  E(UB3LYP) =  -839.506095400     A.U. after   14 cycles
 SCF Done:  E(UB3LYP) =  -839.506331770     A.U. after   16 cycles
 SCF Done:  E(UB3LYP) =  -839.507433904     A.U. after   19 cycles
 SCF Done:  E(UB3LYP) =  -839.508135051     A.U. after   18 cycles
 SCF Done:  E(UB3LYP) =  -839.511670659     A.U. after   19 cycles
 SCF Done:  E(UB3LYP) =  -839.515621462     A.U. after   19 cycles
 SCF Done:  E(UB3LYP) =  -839.517960274     A.U. after   16 cycles
 SCF Done:  E(UB3LYP) =  -839.518169921     A.U. after   17 cycles
 SCF Done:  E(UB3LYP) =  -839.518714272     A.U. after   16 cycles
 SCF Done:  E(UB3LYP) =  -839.518735747     A.U. after   14 cycles
 SCF Done:  E(UB3LYP) =  -839.518750705     A.U. after   12 cycles
 SCF Done:  E(UB3LYP) =  -839.518751124     A.U. after   11 cycles
 Optimization completed.
    -- Stationary point found.
 Normal termination of Gaussian 16 at Thu Dec 21 20:52:30 2023.

 ----------------------------------------------------------------------
 #P Geom=AllCheck Guess=TCheck SCRF=Check GenChk UB3LYP/6-311++G(d,p) F
 req
 ----------------------------------------------------------------------

 Structure from the checkpoint file:  "189-rad.chk"
 -------
 Radical
 -------
 Charge = -1 Multiplicity = 2

                          Input orientation:
 ---------------------------------------------------------------------
 Center     Atomic      Atomic             Coordinates (Angstroms)
 Number     Number       Type             X           Y           Z
 ---------------------------------------------------------------------
      1          8           0       -4.926355    0.983116    0.194458
      2          6           0       -3.678125    0.387663    0.121706
      3          6           0       -3.647282   -1.018494    0.025323
      4          6           0       -2.426033   -1.657349   -0.049858
      5          6           0       -1.210471   -0.943302   -0.032829
      6          6           0        0.056552   -1.675779   -0.115588
      7          8           0        0.098718   -2.925172   -0.200968
      8          6           0        1.271173   -0.855533   -0.091240
      9          6           0        2.532006   -1.481994   -0.166506
     10          6           0        3.707238   -0.758357   -0.147805
     11          6           0        3.643201    0.646705   -0.050874
     12          8           0        4.848317    1.328844   -0.035990
     13          6           0        2.429856    1.293798    0.024523
     14          6           0        1.218344    0.564758    0.006687
     15          6           0       -0.043558    1.291645    0.089189
     16          8           0       -0.086131    2.551819    0.175071
     17          6           0       -1.253562    0.477340    0.064981
     18          6           0       -2.511291    1.118991    0.141112
     19          1           0       -4.796050    1.934938    0.257203
     20          1           0       -4.581148   -1.569168    0.012152
     21          1           0       -2.367130   -2.737206   -0.124849
     22          1           0        2.546042   -2.563458   -0.240230
     23          1           0        4.676053   -1.241663   -0.205679
     24          1           0        4.654393    2.269143    0.035508
     25          1           0        2.361394    2.375628    0.099768
     26          1           0       -2.516151    2.203086    0.214735
 ---------------------------------------------------------------------

 SCF Done:  E(UB3LYP) =  -839.518751124     A.U. after    2 cycles

 Alpha  occ. eigenvalues --  -19.05279 -19.05278 -18.94830 -18.94487 -10.12268
 Alpha  occ. eigenvalues --  -10.12267 -10.10115 -10.09188 -10.05843 -10.05843
 Alpha  occ. eigenvalues --  -10.05767 -10.05767 -10.05510 -10.05509 -10.05193
 Alpha  occ. eigenvalues --  -10.05192 -10.04783 -10.04782  -0.95887  -0.95886
 Alpha  occ. eigenvalues --   -0.87540  -0.86768  -0.74224  -0.73348  -0.66543
 Alpha  occ. eigenvalues --   -0.63522  -0.63482  -0.62050  -0.54786  -0.53954
 Alpha  occ. eigenvalues --   -0.50348  -0.49842  -0.44587  -0.44080  -0.43786
 Alpha  occ. eigenvalues --   -0.40157  -0.37935  -0.35874  -0.35123  -0.32626
 Alpha  occ. eigenvalues --   -0.31319  -0.31289  -0.31123  -0.30853  -0.30396
 Alpha  occ. eigenvalues --   -0.29696  -0.28189  -0.27845  -0.27271  -0.26485
 Alpha  occ. eigenvalues --   -0.25020  -0.24938  -0.23164  -0.22357  -0.21869
 Alpha  occ. eigenvalues --   -0.19873  -0.14163  -0.14150  -0.12521  -0.11719
 Alpha  occ. eigenvalues --   -0.11228  -0.10917  -0.01536
 Alpha virt. eigenvalues --    0.06876   0.07661   0.07781   0.09563   0.09737
 Alpha virt. eigenvalues --    0.09914   0.11562   0.11671   0.12817   0.13225
 Alpha virt. eigenvalues --    0.14631   0.14876   0.15076   0.16263   0.16782

  Beta  occ. eigenvalues --  -19.05271 -19.05271 -18.94338 -18.93810 -10.12249
  Beta  occ. eigenvalues --  -10.12249 -10.10015 -10.08990 -10.05831 -10.05830
  Beta  occ. eigenvalues --  -10.05751 -10.05751 -10.05422 -10.05421 -10.05150
  Beta  occ. eigenvalues --  -10.05149 -10.04698 -10.04697  -0.95866  -0.95865
  Beta  occ. eigenvalues --   -0.86694  -0.85583  -0.73964  -0.73242  -0.66154
  Beta  occ. eigenvalues --   -0.63379  -0.63225  -0.61902  -0.54172  -0.53699
  Beta  occ. eigenvalues --   -0.50251  -0.49612  -0.44444  -0.43868  -0.43747
  Beta  occ. eigenvalues --   -0.39970  -0.37798  -0.35591  -0.35078  -0.32449
  Beta  occ. eigenvalues --   -0.31276  -0.31210  -0.30793  -0.30687  -0.30236
  Beta  occ. eigenvalues --   -0.29459  -0.27248  -0.27198  -0.27146  -0.26302
  Beta  occ. eigenvalues --   -0.24854  -0.23049  -0.22664  -0.22111  -0.21630
  Beta  occ. eigenvalues --   -0.18742  -0.13723  -0.12425  -0.11191  -0.11123
  Beta  occ. eigenvalues --   -0.10770  -0.10353
  Beta virt. eigenvalues --    0.04493   0.07615   0.07654   0.07772   0.09555
  Beta virt. eigenvalues --    0.09728   0.10804   0.11566   0.12006   0.12814
  Beta virt. eigenvalues --    0.13213   0.14619   0.14996   0.15088   0.16258

 Mulliken charges and spin densities:
               1          2
     1  O   -0.267270   0.002300
     2  C   -0.550118   0.008143
     3  C   -0.129100   0.053223
     4  C    0.166598  -0.007290
     5  C    0.178973   0.038761
     6  C   -0.744021   0.046630
     7  O   -0.364441   0.182198
     8  C    0.178903   0.038808
     9  C    0.166579  -0.007309
    10  C   -0.129129   0.053258
    11  C   -0.550045   0.008145
    12  O   -0.267271   0.002300
    13  C    0.108484   0.059813
    14  C    0.445813   0.055797
    15  C   -0.803035   0.113232
    16  O   -0.388414   0.254648
    17  C    0.445724   0.055767
    18  C    0.108543   0.059800
    19  H    0.255640  -0.000132
    20  H    0.158490  -0.004331
    21  H    0.163447   0.000309
    22  H    0.163443   0.000311
    23  H    0.158497  -0.004333
    24  H    0.255646  -0.000132
    25  H    0.119047  -0.004959
    26  H    0.119017  -0.004958
 Sum of Mulliken charges =  -1.00000   1.00000

 Dipole moment (field-independent basis, Debye):
    X=             -0.0743    Y=              2.2121    Z=              0.1590  Tot=              2.2191
 Quadrupole moment (field-independent basis, Debye-Ang):
   XX=           -136.5390   YY=           -127.4407   ZZ=           -110.4603
   XY=             -0.3486   XZ=              0.6648   YZ=             -1.1278

  Exact polarizability: 337.167   4.313 221.182  -6.008   8.494  95.146
 Approx polarizability: 498.859   3.231 419.990  -8.841  18.264 151.357

                      1                      2                      3
                      A                      A                      A
 Frequencies --     46.1179                94.4914               120.0204
 Red. masses --      9.3706                 4.4282                 7.1882
 Frc consts  --      0.0117                 0.0233                 0.0610
 IR Inten    --      3.3642                 0.0000                 0.5981

                      4                      5                      6
                      A                      A                      A
 Frequencies --    161.7921               168.9429               175.6652
 Red. masses --      7.1711                 6.7290                 5.7788
 Frc consts  --      0.1106                 0.1132                 0.1051
 IR Inten    --      3.6404                 0.9508                 0.0001

                      7                      8                      9
                      A                      A                      A
 Frequencies --    247.4923               274.4555               306.8473
 Red. masses --      8.2777                 3.3464                 1.3117
 Frc consts  --      0.2987                 0.1485                 0.0728
 IR Inten    --      2.3800                31.2990                 0.0005

                     10                     11                     12
                      A                      A                      A
 Frequencies --    319.0568               323.6076               338.2671
 Red. masses --      7.4680                 1.3549                 3.4348
 Frc consts  --      0.4479                 0.0836                 0.2316
 IR Inten    --      0.6855               173.6926                 0.0002

                     13                     14                     15
                      A                      A                      A
 Frequencies --    356.6693               388.3483               408.2647
 Red. masses --     10.3227                 8.0452                 4.8990
 Frc consts  --      0.7737                 0.7149                 0.4811
 IR Inten    --      3.2137                 0.0729                24.4583

                     16                     17                     18
                      A                      A                      A
 Frequencies --    415.9741               457.5567               460.1536
 Red. masses --      3.8293                 2.9977                 5.2471
 Frc consts  --      0.3904                 0.3698                 0.6546
 IR Inten    --      8.8987                 0.0011                37.2729

                     19                     20                     21
                      A                      A                      A
 Frequencies --    484.6724               487.5992               582.6260
 Red. masses --     13.1395                 5.3065                 4.7548
 Frc consts  --      1.8186                 0.7433                 0.9510
 IR Inten    --      0.3046                 4.9666                 0.0000

                     22                     23                     24
                      A                      A                      A
 Frequencies --    592.0233               603.3971               649.3415
 Red. masses --      6.0764                 7.1107                 3.3362
 Frc consts  --      1.2548                 1.5253                 0.8288
 IR Inten    --      2.2285                12.1006                14.7215

                     25                     26                     27
                      A                      A                      A
 Frequencies --    660.2748               712.6478               714.3314
 Red. masses --      7.6805                 4.4400                 7.1389
 Frc consts  --      1.9728                 1.3286                 2.1463
 IR Inten    --      0.3935                 0.0000                 0.1928

                     28                     29                     30
                      A                      A                      A
 Frequencies --    729.4432               736.2324               776.8953
 Red. masses --      6.5680                 6.1239                 2.4126
 Frc consts  --      2.0590                 1.9557                 0.8579
 IR Inten    --     29.5286                 5.5268                 9.4247

                     31                     32                     33
                      A                      A                      A
 Frequencies --    798.6070               806.0994               825.5122
 Red. masses --      7.8516                 1.4311                 2.3045
 Frc consts  --      2.9503                 0.5479                 0.9253
 IR Inten    --     96.6934                 0.0000                22.7391

                     34                     35                     36
                      A                      A                      A
 Frequencies --    874.4120               882.1015               933.9048
 Red. masses --      1.4157                 1.5382                 4.3373
 Frc consts  --      0.6378                 0.7052                 2.2288
 IR Inten    --      0.0040                42.7589                 4.2085

                     37                     38                     39
                      A                      A                      A
 Frequencies --    938.2555               978.0105               982.7209
 Red. masses --      6.7351                 1.2888                 1.3249
 Frc consts  --      3.4933                 0.7263                 0.7539
 IR Inten    --     20.3912                 0.0001                 2.9424

                     40                     41                     42
                      A                      A                      A
 Frequencies --   1012.7800              1093.8235              1107.8507
 Red. masses --      2.3222                 2.2666                 1.5283
 Frc consts  --      1.4034                 1.5978                 1.1052
 IR Inten    --      9.3527                 0.3440                 7.7165

                     43                     44                     45
                      A                      A                      A
 Frequencies --   1145.8931              1163.1569              1179.5408
 Red. masses --      1.4610                 1.8575                 1.8049
 Frc consts  --      1.1303                 1.4806                 1.4795
 IR Inten    --     18.9467                 4.8234               102.0800

                     46                     47                     48
                      A                      A                      A
 Frequencies --   1188.5396              1192.8307              1219.8316
 Red. masses --      2.8142                 1.9914                 1.8146
 Frc consts  --      2.3423                 1.6694                 1.5908
 IR Inten    --    558.8314                34.6813                31.6462

                     49                     50                     51
                      A                      A                      A
 Frequencies --   1242.0977              1260.7048              1290.8060
 Red. masses --      2.2203                 3.0496                 2.6298
 Frc consts  --      2.0182                 2.8558                 2.5816
 IR Inten    --    122.5443                 0.0120                 4.8226

                     52                     53                     54
                      A                      A                      A
 Frequencies --   1339.6365              1370.3409              1370.4371
 Red. masses --      2.0810                 6.9361                 8.3018
 Frc consts  --      2.2004                 7.6740                 9.1863
 IR Inten    --     35.4833                 2.0267                 1.3363

                     55                     56                     57
                      A                      A                      A
 Frequencies --   1426.7414              1468.9220              1486.4109
 Red. masses --      3.3515                 3.0827                 3.7670
 Frc consts  --      4.0195                 3.9191                 4.9037
 IR Inten    --    200.3421               171.1645                74.0735

                     58                     59                     60
                      A                      A                      A
 Frequencies --   1491.3086              1531.6725              1556.4227
 Red. masses --      4.4724                 5.3379                 8.2284
 Frc consts  --      5.8604                 7.3783                11.7442
 IR Inten    --     67.0068               463.9759               160.4370

                     61                     62                     63
                      A                      A                      A
 Frequencies --   1579.1590              1612.7499              1625.2597
 Red. masses --      5.5505                 7.5271                 6.3022
 Frc consts  --      8.1552                11.5349                 9.8082
 IR Inten    --      5.0025                28.2803               593.9653

                     64                     65                     66
                      A                      A                      A
 Frequencies --   1649.3431              3149.5291              3150.1536
 Red. masses --      7.5574                 1.0892                 1.0895
 Frc consts  --     12.1129                 6.3659                 6.3698
 IR Inten    --      2.3636                36.6425                 8.7364

                     67                     68                     69
                      A                      A                      A
 Frequencies --   3167.9890              3168.1046              3186.0717
 Red. masses --      1.0869                 1.0869                 1.0936
 Frc consts  --      6.4268                 6.4273                 6.5409
 IR Inten    --      4.6427                 8.5291                32.8725

                     70                     71                     72
                      A                      A                      A
 Frequencies --   3186.6222              3830.8914              3831.0229
 Red. masses --      1.0937                 1.0657                 1.0657
 Frc consts  --      6.5438                 9.2147                 9.2155
 IR Inten    --     11.3179                24.2989                57.8885

 - Thermochemistry -
 -------------------
 Temperature   298.150 Kelvin.  Pressure   1.00000 Atm.
 Atom     1 has atomic number  8 and mass  15.99491

 Molecular mass:   240.04226 amu.
 Principal axes and moments of inertia in atomic units:
                           1         2         3
     Eigenvalues --  1869.464616762.189618631.65410
           X            0.99910  -0.03365   0.02589
           Y            0.03534   0.99708  -0.06771
           Z           -0.02354   0.06856   0.99737
 This molecule is an asymmetric top.
 Rotational symmetry number  1.
 Warning -- assumption of classical behavior for rotation
           may cause significant error
 Rotational temperatures (Kelvin)      0.04633     0.01281     0.01003
 Rotational constants (GHZ):           0.96538     0.26689     0.20908
 Zero-point vibrational energy     485022.8 (Joules/Mol)
                                  115.92323 (Kcal/Mol)
 Warning -- explicit consideration of  23 degrees of freedom as
           vibrations may cause significant error
 Vibrational temperatures:     66.35   135.95   172.68   232.78   243.07
          (Kelvin)            252.74   356.09   394.88   441.48   459.05
                              465.60   486.69   513.17   558.75   587.40
                              598.49   658.32   662.06   697.34   701.55
                              838.27   851.79   868.15   934.26   949.99
                             1025.34  1027.76  1049.51  1059.27  1117.78
                             1149.02  1159.80  1187.73  1258.08  1269.15
                             1343.68  1349.94  1407.14  1413.92  1457.16
                             1573.77  1593.95  1648.68  1673.52  1697.10
                             1710.04  1716.22  1755.07  1787.10  1813.87
                             1857.18  1927.44  1971.61  1971.75  2052.76
                             2113.45  2138.61  2145.66  2203.74  2239.35
                             2272.06  2320.39  2338.39  2373.04  4531.47
                             4532.37  4558.03  4558.20  4584.05  4584.84
                             5511.80  5511.99

 Zero-point correction=                           0.184735 (Hartree/Particle)
 Thermal correction to Energy=                    0.198533
 Thermal correction to Enthalpy=                  0.199477
 Thermal correction to Gibbs Free Energy=         0.144011
 Sum of electronic and zero-point Energies=           -839.334016
 Sum of electronic and thermal Energies=              -839.320218
 Sum of electronic and thermal Enthalpies=            -839.319274
 Sum of electronic and thermal Free Energies=         -839.374740

                     E (Thermal)             CV                S
                      KCal/Mol        Cal/Mol-Kelvin    Cal/Mol-Kelvin
 Total                  124.581             55.904            116.739
 Electronic               0.000              0.000              1.377
 Translational            0.889              2.981             42.328
 Rotational               0.889              2.981             33.056
 Vibrational            122.804             49.943             39.977
 Vibration     1          0.595              1.979              4.977
 Vibration     2          0.603              1.953              3.565
 Vibration     3          0.609              1.933              3.100
 Vibration     4          0.622              1.889              2.529
 Vibration     5          0.625              1.881              2.447
 Vibration     6          0.628              1.872              2.374
 Vibration     7          0.661              1.767              1.748
 Vibration     8          0.677              1.721              1.568
 Vibration     9          0.697              1.661              1.379
 Vibration    10          0.705              1.637              1.315
 Vibration    11          0.708              1.628              1.292
 Vibration    12          0.719              1.599              1.220
 Vibration    13          0.732              1.562              1.137
 Vibration    14          0.757              1.495              1.006
 Vibration    15          0.773              1.452              0.933
 Vibration    16          0.779              1.436              0.906
 Vibration    17          0.816              1.344              0.773
 Vibration    18          0.818              1.338              0.766
 Vibration    19          0.841              1.284              0.698
 Vibration    20          0.844              1.278              0.690
 Vibration    21          0.939              1.069              0.481
 Vibration    22          0.950              1.049              0.464
 Vibration    23          0.962              1.025              0.444

                           ! Non-Optimized Parameters !
 Normal termination of Gaussian 16 at Thu Dec 21 22:23:14 2023.
