 Q-Chem 5.4, Q-Chem, Inc., Pleasanton, CA (2021)
 Q-Chem 5.4.0 for Intel X86 EM64T Linux

User input:
--------------------------------------------------------------
$molecule
-2 1
C                  5.9015280000     -5.2058010000      1.0748490000
C                  6.7798620000     -5.0787980000      0.0140960000
C                  6.5479010000     -4.0847070000     -0.9699890000
C                  4.7670600000     -4.3726900000      1.2180960000
C                  4.5314360000     -3.3627320000      0.2183730000
C                  5.4466000000     -3.2559890000     -0.8552630000
C                  3.8908270000     -4.5768910000      2.3713630000
C                  2.8012840000     -3.6698700000      2.3795930000
C                  2.5683650000     -2.6714420000      1.3913090000
C                  3.3934510000     -2.4447620000      0.2609490000
O                  4.1171830000     -5.4819800000      3.2538610000
O                  3.1996530000     -1.5492900000     -0.6389400000
H                  6.0458390000     -5.9547970000      1.8476070000
H                  7.6437510000     -5.7374300000     -0.0652870000
H                  5.2359020000     -2.4834620000     -1.5885990000
Cl                 1.6668330000     -3.8363560000      3.7549920000
H                  7.2325010000     -3.9749170000     -1.8100330000
Cl                 1.1441790000     -1.5958860000      1.5373240000
$end
$rem
MAX_SCF_CYCLES=200
BASIS  =  6-311++G(d,p)
GUI  =  2
JOB_TYPE  =  SP
METHOD  =  B3LYP
SOLVENT_METHOD = PCM
$end
$pcm
theory = CPCM
$end
$solvent
dielectric 37.219
opticaldielectric 1.43
$end

--------------------------------------------------------------

             Standard Nuclear Orientation (Angstroms)
    I     Atom           X                Y                Z
 ----------------------------------------------------------------
    1      C       5.9015280000    -5.2058010000     1.0748490000
    2      C       6.7798620000    -5.0787980000     0.0140960000
    3      C       6.5479010000    -4.0847070000    -0.9699890000
    4      C       4.7670600000    -4.3726900000     1.2180960000
    5      C       4.5314360000    -3.3627320000     0.2183730000
    6      C       5.4466000000    -3.2559890000    -0.8552630000
    7      C       3.8908270000    -4.5768910000     2.3713630000
    8      C       2.8012840000    -3.6698700000     2.3795930000
    9      C       2.5683650000    -2.6714420000     1.3913090000
   10      C       3.3934510000    -2.4447620000     0.2609490000
   11      O       4.1171830000    -5.4819800000     3.2538610000
   12      O       3.1996530000    -1.5492900000    -0.6389400000
   13      H       6.0458390000    -5.9547970000     1.8476070000
   14      H       7.6437510000    -5.7374300000    -0.0652870000
   15      H       5.2359020000    -2.4834620000    -1.5885990000
   16      Cl      1.6668330000    -3.8363560000     3.7549920000
   17      H       7.2325010000    -3.9749170000    -1.8100330000
   18      Cl      1.1441790000    -1.5958860000     1.5373240000
 ----------------------------------------------------------------

    9   -1454.7762109033      5.08e-06  Convergence criterion met
 Total energy in the final basis set =    -1454.7762109033

                    Orbital Energies (a.u.)
 --------------------------------------------------------------

 Alpha MOs
 -- Occupied --
********-101.5319 -19.0316 -19.0316 -10.1949 -10.1944 -10.1923 -10.1923
-10.1575 -10.1571 -10.1540 -10.1537 -10.1534 -10.1532  -9.4463  -9.4463
 -7.2104  -7.2104  -7.2016  -7.2016  -7.2010  -7.2010  -0.9541  -0.9499
 -0.8568  -0.8345  -0.8179  -0.7634  -0.7322  -0.6978  -0.6542  -0.5891
 -0.5829  -0.5386  -0.4948  -0.4767  -0.4455  -0.4351  -0.4077  -0.3980
 -0.3971  -0.3942  -0.3780  -0.3681  -0.3501  -0.3460  -0.3378  -0.3192
 -0.3087  -0.3071  -0.3070  -0.2843  -0.2373  -0.2369  -0.2183  -0.2161
 -0.2113  -0.1294

          Ground-State Mulliken Net Atomic Charges

     Atom                 Charge (a.u.)
  ----------------------------------------
      1 C                    -0.159711
      2 C                    -0.465341
      3 C                    -0.463318
      4 C                     0.328487
      5 C                     0.328442
      6 C                    -0.160462
      7 C                    -1.712485
      8 C                     1.036863
      9 C                     1.045207
     10 C                    -1.713592
     11 O                    -0.642295
     12 O                    -0.641912
     13 H                     0.152696
     14 H                     0.186792
     15 H                     0.153378
     16 Cl                    0.269786
     17 H                     0.186836
     18 Cl                    0.270629
  ----------------------------------------
  Sum of atomic charges =    -2.000000

                    Cartesian Multipole Moments
 -----------------------------------------------------------------
    Charge (ESU x 10^10)
                -9.6064
    Dipole Moment (Debye)
         X     -31.6152      Y      32.5215      Z     -14.6577
       Tot      47.6657
    Quadrupole Moments (Debye-Ang)
        XX    -218.9330     XY     116.9107     YY    -243.6903
        XZ     -49.2875     YZ      75.6840     ZZ    -157.4575

 Total job time:  27.26s(wall), 175.18s(cpu)
        *  Thank you very much for using Q-Chem.  Have a nice day.  *
