 Q-Chem 5.4, Q-Chem, Inc., Pleasanton, CA (2021)
 Q-Chem 5.4.0 for Intel X86 EM64T Linux

User input:
--------------------------------------------------------------
$molecule
-2 1
C                 -0.9838140000      3.9160650000      0.0124000000
C                 -2.1563630000      3.1990840000      0.1474640000
C                 -2.1234930000      1.7747450000      0.1284960000
C                  0.2792900000      3.2862310000     -0.1452320000
C                  0.3096250000      1.8303670000     -0.1543480000
C                 -0.9110090000      1.1264900000     -0.0202230000
C                  1.4661630000      4.0828980000     -0.3025750000
C                  2.6856890000      3.3545340000     -0.4639090000
C                  2.7151860000      1.9465620000     -0.3975520000
C                  1.5492130000      1.1237320000     -0.2905170000
O                  1.4721610000      5.3863720000     -0.3176470000
O                  1.6638070000     -0.1790190000     -0.3379590000
N                  3.8259050000      4.1315230000     -0.7519920000
H                 -0.9830400000      5.0021930000      0.0180560000
H                 -3.1058730000      3.7200940000      0.2659850000
H                 -3.0447190000      1.2033840000      0.2322720000
H                 -0.8528780000      0.0417740000     -0.0358620000
H                  3.5810160000      5.0964110000     -0.5337010000
H                  4.6694580000      3.7965080000     -0.2946500000
N                  3.8607200000      1.1159460000     -0.5694630000
C                  5.1570290000      1.2094060000     -0.2399160000
C                  5.9628800000     -0.0633130000     -0.5163630000
H                  3.4665320000      0.1698120000     -0.7017810000
H                  5.3451720000     -0.9075350000     -0.8338440000
H                  6.5111680000     -0.3353630000      0.3915400000
H                  6.7044190000      0.1456330000     -1.2953490000
O                  5.7532320000      2.1947030000      0.2342010000
$end
$rem
MAX_SCF_CYCLES=200
BASIS  =  6-311++G(d,p)
GUI  =  2
JOB_TYPE  =  SP
METHOD  =  B3LYP
SOLVENT_METHOD = COSMO
$end
$solvent
dielectric 37.219
opticaldielectric 1.43
$end

--------------------------------------------------------------

             Standard Nuclear Orientation (Angstroms)
    I     Atom           X                Y                Z
 ----------------------------------------------------------------
    1      C       3.2300319897    -0.8521903497     0.1053018954
    2      C       4.1936680670     0.1353830584     0.1625685506
    3      C       3.8077376442     1.5064954012     0.1266455603
    4      C       1.8436945673    -0.5580817054     0.0128947178
    5      C       1.4529220549     0.8444623111    -0.0137590870
    6      C       2.4662713694     1.8311830538     0.0399535883
    7      C       0.8847791496    -1.6269873875    -0.0647230062
    8      C      -0.4840279976    -1.2267803302    -0.1646617166
    9      C      -0.8581205905     0.1316325199    -0.1153896361
   10      C       0.0714277486     1.2193547856    -0.0871249090
   11      O       1.2013436862    -2.8915378086    -0.0621275110
   12      O      -0.3649195490     2.4517430364    -0.1451156960
   13      N      -1.4096108674    -2.2686688524    -0.3757562597
   14      H       3.4988616056    -1.9043468230     0.1254020232
   15      H       5.2476053103    -0.1317635269     0.2326889955
   16      H       4.5627075709     2.2901343631     0.1691964800
   17      H       2.1402826517     2.8671632091     0.0133252995
   18      H      -0.9219450110    -3.1369678571    -0.1592631038
   19      H      -2.2844526755    -2.1398694609     0.1252836054
   20      N      -2.1812637948     0.6488619780    -0.2315370643
   21      C      -3.3946064579     0.2473912532     0.1738933973
   22      C      -4.5043065293     1.2738632886    -0.0721824912
   23      H      -2.0415292474     1.6590481430    -0.3990480986
   24      H      -4.1328902523     2.2354492389    -0.4361475353
   25      H      -5.0540652636     1.4268004575     0.8623197010
   26      H      -5.2110580625     0.8672554140    -0.8039816537
   27      O      -3.7019516475    -0.8412815316     0.6948402538
 ----------------------------------------------------------------

   11    -798.7198967318      8.24e-06  Convergence criterion met
 Total energy in the final basis set =     -798.7198967318
    6    -798.9989558099      2.84e-06  Convergence criterion met
 Total energy in the final basis set =     -798.9989558099

                    Orbital Energies (a.u.)
 --------------------------------------------------------------

 Alpha MOs
 -- Occupied --
-19.0865 -19.0383 -19.0271 -14.3306 -14.2800 -10.2690 -10.1828 -10.1733
-10.1730 -10.1696 -10.1616 -10.1508 -10.1498 -10.1490 -10.1472 -10.1426
-10.1422  -1.0287  -0.9599  -0.9427  -0.9110  -0.8691  -0.8274  -0.7656
 -0.7320  -0.7265  -0.6925  -0.6517  -0.6132  -0.5881  -0.5565  -0.5368
 -0.5092  -0.4899  -0.4736  -0.4705  -0.4441  -0.4415  -0.4215  -0.4152
 -0.4033  -0.3993  -0.3976  -0.3856  -0.3835  -0.3742  -0.3622  -0.3526
 -0.3395  -0.3307  -0.3283  -0.3085  -0.2889  -0.2776  -0.2604  -0.2342
 -0.2303  -0.2242  -0.2101  -0.1839  -0.1196

          Ground-State Mulliken Net Atomic Charges

     Atom                 Charge (a.u.)
  ----------------------------------------
      1 C                     0.018381
      2 C                    -0.381731
      3 C                    -0.471832
      4 C                     0.426299
      5 C                    -0.081872
      6 C                    -0.033508
      7 C                    -0.647020
      8 C                     0.309663
      9 C                     0.459630
     10 C                    -0.841363
     11 O                    -0.752814
     12 O                    -0.697526
     13 N                    -0.532839
     14 H                     0.156063
     15 H                     0.177061
     16 H                     0.178587
     17 H                     0.158854
     18 H                     0.289637
     19 H                     0.288696
     20 N                    -0.038116
     21 C                     0.293188
     22 C                    -0.600462
     23 H                     0.352694
     24 H                     0.142684
     25 H                     0.179359
     26 H                     0.187546
     27 O                    -0.539259
  ----------------------------------------
  Sum of atomic charges =    -2.000000

                    Cartesian Multipole Moments
 -----------------------------------------------------------------
    Charge (ESU x 10^10)
                -9.6064
    Dipole Moment (Debye)
         X      -3.1672      Y       5.8005      Z       0.1159
       Tot       6.6099
    Quadrupole Moments (Debye-Ang)
        XX    -137.0487     XY      -0.5875     YY    -157.2261
        XZ       4.5562     YZ      -1.3664     ZZ    -113.4186

 Total job time:  65.49s(wall), 495.02s(cpu)
        *  Thank you very much for using Q-Chem.  Have a nice day.  *
