 Q-Chem 5.4, Q-Chem, Inc., Pleasanton, CA (2021)
 Q-Chem 5.4.0 for Intel X86 EM64T Linux

User input:
--------------------------------------------------------------
$molecule
-1 2
C                 -3.4596210000      5.5162530000      3.5165240000
C                 -2.4494110000      6.0207020000      4.3161600000
C                 -2.0230450000      5.2992700000      5.4487760000
C                 -4.0755860000      4.2845640000      3.8153580000
C                 -3.6460240000      3.5591830000      4.9550040000
C                 -2.6163070000      4.0882390000      5.7581220000
C                 -5.1482170000      3.7747270000      2.9470540000
C                 -5.7386120000      2.5030100000      3.3178420000
C                 -5.3044250000      1.7886310000      4.4286260000
C                 -4.2592910000      2.2705160000      5.3052300000
O                 -5.5240160000      4.4264040000      1.9330440000
O                 -3.8858130000      1.6221430000      6.3234710000
H                 -1.9849040000      6.9718790000      4.0722360000
H                 -1.2299720000      5.6943770000      6.0771950000
C                 -6.8471780000      1.9903620000      2.4295770000
H                 -3.8082190000      6.0490380000      2.6392090000
H                 -2.3105080000      3.5108930000      6.6232190000
H                 -6.5492220000      1.0818970000      1.8893920000
H                 -7.0932270000      2.7539580000      1.6914090000
H                 -7.7461960000      1.7442050000      3.0041910000
C                 -5.9136090000      0.4487590000      4.8079090000
C                 -7.0450840000      0.5945840000      5.7943300000
C                 -8.2799930000      0.0732670000      5.7538210000
C                 -9.2599920000      0.3542730000      6.8757110000
C                 -9.5837680000     -0.8783960000      7.7590150000
C                -10.6053210000     -0.5735600000      8.8180100000
C                -10.4592040000     -0.5488460000     10.1507490000
C                 -8.8023570000     -0.8054590000      4.6415600000
C                -11.6314530000     -0.1789200000     11.0377860000
C                -11.4795220000      1.1878910000     11.7524380000
C                -12.6435550000      1.4923280000     12.6533830000
C                -13.5387990000      2.4867880000     12.5675600000
C                 -9.1743690000     -0.8734960000     10.8737300000
C                -13.5229640000      3.5610110000     11.5072390000
C                -14.6554330000      2.5939510000     13.5870740000
C                -16.0649050000      2.2892890000     13.0192760000
C                -17.1446180000      2.4638980000     14.0506350000
C                -17.9675000000      1.5437560000     14.5738760000
C                -17.9798420000      0.0865620000     14.1801110000
C                -18.9819170000      1.9424730000     15.6272180000
C                -18.6831290000      1.3829500000     17.0411670000
C                -19.7441000000      1.7587380000     18.0379580000
C                -19.6389990000      2.5293210000     19.1300650000
C                -18.3578650000      3.1739940000     19.6006580000
C                -20.8564790000      2.7940390000     19.9932990000
C                -21.3726320000      4.2539560000     19.9326710000
C                -22.5438780000      4.4821940000     20.8473900000
C                -23.8053200000      4.8116300000     20.5347840000
C                -24.3020220000      5.0535090000     19.1300970000
C                -24.8405320000      4.9787420000     21.6291860000
C                -25.9309260000      3.8780380000     21.6465630000
C                -26.9658210000      4.1181790000     22.7105160000
C                -27.2536820000      3.3696070000     23.7837120000
C                -26.5694390000      2.0737840000     24.1404880000
C                -28.3347980000      3.7878140000     24.7510860000
H                 -5.1235810000     -0.1310600000      5.2990790000
H                 -6.2288820000     -0.0988430000      3.9179450000
H                 -6.7876190000      1.2144700000      6.6510160000
H                -10.2024730000      0.7354810000      6.4557400000
H                 -8.8615450000      1.1448520000      7.5179150000
H                 -8.6516560000     -1.2504710000      8.1898600000
H                 -9.9729170000     -1.6809680000      7.1200830000
H                -11.5911450000     -0.3158420000      8.4281310000
H                 -8.1117120000     -0.8662750000      3.8009580000
H                 -9.7590050000     -0.4231170000      4.2629020000
H                 -8.9893020000     -1.8297470000      4.9875800000
H                -11.7715650000     -0.9560210000     11.8026140000
H                -12.5489010000     -0.1578280000     10.4419770000
H                -11.3383970000      1.9633590000     10.9967600000
H                -10.5642370000      1.1744730000     12.3564840000
H                -12.7677820000      0.7885120000     13.4774890000
H                 -8.3780880000     -1.1873980000     10.2002110000
H                 -9.3373190000     -1.6764020000     11.6034830000
H                 -8.8039570000     -0.0094350000     11.4360590000
H                -12.6797070000      3.4713390000     10.8238130000
H                -13.4753930000      4.5538460000     11.9705830000
H                -14.4380480000      3.5407600000     10.9054200000
H                -14.6644560000      3.6071330000     14.0122360000
H                -14.4610780000      1.9086710000     14.4174270000
H                -16.0632090000      1.2799160000     12.6021550000
H                -16.2674350000      2.9697420000     12.1833950000
H                -17.2484810000      3.4844380000     14.4208880000
H                -17.2666380000     -0.1465430000     13.3903750000
H                -18.9771190000     -0.2055480000     13.8297410000
H                -17.7478540000     -0.5584740000     15.0344850000
H                -19.9791820000      1.5973920000     15.3211520000
H                -19.0351970000      3.0332150000     15.6905350000
H                -17.6951390000      1.7288620000     17.3526730000
H                -18.6259770000      0.2889450000     16.9877300000
H                -20.7302230000      1.3483330000     17.8178620000
H                -17.5013640000      2.9262120000     18.9747840000
H                -18.1273620000      2.8601180000     20.6257460000
H                -18.4462580000      4.2654860000     19.6211810000
H                -20.6203960000      2.5524890000     21.0387620000
H                -21.6699370000      2.1263310000     19.6949080000
H                -21.6161270000      4.4961950000     18.8959240000
H                -20.5624260000      4.9319470000     20.2273210000
H                -22.3180910000      4.3460130000     21.9055320000
H                -23.5186400000      4.9601520000     18.3788240000
H                -24.7306580000      6.0592380000     19.0455590000
H                -25.0994490000      4.3513630000     18.8642630000
H                -25.3337310000      5.9539850000     21.5168220000
H                -24.3449990000      4.9908400000     22.6042550000
H                -25.4470910000      2.9061730000     21.7670420000
H                -26.4318480000      3.8549040000     20.6710670000
H                -27.5396420000      5.0359690000     22.5798340000
H                -25.7778250000      1.7974880000     23.4448090000
H                -27.2945850000      1.2516680000     24.1699310000
H                -26.1304180000      2.1362440000     25.1432190000
H                -28.8025880000      4.7290000000     24.4550630000
H                -27.9305090000      3.9104980000     25.7631450000
H                -29.1185860000      3.0235970000     24.8188010000
$end
$rem
MAX_SCF_CYCLES=200
SCF_Guess=core
BASIS  =  6-311++G(d,p)
GUI  =  2
JOB_TYPE  =  SP
METHOD  =  B3LYP
THRESH = 14
SCF_CONVERGENCE = 8
SOLVENT_METHOD = COSMO
$end
$solvent
dielectric 37.219
opticaldielectric 1.43
$end

--------------------------------------------------------------

             Standard Nuclear Orientation (Angstroms)
    I     Atom           X                Y                Z
 ----------------------------------------------------------------
    1      C     -13.4266740669     3.6279730970     0.4934558960
    2      C     -13.6392081901     4.3866736899    -0.6439153833
    3      C     -13.2420396139     3.8931233298    -1.9023812208
    4      C     -12.8155538978     2.3605078253     0.4170598401
    5      C     -12.4163122838     1.8645007452    -0.8494618623
    6      C     -12.6402409749     2.6508870512    -1.9969235794
    7      C     -12.6015553102     1.5777212296     1.6441998546
    8      C     -11.9638349872     0.2843348818     1.4899965148
    9      C     -11.5866447364    -0.2038064504     0.2441464613
   10      C     -11.7756166259     0.5482152888    -0.9772075957
   11      O     -12.9613519139     2.0262162899     2.7682650954
   12      O     -11.4111590057     0.1031122792    -2.1022596175
   13      H     -14.1114114515     5.3620029327    -0.5680187160
   14      H     -13.4084933300     4.4879353572    -2.7959563866
   15      C     -11.7360920124    -0.5095573761     2.7543578075
   16      H     -13.7215638104     3.9818246597     1.4747260636
   17      H     -12.3229950437     2.2449388481    -2.9507554970
   18      H     -12.3515845132    -1.4185914322     2.7810474074
   19      H     -12.0072923847     0.1044073866     3.6134320686
   20      H     -10.6917881458    -0.8236012261     2.8534223136
   21      C     -10.9318975162    -1.5658634055     0.0818977472
   22      C      -9.4262341667    -1.4819239412     0.1033229612
   23      C      -8.5455276556    -2.1975494998     0.8179198637
   24      C      -7.0591321171    -1.9396094250     0.6692766495
   25      C      -6.2826510630    -3.0866939421    -0.0277197647
   26      C      -4.8055168411    -2.8201313298    -0.0983228309
   27      C      -4.0365393629    -2.6036421622    -1.1753373526
   28      C      -8.9202346003    -3.2829291889     1.7995988845
   29      C      -2.5568617366    -2.3195823718    -1.0088688556
   30      C      -2.1464444930    -0.8669514283    -1.3601576937
   31      C      -0.6663618039    -0.6438875735    -1.2224828765
   32      C      -0.0109792487     0.1732124612    -0.3854647536
   33      C      -4.5386051943    -2.6214526770    -2.5988937486
   34      C      -0.6789035929     1.0928901945     0.6077906825
   35      C       1.5038046016     0.2259109486    -0.4058841331
   36      C       2.1769274151    -0.3727177415     0.8552162559
   37      C       3.6744284186    -0.2465278605     0.8160153572
   38      C       4.6011162552    -1.2142883788     0.7684079750
   39      C       4.2935955769    -2.6921299000     0.7741546798
   40      C       6.0728659177    -0.8554103118     0.7163894295
   41      C       6.7575800427    -1.1756209080    -0.6364682025
   42      C       8.2261606359    -0.8538877352    -0.6213954417
   43      C       8.8968709738     0.0554214817    -1.3430923796
   44      C       8.2695644859     0.9536717472    -2.3813593999
   45      C      10.3907110961     0.2261747215    -1.1512822423
   46      C      10.7961795104     1.5634617436    -0.4814269547
   47      C      12.2877505009     1.7125288033    -0.3647409746
   48      C      13.0427174768     1.7907328987     0.7404266568
   49      C      12.5002988335     1.7691585599     2.1488585716
   50      C      14.5480066999     1.9247806937     0.6244888003
   51      C      15.3354074698     0.6729278853     1.0867386298
   52      C      16.8232823686     0.8746420767     1.0079286206
   53      C      17.7169307341     0.2311489236     0.2448540439
   54      C      17.3866802114    -0.8808207980    -0.7190405433
   55      C      19.1829456474     0.5874043029     0.3031955811
   56      H     -11.2248939251    -1.9429811990    -0.9047721858
   57      H     -11.3027497027    -2.2654840826     0.8330971216
   58      H      -9.0310125413    -0.7251532140    -0.5716257147
   59      H      -6.6125138711    -1.7725792227     1.6605378004
   60      H      -6.9043856247    -1.0200590475     0.0977158295
   61      H      -6.7139556949    -3.2450929873    -1.0185709428
   62      H      -6.4427019808    -4.0160584902     0.5330458729
   63      H      -4.3113779338    -2.7771743023     0.8734048034
   64      H      -9.9952545994    -3.3367450822     1.9691178376
   65      H      -8.4357157421    -3.1118611482     2.7695060364
   66      H      -8.5922350026    -4.2718620410     1.4556915447
   67      H      -1.9784642732    -3.0060360294    -1.6434686953
   68      H      -2.2590644593    -2.5231491255     0.0240984373
   69      H      -2.7196409414    -0.1807739748    -0.7333224217
   70      H      -2.4368886855    -0.6551836796    -2.3963019094
   71      H      -0.0579686841    -1.2485477493    -1.8964145437
   72      H      -5.5929314056    -2.8846672688    -2.6719694553
   73      H      -3.9671659004    -3.3413015099    -3.1980806805
   74      H      -4.4125049125    -1.6446447252    -3.0784407328
   75      H      -1.7662143918     1.0554769124     0.5572930979
   76      H      -0.3703326505     2.1308222843     0.4341446339
   77      H      -0.3884709103     0.8484879399     1.6353564145
   78      H       1.8305553549     1.2697435419    -0.5109049320
   79      H       1.8776532941    -0.3081370828    -1.2844616791
   80      H       1.8611286355    -1.4129942012     0.9597278647
   81      H       1.8053903385     0.1545810110     1.7421480226
   82      H       4.0365687292     0.7821734912     0.8138652967
   83      H       3.2283349243    -2.9044551219     0.8567293642
   84      H       4.8006879790    -3.1841002631     1.6128866163
   85      H       4.6565737089    -3.1776508605    -0.1381835678
   86      H       6.6070416305    -1.3936119822     1.5115561057
   87      H       6.1976033114     0.2113680361     0.9237308155
   88      H       6.2339895488    -0.6374224658    -1.4295701955
   89      H       6.6363118997    -2.2437144413    -0.8542732656
   90      H       8.8060123645    -1.4433329049     0.0896878510
   91      H       7.2039751719     0.7709595413    -2.5149401245
   92      H       8.7591527253     0.8135829756    -3.3525100968
   93      H       8.3925301873     2.0100740987    -2.1196671950
   94      H      10.8923774185     0.1603477318    -2.1265115374
   95      H      10.7791068453    -0.5969639365    -0.5445066894
   96      H      10.3058506225     1.6298632041     0.4922168805
   97      H      10.4081687726     2.3956626359    -1.0812715373
   98      H      12.8096581692     1.7497507335    -1.3215149501
   99      H      11.4131472573     1.7098427384     2.1862362605
  100      H      12.8063522374     2.6731451400     2.6887714277
  101      H      12.8967343733     0.9190378183     2.7142788832
  102      H      14.8830450083     2.7849393793     1.2201784834
  103      H      14.8183510634     2.1403606401    -0.4132482002
  104      H      15.0128835319    -0.1844175412     0.4917006444
  105      H      15.0683962297     0.4456197366     2.1260107218
  106      H      17.2045719794     1.6631803053     1.6571685640
  107      H      16.3227478389    -1.1107942443    -0.7651013349
  108      H      17.9185548675    -1.7992652137    -0.4430921162
  109      H      17.7196936659    -0.6216243699    -1.7309839208
  110      H      19.3765828340     1.3951224418     1.0119862662
  111      H      19.5505754273     0.9010821914    -0.6812935788
  112      H      19.7863752409    -0.2790511533     0.5999517798
 ----------------------------------------------------------------

   83   -1942.4029073462      7.67e-09  Convergence criterion met
 Total energy in the final basis set =    -1942.4029073462
   11   -1942.4942490983      9.70e-09  Convergence criterion met
 Total energy in the final basis set =    -1942.4942490983

                    Orbital Energies (a.u.)
 --------------------------------------------------------------

 Alpha MOs
 -- Occupied --
-19.0758 -19.0752 -10.2196 -10.2189 -10.1743 -10.1719 -10.1718 -10.1717
-10.1714 -10.1709 -10.1708 -10.1707 -10.1703 -10.1702 -10.1687 -10.1686
-10.1679 -10.1678 -10.1662 -10.1643 -10.1641 -10.1640 -10.1638 -10.1638
-10.1637 -10.1636 -10.1634 -10.1634 -10.1631 -10.1627 -10.1621 -10.1598
-10.1578 -10.1575 -10.1574 -10.1574 -10.1573 -10.1573 -10.1572 -10.1572
-10.1571 -10.1571 -10.1567 -10.1564 -10.1563 -10.1563 -10.1559 -10.1501
 -1.0011  -0.9983  -0.8564  -0.8288  -0.8269  -0.8244  -0.8208  -0.8158
 -0.8099  -0.8040  -0.8005  -0.7731  -0.7653  -0.7576  -0.7500  -0.7482
 -0.7407  -0.7315  -0.7237  -0.7183  -0.6888  -0.6872  -0.6852  -0.6842
 -0.6826  -0.6797  -0.6745  -0.6672  -0.6581  -0.6479  -0.6367  -0.6231
 -0.6099  -0.5993  -0.5941  -0.5876  -0.5820  -0.5785  -0.5510  -0.5199
 -0.5190  -0.5183  -0.5166  -0.5139  -0.5110  -0.5089  -0.5053  -0.4892
 -0.4760  -0.4755  -0.4742  -0.4734  -0.4697  -0.4650  -0.4639  -0.4609
 -0.4446  -0.4437  -0.4421  -0.4391  -0.4353  -0.4315  -0.4307  -0.4281
 -0.4261  -0.4232  -0.4214  -0.4191  -0.4147  -0.4141  -0.4131  -0.4102
 -0.4099  -0.4066  -0.4064  -0.4011  -0.3999  -0.3993  -0.3961  -0.3960
 -0.3912  -0.3885  -0.3883  -0.3811  -0.3789  -0.3737  -0.3727  -0.3705
 -0.3698  -0.3696  -0.3686  -0.3673  -0.3667  -0.3658  -0.3638  -0.3618
 -0.3616  -0.3593  -0.3587  -0.3574  -0.3545  -0.3524  -0.3506  -0.3476
 -0.3440  -0.3364  -0.3345  -0.3344  -0.3332  -0.3316  -0.3305  -0.3259
 -0.3248  -0.3240  -0.3228  -0.3163  -0.3101  -0.3061  -0.2687  -0.2558
 -0.2500  -0.2479  -0.2475  -0.2446  -0.2401  -0.2380  -0.2344  -0.2291
 -0.2242  -0.2208  -0.1512

 Beta MOs
 -- Occupied --
-19.0698 -19.0693 -10.2177 -10.2171 -10.1743 -10.1719 -10.1718 -10.1717
-10.1714 -10.1709 -10.1704 -10.1702 -10.1700 -10.1697 -10.1687 -10.1678
-10.1677 -10.1672 -10.1649 -10.1643 -10.1641 -10.1640 -10.1638 -10.1638
-10.1637 -10.1636 -10.1634 -10.1634 -10.1631 -10.1627 -10.1621 -10.1599
-10.1578 -10.1575 -10.1574 -10.1574 -10.1573 -10.1573 -10.1572 -10.1572
-10.1571 -10.1571 -10.1567 -10.1564 -10.1563 -10.1562 -10.1559 -10.1502
 -0.9906  -0.9877  -0.8543  -0.8288  -0.8267  -0.8238  -0.8200  -0.8151
 -0.8093  -0.8034  -0.7998  -0.7729  -0.7647  -0.7567  -0.7494  -0.7464
 -0.7402  -0.7308  -0.7230  -0.7180  -0.6888  -0.6852  -0.6852  -0.6842
 -0.6826  -0.6796  -0.6744  -0.6671  -0.6545  -0.6448  -0.6362  -0.6228
 -0.6097  -0.5990  -0.5934  -0.5870  -0.5814  -0.5766  -0.5482  -0.5199
 -0.5189  -0.5177  -0.5162  -0.5137  -0.5109  -0.5088  -0.5043  -0.4869
 -0.4760  -0.4755  -0.4742  -0.4733  -0.4696  -0.4642  -0.4618  -0.4608
 -0.4442  -0.4429  -0.4420  -0.4387  -0.4346  -0.4314  -0.4299  -0.4277
 -0.4255  -0.4221  -0.4189  -0.4155  -0.4142  -0.4130  -0.4101  -0.4095
 -0.4082  -0.4065  -0.4055  -0.4002  -0.3996  -0.3992  -0.3958  -0.3912
 -0.3899  -0.3883  -0.3863  -0.3811  -0.3774  -0.3721  -0.3705  -0.3698
 -0.3696  -0.3686  -0.3673  -0.3668  -0.3661  -0.3640  -0.3626  -0.3616
 -0.3595  -0.3586  -0.3574  -0.3548  -0.3525  -0.3504  -0.3469  -0.3439
 -0.3379  -0.3352  -0.3342  -0.3330  -0.3325  -0.3314  -0.3296  -0.3259
 -0.3248  -0.3239  -0.3226  -0.3161  -0.3100  -0.3060  -0.2500  -0.2493
 -0.2483  -0.2464  -0.2435  -0.2420  -0.2387  -0.2331  -0.2295  -0.2278
 -0.2234  -0.2204

          Ground-State Mulliken Net Atomic Charges

     Atom                 Charge (a.u.)    Spin (a.u.)
  --------------------------------------------------------
      1 C                     0.144885       0.032225
      2 C                    -0.521347       0.025061
      3 C                    -0.455157       0.027308
      4 C                    -0.172916      -0.001226
      5 C                     0.149577       0.012486
      6 C                     0.031221       0.031259
      7 C                    -0.693962       0.118972
      8 C                     0.704294       0.099009
      9 C                     0.795564       0.089424
     10 C                    -0.818484       0.111463
     11 O                    -0.512504       0.219507
     12 O                    -0.487307       0.216733
     13 H                     0.196592      -0.002130
     14 H                     0.201108      -0.002189
     15 C                    -0.508916      -0.001122
     16 H                     0.181527      -0.002378
     17 H                     0.179273      -0.002344
     18 H                     0.188348       0.006348
     19 H                     0.178431      -0.001788
     20 H                     0.173889       0.004650
     21 C                    -0.026409       0.012964
     22 C                    -0.775408       0.003692
     23 C                     0.943602       0.002618
     24 C                    -0.754369      -0.001045
     25 C                    -0.297952       0.000053
     26 C                    -0.403194       0.000300
     27 C                     0.649388      -0.000136
     28 C                    -0.798811      -0.002632
     29 C                    -0.545248       0.000128
     30 C                    -0.259053      -0.000023
     31 C                    -0.339842       0.000006
     32 C                     0.476762       0.000008
     33 C                    -0.709817      -0.000020
     34 C                    -0.738029       0.000001
     35 C                    -0.404322       0.000001
     36 C                    -0.313228      -0.000001
     37 C                    -0.320450      -0.000000
     38 C                     0.512850       0.000000
     39 C                    -0.729825       0.000000
     40 C                    -0.452017       0.000000
     41 C                    -0.285524      -0.000000
     42 C                    -0.403741      -0.000000
     43 C                     0.540036       0.000000
     44 C                    -0.725581      -0.000000
     45 C                    -0.412708      -0.000000
     46 C                    -0.221634       0.000000
     47 C                    -0.203968      -0.000000
     48 C                     0.457264       0.000000
     49 C                    -0.767982      -0.000000
     50 C                    -0.596705      -0.000000
     51 C                    -0.272195       0.000000
     52 C                     0.005250      -0.000000
     53 C                     0.282161       0.000000
     54 C                    -0.700438      -0.000000
     55 C                    -0.640115      -0.000000
     56 H                     0.210831       0.002951
     57 H                     0.188495      -0.000106
     58 H                     0.234283      -0.000305
     59 H                     0.159723       0.000293
     60 H                     0.138390      -0.000448
     61 H                     0.160316       0.000082
     62 H                     0.141327       0.000251
     63 H                     0.192619      -0.000026
     64 H                     0.111420       0.000265
     65 H                     0.180004       0.000088
     66 H                     0.177814      -0.000197
     67 H                     0.142964      -0.000000
     68 H                     0.186980      -0.000000
     69 H                     0.156662       0.000010
     70 H                     0.133064       0.000001
     71 H                     0.203201      -0.000000
     72 H                     0.131873      -0.000039
     73 H                     0.168395       0.000001
     74 H                     0.175428      -0.000003
     75 H                     0.138237      -0.000002
     76 H                     0.169975       0.000000
     77 H                     0.174575       0.000000
     78 H                     0.145604       0.000000
     79 H                     0.180650       0.000000
     80 H                     0.146790      -0.000000
     81 H                     0.134839      -0.000000
     82 H                     0.201968      -0.000000
     83 H                     0.138043       0.000000
     84 H                     0.169559      -0.000000
     85 H                     0.175014      -0.000000
     86 H                     0.147332       0.000000
     87 H                     0.176744       0.000000
     88 H                     0.141676      -0.000000
     89 H                     0.135025      -0.000000
     90 H                     0.196414       0.000000
     91 H                     0.139187       0.000000
     92 H                     0.169973       0.000000
     93 H                     0.174238       0.000000
     94 H                     0.140914       0.000000
     95 H                     0.185398      -0.000000
     96 H                     0.149181      -0.000000
     97 H                     0.129947      -0.000000
     98 H                     0.216702       0.000000
     99 H                     0.136084      -0.000000
    100 H                     0.171332       0.000000
    101 H                     0.176626       0.000000
    102 H                     0.144273       0.000000
    103 H                     0.170554       0.000000
    104 H                     0.142457       0.000000
    105 H                     0.131888      -0.000000
    106 H                     0.203844       0.000000
    107 H                     0.147476       0.000000
    108 H                     0.153650       0.000000
    109 H                     0.155725       0.000000
    110 H                     0.158306       0.000000
    111 H                     0.158588       0.000000
    112 H                     0.154556       0.000000
  --------------------------------------------------------
  Sum of atomic charges =    -1.000000

                    Cartesian Multipole Moments
 -----------------------------------------------------------------
    Charge (ESU x 10^10)
                -4.8032
    Dipole Moment (Debye)
         X      58.5760      Y      -6.0358      Z      -1.3364
       Tot      58.9013
    Quadrupole Moments (Debye-Ang)
        XX   -1015.4413     XY      69.8890     YY    -311.4527
        XZ      23.5252     YZ     -15.8847     ZZ    -329.4871

 Total job time:  16367.11s(wall), 121078.54s(cpu)
        *  Thank you very much for using Q-Chem.  Have a nice day.  *
