 Q-Chem 5.4, Q-Chem, Inc., Pleasanton, CA (2021)
 Q-Chem 5.4.0 for Intel X86 EM64T Linux

User input:
--------------------------------------------------------------
$molecule
-1 2
C                 -3.2802860000      3.5961180000      0.0854890000
C                 -4.5065600000      2.9561540000      0.0920170000
C                 -4.5474780000      1.5437100000      0.0687320000
C                 -2.0667310000      2.8839230000      0.0563890000
C                 -2.1207910000      1.4569750000      0.0330700000
C                 -3.3747250000      0.8153750000      0.0398470000
C                 -0.8037610000      3.6218430000      0.0509810000
C                  0.4121070000      2.8067370000      0.0199520000
C                  0.3580470000      1.3797890000     -0.0033660000
C                 -0.9049210000      0.6418660000      0.0021970000
C                  1.6660380000      3.4483400000      0.0130270000
C                  2.8387890000      2.7200060000     -0.0160030000
C                  2.7978720000      1.3075620000     -0.0392900000
C                  1.5716000000      0.6675970000     -0.0326190000
O                 -0.7634140000      4.8784560000      0.0716210000
O                 -0.9452710000     -0.6147420000     -0.0187030000
H                 -3.4014950000     -0.2672890000      0.0218720000
H                  1.5131170000     -0.4147870000     -0.0500360000
H                 -3.2218020000      4.6785010000      0.1029120000
H                  1.6928090000      4.5310030000      0.0310110000
O                  4.0179180000      3.4477520000     -0.0209500000
O                 -5.7266090000      0.8159650000      0.0735280000
C                 -6.9482170000      1.5219910000      0.0951480000
C                  5.2395230000      2.7417190000     -0.0424940000
H                 -5.4155630000      3.5440120000      0.1148470000
H                  3.7068750000      0.7197080000     -0.0622360000
H                 -7.7345910000      0.7656680000      0.0916220000
H                 -7.0670090000      2.1646790000     -0.7868080000
H                 -7.0506030000      2.1389250000      0.9973430000
H                  6.0259010000      3.4980400000     -0.0390020000
H                  5.3419320000      2.1247240000     -0.9446440000
H                  5.3582880000      2.0990900000      0.8395080000
$end

$rem
BASIS  =  6-311++G(d,p)
GUI  =  2
JOB_TYPE  =  SP
METHOD  =  B3LYP
SCF_CONVERGENCE  = 8
SOLVENT_METHOD = sm12
$end

$smx
solvent dimethylformamide
charges CM5
$end

--------------------------------------------------------------

             Standard Nuclear Orientation (Angstroms)
    I     Atom           X                Y                Z
 ----------------------------------------------------------------
    1      C      -3.2802860000     3.5961180000     0.0854890000
    2      C      -4.5065600000     2.9561540000     0.0920170000
    3      C      -4.5474780000     1.5437100000     0.0687320000
    4      C      -2.0667310000     2.8839230000     0.0563890000
    5      C      -2.1207910000     1.4569750000     0.0330700000
    6      C      -3.3747250000     0.8153750000     0.0398470000
    7      C      -0.8037610000     3.6218430000     0.0509810000
    8      C       0.4121070000     2.8067370000     0.0199520000
    9      C       0.3580470000     1.3797890000    -0.0033660000
   10      C      -0.9049210000     0.6418660000     0.0021970000
   11      C       1.6660380000     3.4483400000     0.0130270000
   12      C       2.8387890000     2.7200060000    -0.0160030000
   13      C       2.7978720000     1.3075620000    -0.0392900000
   14      C       1.5716000000     0.6675970000    -0.0326190000
   15      O      -0.7634140000     4.8784560000     0.0716210000
   16      O      -0.9452710000    -0.6147420000    -0.0187030000
   17      H      -3.4014950000    -0.2672890000     0.0218720000
   18      H       1.5131170000    -0.4147870000    -0.0500360000
   19      H      -3.2218020000     4.6785010000     0.1029120000
   20      H       1.6928090000     4.5310030000     0.0310110000
   21      O       4.0179180000     3.4477520000    -0.0209500000
   22      O      -5.7266090000     0.8159650000     0.0735280000
   23      C      -6.9482170000     1.5219910000     0.0951480000
   24      C       5.2395230000     2.7417190000    -0.0424940000
   25      H      -5.4155630000     3.5440120000     0.1148470000
   26      H       3.7068750000     0.7197080000    -0.0622360000
   27      H      -7.7345910000     0.7656680000     0.0916220000
   28      H      -7.0670090000     2.1646790000    -0.7868080000
   29      H      -7.0506030000     2.1389250000     0.9973430000
   30      H       6.0259010000     3.4980400000    -0.0390020000
   31      H       5.3419320000     2.1247240000    -0.9446440000
   32      H       5.3582880000     2.0990900000     0.8395080000
 ----------------------------------------------------------------

   16    -918.1183768373      6.81e-09  Convergence criterion met
 Total energy in the final basis set =     -918.2125468752

                    Orbital Energies (a.u.)
 --------------------------------------------------------------

 Alpha MOs
 -- Occupied --
-19.1541 -19.1541 -19.0725 -19.0725 -10.2378 -10.2378 -10.2222 -10.2221
-10.2184 -10.2184 -10.1809 -10.1809 -10.1797 -10.1797 -10.1778 -10.1778
-10.1722 -10.1722 -10.1695 -10.1695  -1.0663  -1.0662  -0.9991  -0.9969
 -0.8641  -0.8559  -0.7894  -0.7637  -0.7626  -0.7469  -0.7035  -0.7013
 -0.6533  -0.6481  -0.6050  -0.6014  -0.5646  -0.5453  -0.5392  -0.5133
 -0.4922  -0.4876  -0.4737  -0.4670  -0.4666  -0.4538  -0.4370  -0.4304
 -0.4256  -0.4228  -0.4185  -0.4143  -0.4027  -0.3981  -0.3820  -0.3773
 -0.3747  -0.3650  -0.3624  -0.3541  -0.3323  -0.3286  -0.3214  -0.3103
 -0.2678  -0.2592  -0.2431  -0.2407  -0.2348  -0.2293  -0.1374

 Beta MOs
 -- Occupied --
-19.1537 -19.1537 -19.0669 -19.0669 -10.2372 -10.2372 -10.2205 -10.2205
-10.2184 -10.2184 -10.1807 -10.1807 -10.1796 -10.1796 -10.1767 -10.1767
-10.1718 -10.1718 -10.1693 -10.1693  -1.0656  -1.0655  -0.9893  -0.9869
 -0.8616  -0.8548  -0.7856  -0.7617  -0.7614  -0.7452  -0.7009  -0.7007
 -0.6476  -0.6467  -0.6030  -0.6006  -0.5624  -0.5443  -0.5376  -0.5118
 -0.4910  -0.4869  -0.4716  -0.4658  -0.4656  -0.4527  -0.4360  -0.4300
 -0.4242  -0.4162  -0.4128  -0.4113  -0.4002  -0.3946  -0.3790  -0.3742
 -0.3632  -0.3557  -0.3550  -0.3524  -0.3320  -0.3277  -0.3184  -0.3004
 -0.2553  -0.2510  -0.2379  -0.2306  -0.2295  -0.2229

          Ground-State Mulliken Net Atomic Charges

     Atom                 Charge (a.u.)    Spin (a.u.)
  --------------------------------------------------------
      1 C                    -0.056111       0.031960
      2 C                     2.245299       0.009883
      3 C                     1.121366       0.032922
      4 C                    -1.383316       0.015259
      5 C                    -1.691726       0.071516
      6 C                    -0.360118       0.038330
      7 C                    -1.698669       0.085631
      8 C                    -1.691732       0.071515
      9 C                    -1.383320       0.015260
     10 C                    -1.698662       0.085630
     11 C                    -0.360108       0.038330
     12 C                     1.121353       0.032922
     13 C                     2.245294       0.009883
     14 C                    -0.056083       0.031959
     15 O                    -0.312003       0.213294
     16 O                    -0.312002       0.213294
     17 H                     0.142304      -0.003213
     18 H                     0.163443      -0.001985
     19 H                     0.163443      -0.001985
     20 H                     0.142303      -0.003213
     21 O                    -0.109876       0.006975
     22 O                    -0.109879       0.006975
     23 C                     0.285283       0.000090
     24 C                     0.285283       0.000090
     25 H                     0.440745      -0.001601
     26 H                     0.440748      -0.001601
     27 H                     0.316089      -0.000014
     28 H                     0.198537       0.000478
     29 H                     0.198743       0.000476
     30 H                     0.316089      -0.000014
     31 H                     0.198750       0.000476
     32 H                     0.198530       0.000478
  --------------------------------------------------------
  Sum of atomic charges =    -1.000000

                    Cartesian Multipole Moments
 -----------------------------------------------------------------
    Charge (ESU x 10^10)
                -4.8032
    Dipole Moment (Debye)
         X       4.1036      Y     -10.2398      Z      -0.1270
       Tot      11.0321
    Quadrupole Moments (Debye-Ang)
        XX     -97.7488     XY      -2.9986     YY    -179.0038
        XZ      -0.3822     YZ      -0.6540     ZZ    -123.2712

 Total job time:  942.33s(wall), 7087.26s(cpu)
        *  Thank you very much for using Q-Chem.  Have a nice day.  *
