 Q-Chem 5.4, Q-Chem, Inc., Pleasanton, CA (2021)
 Q-Chem 5.4.0 for Intel X86 EM64T Linux

User input:
--------------------------------------------------------------
$molecule
0 1
C                 -0.7843740000      2.8426190000     -0.6035500000
C                 -2.1385610000      2.5124030000     -0.6862690000
C                 -2.5949140000      1.2704640000     -0.2612960000
C                  0.1156370000      1.8967890000     -0.0938060000
C                 -0.3438230000      0.6305760000      0.3213610000
C                 -1.7062200000      0.3149300000      0.2310050000
C                  1.5598730000      2.2547450000      0.0360620000
C                  2.5190590000      1.1533810000      0.3406990000
C                  2.0696760000     -0.0270600000      0.7927470000
C                  0.6272090000     -0.3434740000      0.9026100000
O                  1.9297290000      3.4113980000     -0.0402750000
O                  0.2689810000     -1.3686140000      1.4550810000
H                 -3.6505040000      1.0334730000     -0.3231230000
H                  2.7524430000     -0.8036940000      1.1193500000
C                 -2.2850020000     -1.0097910000      0.6595640000
O                 -3.0062860000     -1.1366370000      1.6164350000
O                 -1.9834310000     -1.9792640000     -0.2132720000
C                 -2.4393380000     -3.3040500000      0.1345340000
H                 -2.8395760000      3.2291040000     -1.0989090000
H                 -2.1328640000     -3.9398540000     -0.6924470000
H                 -3.5232170000     -3.3154380000      0.2517920000
H                 -1.9653170000     -3.6224740000      1.0635020000
C                  4.0019090000      1.3924150000      0.2443340000
O                  4.7954540000      0.9984470000      1.0637570000
O                  4.3138100000      2.0382830000     -0.8803270000
C                 -0.3598070000      4.1595420000     -1.2267990000
O                 -0.0874480000      4.2127220000     -2.3958740000
O                 -0.4535830000      5.2826040000     -0.4937260000
C                 -0.5577300000      5.2259530000      0.9402070000
C                  5.7130880000      2.3265820000     -1.0859530000
H                 -0.7025890000      6.2567060000      1.2564800000
H                  0.3671910000      4.8353330000      1.3655620000
H                 -1.4108490000      4.6241260000      1.2592430000
H                  5.7592770000      2.8509760000     -2.0367400000
H                  6.2884860000      1.4009720000     -1.1228040000
H                  6.0863400000      2.9564160000     -0.2780840000
$end
$rem
MAX_SCF_CYCLES=200
BASIS  =  6-311++G(d,p)
GUI  =  2
JOB_TYPE  =  SP
METHOD  =  B3LYP
SOLVENT_METHOD = PCM
$end
$pcm
theory = CPCM
$end
$solvent
dielectric 37.219
opticaldielectric 1.43
$end

--------------------------------------------------------------

             Standard Nuclear Orientation (Angstroms)
    I     Atom           X                Y                Z
 ----------------------------------------------------------------
    1      C      -0.7843740000     2.8426190000    -0.6035500000
    2      C      -2.1385610000     2.5124030000    -0.6862690000
    3      C      -2.5949140000     1.2704640000    -0.2612960000
    4      C       0.1156370000     1.8967890000    -0.0938060000
    5      C      -0.3438230000     0.6305760000     0.3213610000
    6      C      -1.7062200000     0.3149300000     0.2310050000
    7      C       1.5598730000     2.2547450000     0.0360620000
    8      C       2.5190590000     1.1533810000     0.3406990000
    9      C       2.0696760000    -0.0270600000     0.7927470000
   10      C       0.6272090000    -0.3434740000     0.9026100000
   11      O       1.9297290000     3.4113980000    -0.0402750000
   12      O       0.2689810000    -1.3686140000     1.4550810000
   13      H      -3.6505040000     1.0334730000    -0.3231230000
   14      H       2.7524430000    -0.8036940000     1.1193500000
   15      C      -2.2850020000    -1.0097910000     0.6595640000
   16      O      -3.0062860000    -1.1366370000     1.6164350000
   17      O      -1.9834310000    -1.9792640000    -0.2132720000
   18      C      -2.4393380000    -3.3040500000     0.1345340000
   19      H      -2.8395760000     3.2291040000    -1.0989090000
   20      H      -2.1328640000    -3.9398540000    -0.6924470000
   21      H      -3.5232170000    -3.3154380000     0.2517920000
   22      H      -1.9653170000    -3.6224740000     1.0635020000
   23      C       4.0019090000     1.3924150000     0.2443340000
   24      O       4.7954540000     0.9984470000     1.0637570000
   25      O       4.3138100000     2.0382830000    -0.8803270000
   26      C      -0.3598070000     4.1595420000    -1.2267990000
   27      O      -0.0874480000     4.2127220000    -2.3958740000
   28      O      -0.4535830000     5.2826040000    -0.4937260000
   29      C      -0.5577300000     5.2259530000     0.9402070000
   30      C       5.7130880000     2.3265820000    -1.0859530000
   31      H      -0.7025890000     6.2567060000     1.2564800000
   32      H       0.3671910000     4.8353330000     1.3655620000
   33      H      -1.4108490000     4.6241260000     1.2592430000
   34      H       5.7592770000     2.8509760000    -2.0367400000
   35      H       6.2884860000     1.4009720000    -1.1228040000
   36      H       6.0863400000     2.9564160000    -0.2780840000
 ----------------------------------------------------------------

    9   -1219.0820393257      5.01e-06  Convergence criterion met
 Total energy in the final basis set =    -1219.0820393257

                    Orbital Energies (a.u.)
 --------------------------------------------------------------

 Alpha MOs
 -- Occupied --
-19.1918 -19.1863 -19.1859 -19.1564 -19.1548 -19.1405 -19.1371 -19.1362
-10.3342 -10.3341 -10.3301 -10.3080 -10.3034 -10.2411 -10.2353 -10.2346
-10.2339 -10.2330 -10.2315 -10.2285 -10.2284 -10.2258 -10.2179 -10.2171
 -1.1366  -1.1310  -1.1278  -1.0917  -1.0875  -1.0509  -1.0506  -1.0469
 -0.9163  -0.8690  -0.8233  -0.8053  -0.7589  -0.7480  -0.7386  -0.7184
 -0.6895  -0.6719  -0.6481  -0.6048  -0.5927  -0.5785  -0.5660  -0.5587
 -0.5449  -0.5387  -0.5297  -0.5106  -0.5061  -0.5023  -0.4981  -0.4970
 -0.4928  -0.4862  -0.4764  -0.4711  -0.4658  -0.4618  -0.4466  -0.4401
 -0.4380  -0.4357  -0.4202  -0.4167  -0.4154  -0.4100  -0.4012  -0.3972
 -0.3798  -0.3749  -0.3692  -0.3361  -0.3307  -0.3260  -0.3220  -0.3212
 -0.3144  -0.3125  -0.3067  -0.2975  -0.2923  -0.2846

          Ground-State Mulliken Net Atomic Charges

     Atom                 Charge (a.u.)
  ----------------------------------------
      1 C                    -0.036571
      2 C                     0.238797
      3 C                    -0.033967
      4 C                     0.630489
      5 C                     0.591686
      6 C                     0.678592
      7 C                    -0.815567
      8 C                     0.329865
      9 C                    -0.429736
     10 C                    -0.550426
     11 O                    -0.178625
     12 O                    -0.208659
     13 H                     0.254375
     14 H                     0.270901
     15 C                    -0.787192
     16 O                    -0.227711
     17 O                     0.028762
     18 C                    -0.269743
     19 H                     0.274409
     20 H                     0.188519
     21 H                     0.184514
     22 H                     0.198211
     23 C                     0.042513
     24 O                    -0.274777
     25 O                    -0.034164
     26 C                    -0.326089
     27 O                    -0.250785
     28 O                    -0.026536
     29 C                    -0.377686
     30 C                    -0.267075
     31 H                     0.193814
     32 H                     0.220678
     33 H                     0.182024
     34 H                     0.187231
     35 H                     0.193177
     36 H                     0.206754
  ----------------------------------------
  Sum of atomic charges =     0.000000

                    Cartesian Multipole Moments
 -----------------------------------------------------------------
    Charge (ESU x 10^10)
                -0.0000
    Dipole Moment (Debye)
         X      -1.6233      Y      -1.3641      Z       0.0171
       Tot       2.1204
    Quadrupole Moments (Debye-Ang)
        XX    -120.3274     XY      -4.9865     YY    -139.5205
        XZ      -2.7950     YZ      25.8074     ZZ    -154.3288

 Total job time:  109.47s(wall), 647.78s(cpu)
        *  Thank you very much for using Q-Chem.  Have a nice day.  *
