 Gaussian 16, Revision A.03,
 Gaussian 16:  ES64L-G16RevA.03 25-Dec-2016

 ----------------------------------------------------------------------
 #P UB3LYP/6-311++G(d,p) nosym opt freq SCRF=(PCM,Solvent=n,n-DiMethylF
 ormamide)
 ----------------------------------------------------------------------

 -------
 Reduced
 -------
 Symbolic Z-matrix:
 Charge = -2 Multiplicity = 1

 SCF Done:  E(UB3LYP) =  -1043.33534954     A.U. after   17 cycles
 SCF Done:  E(UB3LYP) =  -1043.33842284     A.U. after   14 cycles
 SCF Done:  E(UB3LYP) =  -1043.33882739     A.U. after   14 cycles
 SCF Done:  E(UB3LYP) =  -1043.33882369     A.U. after   13 cycles
 SCF Done:  E(UB3LYP) =  -1043.33885928     A.U. after   13 cycles
 SCF Done:  E(UB3LYP) =  -1043.33887165     A.U. after   12 cycles
 SCF Done:  E(UB3LYP) =  -1043.33887185     A.U. after   10 cycles
 SCF Done:  E(UB3LYP) =  -1043.33887210     A.U. after   10 cycles
 SCF Done:  E(UB3LYP) =  -1043.33887212     A.U. after   11 cycles
 Optimization completed.
    -- Stationary point found.
 Normal termination of Gaussian 16 at Sun Feb 11 04:26:12 2024.

 ----------------------------------------------------------------------
 #P Geom=AllCheck Guess=TCheck SCRF=Check GenChk UB3LYP/6-311++G(d,p) F
 req
 ----------------------------------------------------------------------

 Structure from the checkpoint file:  "288-an.chk"
 -------
 Reduced
 -------
 Charge = -2 Multiplicity = 1

                          Input orientation:
 ---------------------------------------------------------------------
 Center     Atomic      Atomic             Coordinates (Angstroms)
 Number     Number       Type             X           Y           Z
 ---------------------------------------------------------------------
      1          6           0       -1.993401    3.058593    0.528311
      2          6           0       -2.746460    2.398797    1.475490
      3          6           0       -2.325320    1.132412    1.958888
      4          6           0       -0.786220    2.508660    0.006399
      5          6           0       -0.352602    1.213069    0.500497
      6          6           0       -1.158183    0.572515    1.473759
      7          6           0       -0.018300    3.199832   -0.972682
      8          6           0        1.154965    2.551720   -1.399137
      9          6           0        1.615223    1.300555   -0.948154
     10          6           0        0.869900    0.581036    0.027535
     11          8           0       -0.308535    4.384033   -1.507315
     12          8           0        1.251342   -0.584379    0.476807
     13          1           0       -2.309742    4.027383    0.155248
     14          1           0       -3.661538    2.846047    1.853158
     15          1           0       -2.916216    0.610126    2.705125
     16          1           0       -0.825292   -0.393570    1.838330
     17          6           0        2.906445    0.726903   -1.482207
     18          8           0        1.864548    3.268212   -2.351827
     19          1           0        3.074149    1.074833   -2.507621
     20          1           0        2.816134   -0.364205   -1.515935
     21          1           0        1.279252    4.059670   -2.437075
     22          6           0        4.145183    1.084642   -0.635924
     23          6           0        5.451011    0.485359   -1.170306
     24          6           0        6.681350    0.840737   -0.327188
     25          1           0        3.979728    0.740315    0.391599
     26          1           0        4.241628    2.176430   -0.585893
     27          1           0        5.610428    0.825937   -2.202387
     28          1           0        5.352833   -0.607311   -1.222364
     29          1           0        6.522892    0.496654    0.703343
     30          1           0        6.776895    1.933192   -0.271883
     31          6           0        7.991632    0.248268   -0.858883
     32          6           0        9.215613    0.602418   -0.006280
     33          6           0       10.528554    0.013005   -0.534336
     34          6           0       11.748983    0.366355    0.323634
     35          6           0       13.063580   -0.220362   -0.202654
     36          6           0       14.282837    0.131309    0.657580
     37          6           0       15.591964   -0.457990    0.123638
     38          1           0        8.154668    0.596325   -1.887358
     39          1           0        7.896633   -0.843985   -0.917743
     40          1           0        9.051661    0.253436    1.021676
     41          1           0        9.309317    1.694667    0.053968
     42          1           0       10.695072    0.364117   -1.561141
     43          1           0       10.435039   -1.079114   -0.596498
     44          1           0       11.582284    0.014152    1.350036
     45          1           0       11.841391    1.458505    0.387110
     46          1           0       13.232950    0.133153   -1.228308
     47          1           0       12.972281   -1.312642   -0.267637
     48          1           0       14.114690   -0.222978    1.682008
     49          1           0       14.374312    1.222445    0.723347
     50          1           0       15.543094   -1.550805    0.078181
     51          1           0       16.440331   -0.189376    0.759743
     52          1           0       15.805320   -0.094108   -0.886692
 ---------------------------------------------------------------------

 SCF Done:  E(UB3LYP) =  -1043.33887212     A.U. after    1 cycles

 Alpha  occ. eigenvalues --  -19.10809 -19.02205 -19.01302 -10.17485 -10.16973
 Alpha  occ. eigenvalues --  -10.15975 -10.15841 -10.15716 -10.15682 -10.15645
 Alpha  occ. eigenvalues --  -10.15580 -10.15499 -10.15363 -10.15347 -10.15060
 Alpha  occ. eigenvalues --  -10.14731 -10.14525 -10.14385 -10.14378 -10.14282
 Alpha  occ. eigenvalues --  -10.13959 -10.13732 -10.13297 -10.12370  -1.01877
 Alpha  occ. eigenvalues --   -0.92285  -0.91434  -0.82162  -0.80878  -0.79486
 Alpha  occ. eigenvalues --   -0.77819  -0.76273  -0.74120  -0.72001  -0.71576
 Alpha  occ. eigenvalues --   -0.68954  -0.66102  -0.63751  -0.61791  -0.59034
 Alpha  occ. eigenvalues --   -0.57891  -0.57373  -0.56909  -0.56549  -0.55288
 Alpha  occ. eigenvalues --   -0.53238  -0.49970  -0.48189  -0.46965  -0.46748
 Alpha  occ. eigenvalues --   -0.45028  -0.44108  -0.43114  -0.42747  -0.42264
 Alpha  occ. eigenvalues --   -0.41924  -0.41470  -0.40350  -0.39877  -0.39669
 Alpha  occ. eigenvalues --   -0.38946  -0.38385  -0.37134  -0.36782  -0.36512
 Alpha  occ. eigenvalues --   -0.35928  -0.35136  -0.34783  -0.34610  -0.34356
 Alpha  occ. eigenvalues --   -0.33601  -0.33277  -0.32956  -0.32317  -0.32160
 Alpha  occ. eigenvalues --   -0.31780  -0.31697  -0.31588  -0.31258  -0.30636
 Alpha  occ. eigenvalues --   -0.30448  -0.29695  -0.29094  -0.28717  -0.22697
 Alpha  occ. eigenvalues --   -0.21970  -0.20997  -0.19251  -0.18874  -0.11108
 Alpha virt. eigenvalues --   -0.00404  -0.00235   0.00045   0.00619   0.00867
 Alpha virt. eigenvalues --    0.01050   0.01383   0.01663   0.01967   0.02036
 Alpha virt. eigenvalues --    0.02478   0.02580   0.03465   0.03594   0.03920

  Beta  occ. eigenvalues --  -19.10809 -19.02205 -19.01302 -10.17485 -10.16973
  Beta  occ. eigenvalues --  -10.15975 -10.15841 -10.15716 -10.15682 -10.15645
  Beta  occ. eigenvalues --  -10.15580 -10.15499 -10.15363 -10.15347 -10.15060
  Beta  occ. eigenvalues --  -10.14731 -10.14525 -10.14385 -10.14378 -10.14282
  Beta  occ. eigenvalues --  -10.13959 -10.13732 -10.13297 -10.12370  -1.01877
  Beta  occ. eigenvalues --   -0.92285  -0.91434  -0.82162  -0.80878  -0.79486
  Beta  occ. eigenvalues --   -0.77819  -0.76273  -0.74120  -0.72001  -0.71576
  Beta  occ. eigenvalues --   -0.68954  -0.66102  -0.63751  -0.61791  -0.59034
  Beta  occ. eigenvalues --   -0.57891  -0.57373  -0.56909  -0.56549  -0.55288
  Beta  occ. eigenvalues --   -0.53238  -0.49970  -0.48189  -0.46965  -0.46748
  Beta  occ. eigenvalues --   -0.45028  -0.44108  -0.43114  -0.42747  -0.42264
  Beta  occ. eigenvalues --   -0.41924  -0.41470  -0.40350  -0.39877  -0.39669
  Beta  occ. eigenvalues --   -0.38946  -0.38385  -0.37134  -0.36782  -0.36512
  Beta  occ. eigenvalues --   -0.35928  -0.35136  -0.34783  -0.34610  -0.34356
  Beta  occ. eigenvalues --   -0.33601  -0.33277  -0.32956  -0.32317  -0.32160
  Beta  occ. eigenvalues --   -0.31780  -0.31697  -0.31588  -0.31258  -0.30636
  Beta  occ. eigenvalues --   -0.30448  -0.29695  -0.29094  -0.28717  -0.22697
  Beta  occ. eigenvalues --   -0.21970  -0.20997  -0.19251  -0.18874  -0.11108
  Beta virt. eigenvalues --   -0.00404  -0.00235   0.00045   0.00619   0.00867
  Beta virt. eigenvalues --    0.01050   0.01383   0.01663   0.01967   0.02036
  Beta virt. eigenvalues --    0.02478   0.02580   0.03465   0.03594   0.03920

 Mulliken charges and spin densities:
               1          2
     1  C   -0.128723  -0.000000
     2  C   -0.367177  -0.000000
     3  C   -0.481478  -0.000000
     4  C    0.553919  -0.000000
     5  C   -0.096555   0.000000
     6  C   -0.031551  -0.000000
     7  C   -1.018835   0.000000
     8  C   -0.707095  -0.000000
     9  C    2.042811   0.000000
    10  C   -0.729376  -0.000000
    11  O   -0.755905  -0.000000
    12  O   -0.676918   0.000000
    13  H    0.144699   0.000000
    14  H    0.155448  -0.000000
    15  H    0.150014   0.000000
    16  H    0.145709   0.000000
    17  C   -0.320828   0.000000
    18  O   -0.337714   0.000000
    19  H    0.199828   0.000000
    20  H    0.179883  -0.000000
    21  H    0.273822  -0.000000
    22  C   -0.883514   0.000000
    23  C   -0.355374  -0.000000
    24  C    0.001930   0.000000
    25  H    0.174604   0.000000
    26  H    0.155291  -0.000000
    27  H    0.108193   0.000000
    28  H    0.109159   0.000000
    29  H    0.121474  -0.000000
    30  H    0.123041  -0.000000
    31  C    0.028148  -0.000000
    32  C    0.071261  -0.000000
    33  C   -0.043907  -0.000000
    34  C   -0.301596   0.000000
    35  C   -0.493080   0.000000
    36  C   -0.286292   0.000000
    37  C   -0.689983   0.000000
    38  H    0.131172   0.000000
    39  H    0.131866   0.000000
    40  H    0.128463  -0.000000
    41  H    0.128805  -0.000000
    42  H    0.128311  -0.000000
    43  H    0.128072  -0.000000
    44  H    0.126697  -0.000000
    45  H    0.126458  -0.000000
    46  H    0.123807  -0.000000
    47  H    0.123633   0.000000
    48  H    0.131012  -0.000000
    49  H    0.130850   0.000000
    50  H    0.139831  -0.000000
    51  H    0.147856  -0.000000
    52  H    0.139834  -0.000000
 Sum of Mulliken charges =  -2.00000   0.00000

 Dipole moment (field-independent basis, Debye):
    X=             -3.7863    Y=            -18.0103    Z=              4.1782  Tot=             18.8723
 Quadrupole moment (field-independent basis, Debye-Ang):
   XX=           -181.8175   YY=           -235.9011   ZZ=           -175.5887
   XY=              6.1839   XZ=              4.3627   YZ=             23.7058

  Exact polarizability: 477.688 -38.462 400.559 -87.386 -45.711 377.478
 Approx polarizability: 484.519 -35.990 453.417-103.079 -62.189 422.306

                      1                      2                      3
                      A                      A                      A
 Frequencies --     16.0532                21.3649                28.0619
 Red. masses --      5.3267                 4.7455                 2.4020
 Frc consts  --      0.0008                 0.0013                 0.0011
 IR Inten    --      0.1714                 0.3685                 1.4210

                      4                      5                      6
                      A                      A                      A
 Frequencies --     32.9012                45.6887                63.8615
 Red. masses --      2.2282                 4.7609                 2.9878
 Frc consts  --      0.0014                 0.0059                 0.0072
 IR Inten    --      1.2419                 3.7876                 1.4142

                      7                      8                      9
                      A                      A                      A
 Frequencies --     77.4436                92.2045               108.0514
 Red. masses --      1.6555                 4.6535                 2.7245
 Frc consts  --      0.0058                 0.0233                 0.0187
 IR Inten    --      0.4187                11.8890                 0.9427

                     10                     11                     12
                      A                      A                      A
 Frequencies --    112.9264               116.5154               123.5862
 Red. masses --      4.6118                 4.8565                 1.8269
 Frc consts  --      0.0347                 0.0388                 0.0164
 IR Inten    --      7.0538                 3.0724                 0.3077

                     13                     14                     15
                      A                      A                      A
 Frequencies --    147.4356               154.3873               162.1416
 Red. masses --      2.0330                 4.5907                 2.0025
 Frc consts  --      0.0260                 0.0645                 0.0310
 IR Inten    --      0.1486                 0.7799                 0.2393

                     16                     17                     18
                      A                      A                      A
 Frequencies --    172.1533               178.7295               188.9100
 Red. masses --      2.0936                 4.2070                 6.7213
 Frc consts  --      0.0366                 0.0792                 0.1413
 IR Inten    --      0.1415                 1.6455                 3.7907

                     19                     20                     21
                      A                      A                      A
 Frequencies --    240.9568               244.4741               254.5392
 Red. masses --      4.4414                 1.1207                 4.8624
 Frc consts  --      0.1519                 0.0395                 0.1856
 IR Inten    --      0.5399                 0.0004                15.4031

                     22                     23                     24
                      A                      A                      A
 Frequencies --    278.0012               300.6202               318.4073
 Red. masses --      3.6597                 2.7236                 4.9573
 Frc consts  --      0.1666                 0.1450                 0.2961
 IR Inten    --      4.5858                 3.2028                17.3054

                     25                     26                     27
                      A                      A                      A
 Frequencies --    330.6520               365.3760               371.6079
 Red. masses --      5.3837                 7.3291                 5.6361
 Frc consts  --      0.3468                 0.5765                 0.4586
 IR Inten    --     16.5171                 5.9107                 0.8293

                     28                     29                     30
                      A                      A                      A
 Frequencies --    396.6153               415.5694               439.5111
 Red. masses --      3.5828                 4.6687                 8.5813
 Frc consts  --      0.3321                 0.4750                 0.9767
 IR Inten    --      0.9547                 4.2601                 6.3458

                     31                     32                     33
                      A                      A                      A
 Frequencies --    456.2849               482.4725               490.9100
 Red. masses --      3.6639                 3.7683                 3.6245
 Frc consts  --      0.4494                 0.5168                 0.5146
 IR Inten    --      7.2242                 4.4137                 1.8735

                     34                     35                     36
                      A                      A                      A
 Frequencies --    505.5187               531.5799               563.8423
 Red. masses --      3.7749                 5.7799                 5.0567
 Frc consts  --      0.5684                 0.9623                 0.9472
 IR Inten    --      1.9023                 1.6129                 5.4779

                     37                     38                     39
                      A                      A                      A
 Frequencies --    634.4342               667.7699               687.7682
 Red. masses --      6.0040                 5.4489                 3.0112
 Frc consts  --      1.4239                 1.4316                 0.8392
 IR Inten    --     64.8604                 7.2418                 2.9480

                     40                     41                     42
                      A                      A                      A
 Frequencies --    695.1672               706.3228               727.5994
 Red. masses --      3.0919                 2.9170                 1.1329
 Frc consts  --      0.8803                 0.8574                 0.3534
 IR Inten    --     86.9960                 8.8831                15.7282

                     43                     44                     45
                      A                      A                      A
 Frequencies --    728.8900               729.1663               733.1031
 Red. masses --      1.1337                 1.2873                 1.1385
 Frc consts  --      0.3549                 0.4032                 0.3605
 IR Inten    --     51.8156               119.2301                 2.1667

                     46                     47                     48
                      A                      A                      A
 Frequencies --    745.9188               755.9013               772.0369
 Red. masses --      1.1884                 2.1048                 1.2545
 Frc consts  --      0.3896                 0.7086                 0.4405
 IR Inten    --      1.0010                29.6119                 0.4712

                     49                     50                     51
                      A                      A                      A
 Frequencies --    779.0005               811.6961               844.2480
 Red. masses --      3.5088                 1.3453                 1.4796
 Frc consts  --      1.2546                 0.5222                 0.6213
 IR Inten    --      7.3500                12.8133                 0.6976

                     52                     53                     54
                      A                      A                      A
 Frequencies --    854.6116               891.3111               893.8140
 Red. masses --      1.6915                 1.7159                 1.9649
 Frc consts  --      0.7279                 0.8031                 0.9249
 IR Inten    --     35.1386                48.6271                 2.3802

                     55                     56                     57
                      A                      A                      A
 Frequencies --    927.3465               940.8484               967.3479
 Red. masses --      4.6902                 1.4693                 1.3550
 Frc consts  --      2.3764                 0.7663                 0.7470
 IR Inten    --     66.5213                 6.6212                 4.4208

                     58                     59                     60
                      A                      A                      A
 Frequencies --    974.1922               979.0539               986.7618
 Red. masses --      1.2318                 4.8803                 3.5668
 Frc consts  --      0.6888                 2.7562                 2.0463
 IR Inten    --      0.0180                10.1867                29.8841

                     61                     62                     63
                      A                      A                      A
 Frequencies --    994.9343              1017.1501              1021.1693
 Red. masses --      1.5075                 2.9268                 2.8066
 Frc consts  --      0.8792                 1.7841                 1.7244
 IR Inten    --      0.4304               156.0496                16.5230

                     64                     65                     66
                      A                      A                      A
 Frequencies --   1023.5707              1030.8974              1045.9349
 Red. masses --      2.7909                 2.7281                 2.7272
 Frc consts  --      1.7228                 1.7082                 1.7578
 IR Inten    --     20.6707               226.8549                 0.7112

                     67                     68                     69
                      A                      A                      A
 Frequencies --   1051.5257              1059.4587              1064.3273
 Red. masses --      1.2667                 2.4502                 2.1898
 Frc consts  --      0.8252                 1.6204                 1.4615
 IR Inten    --    119.2481                 1.7468                 0.2748

                     70                     71                     72
                      A                      A                      A
 Frequencies --   1064.9423              1085.7936              1095.8028
 Red. masses --      2.2712                 3.0099                 2.4667
 Frc consts  --      1.5176                 2.0907                 1.7452
 IR Inten    --      0.0201                 7.7918                95.8144

                     73                     74                     75
                      A                      A                      A
 Frequencies --   1113.0204              1128.2159              1137.6426
 Red. masses --      1.8005                 1.6699                 2.8541
 Frc consts  --      1.3142                 1.2523                 2.1763
 IR Inten    --    169.1696                17.4251                 3.4658

                     76                     77                     78
                      A                      A                      A
 Frequencies --   1159.5937              1181.5612              1201.3586
 Red. masses --      2.1186                 1.7478                 1.8435
 Frc consts  --      1.6785                 1.4377                 1.5676
 IR Inten    --     46.3814               108.1095                 1.9159

                     79                     80                     81
                      A                      A                      A
 Frequencies --   1222.2173              1228.4750              1236.1414
 Red. masses --      1.2443                 1.8704                 2.0368
 Frc consts  --      1.0951                 1.6631                 1.8337
 IR Inten    --      0.4285                54.2778               198.3022

                     82                     83                     84
                      A                      A                      A
 Frequencies --   1255.2177              1265.0586              1280.6826
 Red. masses --      1.2968                 1.4474                 1.9042
 Frc consts  --      1.2038                 1.3647                 1.8401
 IR Inten    --      3.0085                28.4802                86.1634

                     85                     86                     87
                      A                      A                      A
 Frequencies --   1289.6379              1296.2480              1314.2627
 Red. masses --      1.3847                 1.3933                 1.2998
 Frc consts  --      1.3569                 1.3794                 1.3228
 IR Inten    --      6.4931                93.5413                76.3179

                     88                     89                     90
                      A                      A                      A
 Frequencies --   1315.6285              1319.7019              1322.4712
 Red. masses --      5.0885                 1.1654                 1.1447
 Frc consts  --      5.1893                 1.1958                 1.1795
 IR Inten    --    569.3946                 4.8797                 2.6241

                     91                     92                     93
                      A                      A                      A
 Frequencies --   1325.9815              1328.0848              1332.8740
 Red. masses --      1.0569                 1.1783                 1.0937
 Frc consts  --      1.0948                 1.2245                 1.1448
 IR Inten    --      0.5010                27.5949                 1.6445

                     94                     95                     96
                      A                      A                      A
 Frequencies --   1334.0501              1341.9253              1349.7772
 Red. masses --      1.1183                 1.4673                 1.5533
 Frc consts  --      1.1727                 1.5568                 1.6674
 IR Inten    --     12.2701               112.9936                21.6006

                     97                     98                     99
                      A                      A                      A
 Frequencies --   1364.7188              1378.2121              1382.1303
 Red. masses --      1.5923                 1.5996                 4.1557
 Frc consts  --      1.7473                 1.7901                 4.6772
 IR Inten    --     80.8886               116.9772              1274.8485

                    100                    101                    102
                      A                      A                      A
 Frequencies --   1390.2293              1395.2538              1395.7624
 Red. masses --      1.5788                 1.6082                 1.6278
 Frc consts  --      1.7978                 1.8446                 1.8685
 IR Inten    --      7.7899                 1.3246                 0.5836

                    103                    104                    105
                      A                      A                      A
 Frequencies --   1403.6422              1421.0942              1435.4865
 Red. masses --      1.2631                 4.7867                 2.5188
 Frc consts  --      1.4663                 5.6955                 3.0580
 IR Inten    --      2.4546                91.2937               122.7167

                    106                    107                    108
                      A                      A                      A
 Frequencies --   1457.8160              1462.1545              1470.3203
 Red. masses --      1.1418                 2.6443                 1.0730
 Frc consts  --      1.4297                 3.3308                 1.3668
 IR Inten    --      2.7061                64.0300                 0.3819

                    109                    110                    111
                      A                      A                      A
 Frequencies --   1470.6600              1472.3624              1476.2520
 Red. masses --      1.0702                 1.0733                 1.0765
 Frc consts  --      1.3637                 1.3709                 1.3822
 IR Inten    --      0.1866                 0.2590                 1.0587

                    112                    113                    114
                      A                      A                      A
 Frequencies --   1481.7232              1487.7581              1487.8656
 Red. masses --      1.0803                 1.0799                 1.0460
 Frc consts  --      1.3974                 1.4083                 1.3642
 IR Inten    --      0.3521                 2.5388                 9.7405

                    115                    116                    117
                      A                      A                      A
 Frequencies --   1493.9919              1499.8953              1504.7391
 Red. masses --      1.0921                 1.0961                 1.0981
 Frc consts  --      1.4361                 1.4528                 1.4649
 IR Inten    --      0.3112                 4.3869                 0.1184

                    118                    119                    120
                      A                      A                      A
 Frequencies --   1508.0359              1517.2461              1545.0970
 Red. masses --      1.0990                 4.2501                 5.2400
 Frc consts  --      1.4725                 5.7645                 7.3705
 IR Inten    --     29.0183                 6.1255               293.0544

                    121                    122                    123
                      A                      A                      A
 Frequencies --   1595.9760              1613.4271              2984.0031
 Red. masses --      5.2138                 5.8248                 1.0574
 Frc consts  --      7.8245                 8.9336                 5.5472
 IR Inten    --    143.6675                12.7288                18.1806

                    124                    125                    126
                      A                      A                      A
 Frequencies --   2986.9730              2987.5159              2989.6469
 Red. masses --      1.0573                 1.0570                 1.0584
 Frc consts  --      5.5581                 5.5584                 5.5736
 IR Inten    --      0.1424                 0.2312                15.6831

                    127                    128                    129
                      A                      A                      A
 Frequencies --   2990.5757              2993.9297              2998.1925
 Red. masses --      1.0576                 1.0592                 1.0595
 Frc consts  --      5.5731                 5.5937                 5.6116
 IR Inten    --      7.6895                 5.3451               202.9469

                    130                    131                    132
                      A                      A                      A
 Frequencies --   2999.7924              3001.8039              3002.6989
 Red. masses --      1.0785                 1.0817                 1.0596
 Frc consts  --      5.7182                 5.7426                 5.6286
 IR Inten    --     55.9061                21.9065               236.8075

                    133                    134                    135
                      A                      A                      A
 Frequencies --   3003.3526              3006.5094              3010.4920
 Red. masses --      1.0957                 1.0977                 1.0678
 Frc consts  --      5.8230                 5.8458                 5.7018
 IR Inten    --      3.5038                 6.4134               173.3542

                    136                    137                    138
                      A                      A                      A
 Frequencies --   3012.9268              3013.2425              3021.1128
 Red. masses --      1.0356                 1.0958                 1.1027
 Frc consts  --      5.5386                 5.8622                 5.9299
 IR Inten    --     59.6683                33.0494                 8.3712

                    139                    140                    141
                      A                      A                      A
 Frequencies --   3029.2339              3034.7841              3039.4414
 Red. masses --      1.1033                 1.1030                 1.1052
 Frc consts  --      5.9648                 5.9855                 6.0157
 IR Inten    --      9.1880                16.2746                 9.4151

                    142                    143                    144
                      A                      A                      A
 Frequencies --   3044.1949              3056.3792              3071.6249
 Red. masses --      1.1055                 1.1047                 1.1026
 Frc consts  --      6.0362                 6.0800                 6.1293
 IR Inten    --    455.9353               157.8210               117.8536

                    145                    146                    147
                      A                      A                      A
 Frequencies --   3076.3080              3134.4137              3149.4254
 Red. masses --      1.1011                 1.0841                 1.0878
 Frc consts  --      6.1397                 6.2752                 6.3569
 IR Inten    --     73.0770                12.8225                23.1539

                    148                    149                    150
                      A                      A                      A
 Frequencies --   3161.6869              3171.4846              3374.1047
 Red. masses --      1.0930                 1.0932                 1.0640
 Frc consts  --      6.4373                 6.4788                 7.1367
 IR Inten    --     69.2844                67.6501               270.7667

 - Thermochemistry -
 -------------------
 Temperature   298.150 Kelvin.  Pressure   1.00000 Atm.
 Atom     1 has atomic number  6 and mass  12.00000

 Molecular mass:   328.20384 amu.
 Principal axes and moments of inertia in atomic units:
                           1         2         3
     Eigenvalues --  2711.02691********************
           X            0.98766  -0.10222   0.11864
           Y           -0.15621  -0.69670   0.70015
           Z           -0.01109   0.71004   0.70407
 This molecule is an asymmetric top.
 Rotational symmetry number  1.
 Warning -- assumption of classical behavior for rotation
           may cause significant error
 Rotational temperatures (Kelvin)      0.03195     0.00227     0.00219
 Rotational constants (GHZ):           0.66570     0.04721     0.04561
 Zero-point vibrational energy    1163707.5 (Joules/Mol)
                                  278.13277 (Kcal/Mol)
 Warning -- explicit consideration of  36 degrees of freedom as
           vibrations may cause significant error
 Vibrational temperatures:     23.10    30.74    40.37    47.34    65.74
          (Kelvin)             91.88   111.42   132.66   155.46   162.48
                              167.64   177.81   212.13   222.13   233.29
                              247.69   257.15   271.80   346.68   351.74
                              366.23   399.98   432.53   458.12   475.73
                              525.69   534.66   570.64   597.91   632.36
                              656.49   694.17   706.31   727.33   764.82
                              811.24   912.81   960.77   989.55  1000.19
                             1016.24  1046.85  1048.71  1049.11  1054.77
                             1073.21  1087.57  1110.79  1120.81  1167.85
                             1214.68  1229.60  1282.40  1286.00  1334.24
                             1353.67  1391.80  1401.65  1408.64  1419.73
                             1431.49  1463.45  1469.23  1472.69  1483.23
                             1504.87  1512.91  1524.32  1531.33  1532.21
                             1562.21  1576.62  1601.39  1623.25  1636.81
                             1668.40  1700.00  1728.49  1758.50  1767.50
                             1778.53  1805.98  1820.14  1842.62  1855.50
                             1865.01  1890.93  1892.90  1898.76  1902.74
                             1907.79  1910.82  1917.71  1919.40  1930.73
                             1942.03  1963.53  1982.94  1988.58  2000.23
                             2007.46  2008.19  2019.53  2044.64  2065.34
                             2097.47  2103.71  2115.46  2115.95  2118.40
                             2124.00  2131.87  2140.55  2140.71  2149.52
                             2158.01  2164.98  2169.73  2182.98  2223.05
                             2296.25  2321.36  4293.31  4297.59  4298.37
                             4301.44  4302.77  4307.60  4313.73  4316.03
                             4318.93  4320.21  4321.15  4325.70  4331.43
                             4334.93  4335.38  4346.71  4358.39  4366.38
                             4373.08  4379.92  4397.45  4419.38  4426.12
                             4509.72  4531.32  4548.96  4563.06  4854.58

 Zero-point correction=                           0.443233 (Hartree/Particle)
 Thermal correction to Energy=                    0.468123
 Thermal correction to Enthalpy=                  0.469068
 Thermal correction to Gibbs Free Energy=         0.385225
 Sum of electronic and zero-point Energies=          -1042.895639
 Sum of electronic and thermal Energies=             -1042.870749
 Sum of electronic and thermal Enthalpies=           -1042.869804
 Sum of electronic and thermal Free Energies=        -1042.953647

                     E (Thermal)             CV                S
                      KCal/Mol        Cal/Mol-Kelvin    Cal/Mol-Kelvin
 Total                  293.752             93.532            176.462
 Electronic               0.000              0.000              0.000
 Translational            0.889              2.981             43.261
 Rotational               0.889              2.981             36.659
 Vibrational            291.974             87.570             96.542
 Vibration     1          0.593              1.986              7.071
 Vibration     2          0.593              1.985              6.503
 Vibration     3          0.593              1.984              5.962
 Vibration     4          0.594              1.983              5.646
 Vibration     5          0.595              1.979              4.996
 Vibration     6          0.597              1.972              4.334
 Vibration     7          0.599              1.964              3.955
 Vibration     8          0.602              1.955              3.613
 Vibration     9          0.606              1.943              3.304
 Vibration    10          0.607              1.939              3.218
 Vibration    11          0.608              1.936              3.157
 Vibration    12          0.610              1.929              3.044
 Vibration    13          0.617              1.905              2.705
 Vibration    14          0.620              1.898              2.617
 Vibration    15          0.622              1.889              2.525
 Vibration    16          0.626              1.877              2.412
 Vibration    17          0.629              1.868              2.342
 Vibration    18          0.633              1.855              2.238
 Vibration    19          0.658              1.778              1.796
 Vibration    20          0.660              1.772              1.770
 Vibration    21          0.665              1.755              1.699
 Vibration    22          0.679              1.714              1.546
 Vibration    23          0.693              1.673              1.413
 Vibration    24          0.705              1.638              1.318
 Vibration    25          0.713              1.614              1.257
 Vibration    26          0.739              1.544              1.099
 Vibration    27          0.743              1.530              1.073
 Vibration    28          0.763              1.477              0.975
 Vibration    29          0.779              1.436              0.907
 Vibration    30          0.800              1.384              0.828
 Vibration    31          0.815              1.347              0.777
 Vibration    32          0.839              1.289              0.703
 Vibration    33          0.847              1.270              0.681
 Vibration    34          0.861              1.238              0.644
 Vibration    35          0.887              1.180              0.584
 Vibration    36          0.920              1.109              0.516

                           ! Non-Optimized Parameters !
 Normal termination of Gaussian 16 at Sun Feb 11 06:36:18 2024.
