 Gaussian 16, Revision A.03,
 Gaussian 16:  ES64L-G16RevA.03 25-Dec-2016

 ----------------------------------------------------------------------
 #P UB3LYP/6-311++G(d,p) nosym opt freq SCRF=(PCM,Solvent=n,n-DiMethylF
 ormamide)
 ----------------------------------------------------------------------

 --------
 Oxidized
 --------
 Symbolic Z-matrix:
 Charge =  0 Multiplicity = 1

 SCF Done:  E(UB3LYP) =  -712.233215370     A.U. after   16 cycles
 SCF Done:  E(UB3LYP) =  -712.233487472     A.U. after   12 cycles
 SCF Done:  E(UB3LYP) =  -712.233543715     A.U. after   12 cycles
 SCF Done:  E(UB3LYP) =  -712.233529382     A.U. after   12 cycles
 SCF Done:  E(UB3LYP) =  -712.233532090     A.U. after   11 cycles
 SCF Done:  E(UB3LYP) =  -712.233553152     A.U. after   12 cycles
 SCF Done:  E(UB3LYP) =  -712.233555680     A.U. after   12 cycles
 SCF Done:  E(UB3LYP) =  -712.233556439     A.U. after    9 cycles
 SCF Done:  E(UB3LYP) =  -712.233556976     A.U. after   10 cycles
 SCF Done:  E(UB3LYP) =  -712.233557050     A.U. after    9 cycles
 SCF Done:  E(UB3LYP) =  -712.233557118     A.U. after    8 cycles
 SCF Done:  E(UB3LYP) =  -712.233557136     A.U. after    8 cycles
 Optimization completed.
    -- Stationary point found.
 Normal termination of Gaussian 16 at Sat Feb 10 11:55:13 2024.

 ----------------------------------------------------------------------
 #P Geom=AllCheck Guess=TCheck SCRF=Check GenChk UB3LYP/6-311++G(d,p) F
 req
 ----------------------------------------------------------------------

 Structure from the checkpoint file:  "104.chk"
 --------
 Oxidized
 --------
 Charge =  0 Multiplicity = 1

                          Input orientation:
 ---------------------------------------------------------------------
 Center     Atomic      Atomic             Coordinates (Angstroms)
 Number     Number       Type             X           Y           Z
 ---------------------------------------------------------------------
      1          6           0       -2.265420   -2.221903    5.019075
      2          6           0       -1.282587   -3.230065    4.522258
      3          6           0       -1.246218   -3.435192    3.192682
      4          6           0       -2.111580   -2.734223    2.200876
      5          6           0       -3.053956   -1.764253    2.672355
      6          6           0       -3.145408   -1.486684    4.011870
      7          8           0       -2.403915   -1.951815    6.201413
      8          8           0       -1.978589   -3.025010    1.000891
      9          7           0       -3.957013   -0.588276    4.586261
     10          6           0       -4.935665    0.260173    3.899496
     11          6           0       -6.243599   -0.499537    3.635055
     12          6           0       -5.160696    1.525891    4.727328
     13          1           0       -3.678059   -1.272828    1.937670
     14          1           0       -3.905042   -0.545379    5.597923
     15          1           0       -4.492321    0.546861    2.940929
     16          1           0       -6.931360    0.127686    3.062289
     17          1           0       -6.726764   -0.768921    4.578402
     18          1           0       -6.063562   -1.414439    3.066604
     19          1           0       -5.872982    2.180757    4.221664
     20          1           0       -4.227158    2.075394    4.867772
     21          1           0       -5.571138    1.279156    5.711693
     22          6           0       -0.383161   -3.968097    5.522585
     23          6           0       -1.252903   -4.777441    6.516357
     24          6           0        0.555850   -4.954403    4.803279
     25          6           0        0.494695   -2.950664    6.292789
     26          1           0       -0.564467   -4.147763    2.746497
     27          1           0       -1.901629   -4.131645    7.106698
     28          1           0       -0.602179   -5.328699    7.201161
     29          1           0       -1.874036   -5.504362    5.985033
     30          1           0        1.179265   -5.457573    5.546239
     31          1           0        1.222493   -4.446768    4.100830
     32          1           0        0.002280   -5.724844    4.259683
     33          1           0       -0.107401   -2.255706    6.876726
     34          1           0        1.119291   -2.376492    5.602316
     35          1           0        1.157409   -3.488566    6.976682
 ---------------------------------------------------------------------

 SCF Done:  E(UB3LYP) =  -712.233557136     A.U. after    2 cycles

 Alpha  occ. eigenvalues --  -19.14737 -19.11330 -14.35610 -10.29453 -10.26422
 Alpha  occ. eigenvalues --  -10.25041 -10.22622 -10.21190 -10.20308 -10.20091
 Alpha  occ. eigenvalues --  -10.17403 -10.16952 -10.16676 -10.16201 -10.15991
 Alpha  occ. eigenvalues --  -10.15990  -1.08291  -1.03861  -0.96861  -0.86174
 Alpha  occ. eigenvalues --   -0.82321  -0.79285  -0.75491  -0.70188  -0.69935
 Alpha  occ. eigenvalues --   -0.69005  -0.68707  -0.64709  -0.61428  -0.60399
 Alpha  occ. eigenvalues --   -0.55035  -0.53652  -0.52102  -0.50211  -0.48171
 Alpha  occ. eigenvalues --   -0.47280  -0.46371  -0.45441  -0.44578  -0.44366
 Alpha  occ. eigenvalues --   -0.43612  -0.42811  -0.41456  -0.40881  -0.40865
 Alpha  occ. eigenvalues --   -0.39775  -0.39068  -0.38652  -0.38349  -0.37244
 Alpha  occ. eigenvalues --   -0.36795  -0.35877  -0.35501  -0.34366  -0.33830
 Alpha  occ. eigenvalues --   -0.33502  -0.29261  -0.28741  -0.26745  -0.23287
 Alpha virt. eigenvalues --   -0.12284  -0.01121  -0.00885  -0.00094   0.00485
 Alpha virt. eigenvalues --    0.00856   0.01552   0.01779   0.02035   0.02313
 Alpha virt. eigenvalues --    0.03384   0.03663   0.03754   0.03946   0.04765

  Beta  occ. eigenvalues --  -19.14737 -19.11330 -14.35610 -10.29453 -10.26422
  Beta  occ. eigenvalues --  -10.25041 -10.22622 -10.21190 -10.20308 -10.20091
  Beta  occ. eigenvalues --  -10.17403 -10.16952 -10.16676 -10.16201 -10.15991
  Beta  occ. eigenvalues --  -10.15990  -1.08291  -1.03861  -0.96861  -0.86174
  Beta  occ. eigenvalues --   -0.82321  -0.79285  -0.75491  -0.70188  -0.69935
  Beta  occ. eigenvalues --   -0.69005  -0.68707  -0.64709  -0.61428  -0.60399
  Beta  occ. eigenvalues --   -0.55035  -0.53652  -0.52102  -0.50211  -0.48171
  Beta  occ. eigenvalues --   -0.47280  -0.46371  -0.45441  -0.44578  -0.44366
  Beta  occ. eigenvalues --   -0.43612  -0.42811  -0.41456  -0.40881  -0.40865
  Beta  occ. eigenvalues --   -0.39775  -0.39068  -0.38652  -0.38349  -0.37244
  Beta  occ. eigenvalues --   -0.36795  -0.35877  -0.35501  -0.34366  -0.33830
  Beta  occ. eigenvalues --   -0.33502  -0.29261  -0.28741  -0.26745  -0.23287
  Beta virt. eigenvalues --   -0.12284  -0.01121  -0.00885  -0.00094   0.00485
  Beta virt. eigenvalues --    0.00856   0.01552   0.01779   0.02035   0.02313
  Beta virt. eigenvalues --    0.03384   0.03663   0.03754   0.03946   0.04765

 Mulliken charges and spin densities:
               1          2
     1  C   -1.461168  -0.000000
     2  C    1.231018   0.000000
     3  C   -0.465840  -0.000000
     4  C   -0.507075   0.000000
     5  C    1.063971   0.000000
     6  C   -0.323825  -0.000000
     7  O   -0.219079   0.000000
     8  O   -0.376459   0.000000
     9  N    0.002956   0.000000
    10  C   -0.039475  -0.000000
    11  C   -0.482782   0.000000
    12  C   -0.533425  -0.000000
    13  H    0.236473   0.000000
    14  H    0.357250   0.000000
    15  H    0.164145  -0.000000
    16  H    0.154621   0.000000
    17  H    0.165445  -0.000000
    18  H    0.148553  -0.000000
    19  H    0.172463   0.000000
    20  H    0.161262  -0.000000
    21  H    0.152966   0.000000
    22  C    0.536029   0.000000
    23  C   -0.672025   0.000000
    24  C   -0.468172  -0.000000
    25  C   -0.681888   0.000000
    26  H    0.234695  -0.000000
    27  H    0.181834  -0.000000
    28  H    0.162919   0.000000
    29  H    0.147437  -0.000000
    30  H    0.183146  -0.000000
    31  H    0.141124   0.000000
    32  H    0.141394   0.000000
    33  H    0.179213  -0.000000
    34  H    0.149023   0.000000
    35  H    0.163278   0.000000
 Sum of Mulliken charges =   0.00000   0.00000

 Dipole moment (field-independent basis, Debye):
    X=             -2.2045    Y=              2.7024    Z=              4.3017  Tot=              5.5378
 Quadrupole moment (field-independent basis, Debye-Ang):
   XX=            -75.8370   YY=           -100.3200   ZZ=            -85.7340
   XY=            -13.4056   XZ=            -15.8469   YZ=             -4.6936

  Exact polarizability: 218.368 -50.148 217.732 -14.571  32.117 291.361
 Approx polarizability: 224.282 -44.391 231.639 -32.456  56.350 374.213

                      1                      2                      3
                      A                      A                      A
 Frequencies --     29.0176                44.0533                62.8591
 Red. masses --      3.7762                 2.7902                 3.7433
 Frc consts  --      0.0019                 0.0032                 0.0087
 IR Inten    --      3.0144                 1.9492                 0.5643

                      4                      5                      6
                      A                      A                      A
 Frequencies --     84.3855               104.8927               137.7691
 Red. masses --      4.5338                 3.5758                 3.9899
 Frc consts  --      0.0190                 0.0232                 0.0446
 IR Inten    --      0.3498                 0.8303                 6.9877

                      7                      8                      9
                      A                      A                      A
 Frequencies --    167.4502               191.3395               210.0765
 Red. masses --      4.4001                 3.7607                 1.2439
 Frc consts  --      0.0727                 0.0811                 0.0323
 IR Inten    --      0.2766                 0.9658                 1.0745

                     10                     11                     12
                      A                      A                      A
 Frequencies --    225.1464               239.7848               254.1226
 Red. masses --      1.0291                 1.3304                 1.2194
 Frc consts  --      0.0307                 0.0451                 0.0464
 IR Inten    --      0.2503                 0.4362                 0.0966

                     13                     14                     15
                      A                      A                      A
 Frequencies --    258.3979               268.2076               278.7492
 Red. masses --      1.8915                 2.5958                 3.0660
 Frc consts  --      0.0744                 0.1100                 0.1404
 IR Inten    --      0.2754                 0.0303                 1.7310

                     16                     17                     18
                      A                      A                      A
 Frequencies --    328.8304               330.1658               354.3108
 Red. masses --      1.1301                 2.5713                 3.1932
 Frc consts  --      0.0720                 0.1651                 0.2362
 IR Inten    --      0.4086                 3.3282                 0.6860

                     19                     20                     21
                      A                      A                      A
 Frequencies --    376.0084               404.0452               413.9720
 Red. masses --      2.4610                 2.8690                 2.7320
 Frc consts  --      0.2050                 0.2760                 0.2758
 IR Inten    --      0.1507                 7.2910                 1.2474

                     22                     23                     24
                      A                      A                      A
 Frequencies --    424.5906               452.1446               465.5592
 Red. masses --      3.2791                 6.4761                 7.3383
 Frc consts  --      0.3483                 0.7800                 0.9371
 IR Inten    --      1.6036                70.9096                11.5160

                     25                     26                     27
                      A                      A                      A
 Frequencies --    482.6138               517.6269               555.0422
 Red. masses --      3.1093                 2.9066                 1.3869
 Frc consts  --      0.4267                 0.4589                 0.2517
 IR Inten    --      8.4402                 6.0006               126.4234

                     28                     29                     30
                      A                      A                      A
 Frequencies --    584.4361               623.7744               689.7900
 Red. masses --      2.2724                 4.7623                 4.8238
 Frc consts  --      0.4573                 1.0918                 1.3523
 IR Inten    --     12.2957                 0.5671                 0.4993

                     31                     32                     33
                      A                      A                      A
 Frequencies --    698.0975               783.2986               789.4848
 Red. masses --      3.6357                 3.8117                 5.6713
 Frc consts  --      1.0439                 1.3779                 2.0827
 IR Inten    --      2.3655                 1.5431                 3.5737

                     34                     35                     36
                      A                      A                      A
 Frequencies --    814.1528               822.1834               851.1829
 Red. masses --      1.7740                 4.8472                 2.5169
 Frc consts  --      0.6928                 1.9305                 1.0744
 IR Inten    --     39.8521                19.9244                11.9182

                     37                     38                     39
                      A                      A                      A
 Frequencies --    901.9090               923.1061               934.4486
 Red. masses --      2.7797                 1.8142                 1.7941
 Frc consts  --      1.3322                 0.9109                 0.9230
 IR Inten    --     32.3708                14.2516                 3.6376

                     40                     41                     42
                      A                      A                      A
 Frequencies --    937.6516               938.8396               947.6457
 Red. masses --      1.5133                 1.2659                 1.7963
 Frc consts  --      0.7839                 0.6574                 0.9504
 IR Inten    --     25.9239                 3.4264                 2.7002

                     43                     44                     45
                      A                      A                      A
 Frequencies --    962.2830               963.6820              1003.8370
 Red. masses --      1.7153                 1.1977                 2.4382
 Frc consts  --      0.9358                 0.6553                 1.4476
 IR Inten    --      2.7149                 0.0252                72.9595

                     46                     47                     48
                      A                      A                      A
 Frequencies --   1047.0528              1052.4732              1137.8145
 Red. masses --      1.3842                 1.4351                 2.1230
 Frc consts  --      0.8941                 0.9366                 1.6193
 IR Inten    --      0.0343                 3.6111                29.9589

                     49                     50                     51
                      A                      A                      A
 Frequencies --   1151.5310              1185.1366              1189.7339
 Red. masses --      2.1515                 1.9822                 2.3415
 Frc consts  --      1.6809                 1.6404                 1.9527
 IR Inten    --     12.1386                15.4135               196.7960

                     52                     53                     54
                      A                      A                      A
 Frequencies --   1216.0914              1223.8035              1265.3811
 Red. masses --      2.7093                 2.6425                 2.3754
 Frc consts  --      2.3607                 2.3318                 2.2409
 IR Inten    --      6.6990                 4.8201                75.6960

                     55                     56                     57
                      A                      A                      A
 Frequencies --   1268.9986              1300.6619              1349.4336
 Red. masses --      2.1376                 1.7830                 2.0424
 Frc consts  --      2.0281                 1.7772                 2.1913
 IR Inten    --    192.2507               141.2248                39.4773

                     58                     59                     60
                      A                      A                      A
 Frequencies --   1355.3097              1370.7813              1388.2693
 Red. masses --      1.3940                 2.7388                 1.2002
 Frc consts  --      1.5087                 3.0322                 1.3628
 IR Inten    --      5.4318               136.2913                10.4297

                     61                     62                     63
                      A                      A                      A
 Frequencies --   1389.4873              1394.6852              1398.1245
 Red. masses --      1.6200                 1.2644                 1.2454
 Frc consts  --      1.8428                 1.4490                 1.4343
 IR Inten    --     14.1215                25.7881                15.6458

                     64                     65                     66
                      A                      A                      A
 Frequencies --   1416.8462              1421.2227              1475.0714
 Red. masses --      1.2426                 1.2244                 1.0463
 Frc consts  --      1.4697                 1.4571                 1.3413
 IR Inten    --     10.4487                 7.4153                 0.0008

                     67                     68                     69
                      A                      A                      A
 Frequencies --   1478.3462              1480.9802              1488.0692
 Red. masses --      1.0414                 1.0535                 1.0448
 Frc consts  --      1.3410                 1.3614                 1.3631
 IR Inten    --      3.8934                11.0190                 0.2268

                     70                     71                     72
                      A                      A                      A
 Frequencies --   1488.4497              1489.0243              1492.3757
 Red. masses --      1.0465                 1.0645                 1.0556
 Frc consts  --      1.3660                 1.3907                 1.3852
 IR Inten    --      0.4945                37.8256                27.4289

                     73                     74                     75
                      A                      A                      A
 Frequencies --   1499.1491              1501.9170              1516.4303
 Red. masses --      1.0533                 1.0491                 1.0632
 Frc consts  --      1.3947                 1.3943                 1.4405
 IR Inten    --     24.7448                12.6176                32.6787

                     76                     77                     78
                      A                      A                      A
 Frequencies --   1541.0117              1595.8483              1636.4402
 Red. masses --      1.9037                 6.5419                10.6336
 Frc consts  --      2.6636                 9.8160                16.7776
 IR Inten    --    768.1133              1483.2867                52.1930

                     79                     80                     81
                      A                      A                      A
 Frequencies --   1667.1253              1708.3522              3023.0213
 Red. masses --      7.6498                11.5685                 1.0354
 Frc consts  --     12.5268                19.8922                 5.5751
 IR Inten    --    337.5426               271.7166                26.9827

                     82                     83                     84
                      A                      A                      A
 Frequencies --   3025.2648              3025.7517              3029.6354
 Red. masses --      1.0375                 1.0377                 1.0399
 Frc consts  --      5.5945                 5.5973                 5.6239
 IR Inten    --     63.7975                29.5645                33.4087

                     85                     86                     87
                      A                      A                      A
 Frequencies --   3031.3565              3039.2642              3083.1456
 Red. masses --      1.0382                 1.0789                 1.1026
 Frc consts  --      5.6209                 5.8717                 6.1750
 IR Inten    --     37.7552                15.4463                14.5268

                     88                     89                     90
                      A                      A                      A
 Frequencies --   3083.9817              3090.0570              3091.4667
 Red. masses --      1.1020                 1.1025                 1.1007
 Frc consts  --      6.1755                 6.2024                 6.1982
 IR Inten    --     38.2056                58.3900                15.0730

                     91                     92                     93
                      A                      A                      A
 Frequencies --   3094.5187              3098.3745              3103.7719
 Red. masses --      1.1011                 1.1017                 1.1025
 Frc consts  --      6.2124                 6.2313                 6.2578
 IR Inten    --     85.8046                65.2635                35.5607

                     94                     95                     96
                      A                      A                      A
 Frequencies --   3110.2400              3127.3927              3129.6422
 Red. masses --      1.1023                 1.0988                 1.0981
 Frc consts  --      6.2826                 6.3318                 6.3371
 IR Inten    --     40.2089                 0.7648                41.4080

                     97                     98                     99
                      A                      A                      A
 Frequencies --   3198.7955              3202.1713              3550.2846
 Red. masses --      1.0907                 1.0906                 1.0761
 Frc consts  --      6.5758                 6.5887                 7.9914
 IR Inten    --      9.3671                 5.6430               174.1820

 - Thermochemistry -
 -------------------
 Temperature   298.150 Kelvin.  Pressure   1.00000 Atm.
 Atom     1 has atomic number  6 and mass  12.00000

 Molecular mass:   221.14158 amu.
 Principal axes and moments of inertia in atomic units:
                           1         2         3
     Eigenvalues --  2133.179115684.035107122.68782
           X            0.73508  -0.05301   0.67590
           Y           -0.64907   0.23299   0.72417
           Z            0.19587   0.97103  -0.13686
 This molecule is an asymmetric top.
 Rotational symmetry number  1.
 Warning -- assumption of classical behavior for rotation
           may cause significant error
 Rotational temperatures (Kelvin)      0.04060     0.01524     0.01216
 Rotational constants (GHZ):           0.84603     0.31751     0.25338
 Zero-point vibrational energy     780865.6 (Joules/Mol)
                                  186.63135 (Kcal/Mol)
 Warning -- explicit consideration of  28 degrees of freedom as
           vibrations may cause significant error
 Vibrational temperatures:     41.75    63.38    90.44   121.41   150.92
          (Kelvin)            198.22   240.92   275.29   302.25   323.94
                              345.00   365.63   371.78   385.89   401.06
                              473.11   475.03   509.77   540.99   581.33
                              595.61   610.89   650.54   669.84   694.37
                              744.75   798.58   840.87   897.47   992.45
                             1004.41  1126.99  1135.89  1171.38  1182.94
                             1224.66  1297.65  1328.14  1344.46  1349.07
                             1350.78  1363.45  1384.51  1386.52  1444.30
                             1506.48  1514.27  1637.06  1656.80  1705.15
                             1711.76  1749.68  1760.78  1820.60  1825.81
                             1871.36  1941.53  1949.99  1972.25  1997.41
                             1999.16  2006.64  2011.59  2038.53  2044.82
                             2122.30  2127.01  2130.80  2141.00  2141.55
                             2142.37  2147.20  2156.94  2160.92  2181.80
                             2217.17  2296.07  2354.47  2398.62  2457.94
                             4349.45  4352.68  4353.38  4358.97  4361.45
                             4372.82  4435.96  4437.16  4445.90  4447.93
                             4452.32  4457.87  4465.64  4474.94  4499.62
                             4502.86  4602.35  4607.21  5108.07

 Zero-point correction=                           0.297416 (Hartree/Particle)
 Thermal correction to Energy=                    0.314729
 Thermal correction to Enthalpy=                  0.315674
 Thermal correction to Gibbs Free Energy=         0.252747
 Sum of electronic and zero-point Energies=           -711.936141
 Sum of electronic and thermal Energies=              -711.918828
 Sum of electronic and thermal Enthalpies=            -711.917884
 Sum of electronic and thermal Free Energies=         -711.980810

                     E (Thermal)             CV                S
                      KCal/Mol        Cal/Mol-Kelvin    Cal/Mol-Kelvin
 Total                  197.496             66.062            132.440
 Electronic               0.000              0.000              0.000
 Translational            0.889              2.981             42.084
 Rotational               0.889              2.981             32.824
 Vibrational            195.718             60.100             57.532
 Vibration     1          0.593              1.984              5.895
 Vibration     2          0.595              1.980              5.068
 Vibration     3          0.597              1.972              4.365
 Vibration     4          0.601              1.960              3.786
 Vibration     5          0.605              1.945              3.361
 Vibration     6          0.614              1.916              2.835
 Vibration     7          0.624              1.883              2.464
 Vibration     8          0.634              1.852              2.215
 Vibration     9          0.642              1.825              2.043
 Vibration    10          0.650              1.803              1.917
 Vibration    11          0.657              1.780              1.804
 Vibration    12          0.665              1.756              1.702
 Vibration    13          0.667              1.749              1.673
 Vibration    14          0.673              1.732              1.608
 Vibration    15          0.679              1.713              1.541
 Vibration    16          0.712              1.618              1.266
 Vibration    17          0.713              1.615              1.259
 Vibration    18          0.730              1.566              1.147
 Vibration    19          0.747              1.521              1.055
 Vibration    20          0.769              1.461              0.948
 Vibration    21          0.778              1.440              0.913
 Vibration    22          0.787              1.417              0.877
 Vibration    23          0.811              1.356              0.789
 Vibration    24          0.823              1.326              0.750
 Vibration    25          0.839              1.289              0.703
 Vibration    26          0.873              1.211              0.615
 Vibration    27          0.910              1.129              0.534
 Vibration    28          0.941              1.065              0.477

 Optimization completed.
    -- Stationary point found.
 Normal termination of Gaussian 16 at Sat Feb 10 13:08:44 2024.
