 Gaussian 16, Revision A.03,
 Gaussian 16:  ES64L-G16RevA.03 25-Dec-2016

 ---------------------------------------------------
 #P UB3LYP/6-311++G(d,p) nosym opt freq Int=Acc2E=11
 ---------------------------------------------------

 -------
 Radical
 -------
 Symbolic Z-matrix:
 Charge = -1 Multiplicity = 2

 SCF Done:  E(UB3LYP) =  -880.952969287     A.U. after   26 cycles
 SCF Done:  E(UB3LYP) =  -880.967741299     A.U. after   20 cycles
 SCF Done:  E(UB3LYP) =  -880.968985686     A.U. after   19 cycles
 SCF Done:  E(UB3LYP) =  -880.969063475     A.U. after   18 cycles
 SCF Done:  E(UB3LYP) =  -880.969081445     A.U. after   14 cycles
 SCF Done:  E(UB3LYP) =  -880.969082888     A.U. after   12 cycles
 Optimization completed.
    -- Stationary point found.
 Normal termination of Gaussian 16 at Sat Jan  6 20:02:23 2024.

 ----------------------------------------------------------------------
 #P Geom=AllCheck Guess=TCheck SCRF=Check GenChk UB3LYP/6-311++G(d,p) F
 req
 ----------------------------------------------------------------------

 Structure from the checkpoint file:  "328-rad.chk"
 -------
 Radical
 -------
 Charge = -1 Multiplicity = 2

                          Input orientation:
 ---------------------------------------------------------------------
 Center     Atomic      Atomic             Coordinates (Angstroms)
 Number     Number       Type             X           Y           Z
 ---------------------------------------------------------------------
      1          6           0       -1.250879    2.606009   -0.746102
      2          6           0       -2.313599    1.975274   -0.149212
      3          6           0       -2.164794    0.661126    0.375835
      4          6           0        0.021642    1.970993   -0.857504
      5          6           0        0.170392    0.639621   -0.325074
      6          6           0       -0.954256    0.017801    0.286849
      7          6           0        1.127641    2.589169   -1.461986
      8          6           0        2.368226    1.965429   -1.568703
      9          6           0        2.510047    0.629468   -1.032536
     10          6           0        1.422716    0.006132   -0.431253
     11          6           0        3.480565    2.682532   -2.217812
     12          6           0        4.785146    1.969254   -2.305388
     13          6           0        4.850920    0.625091   -1.742954
     14          6           0        3.798138   -0.008430   -1.148041
     15          8           0        3.326023    3.837489   -2.671457
     16          8           0        5.795909    2.479509   -2.833698
     17          1           0       -1.362432    3.608938   -1.147394
     18          1           0       -3.273446    2.476632   -0.074891
     19          1           0       -3.011206    0.170862    0.845994
     20          1           0       -0.837167   -0.985700    0.686706
     21          1           0        1.039651    3.590734   -1.869622
     22          1           0        1.542465   -0.994968   -0.033367
     23          1           0        5.821532    0.152371   -1.833471
     24          8           0        3.854471   -1.283021   -0.613104
     25          6           0        5.084177   -1.981380   -0.686704
     26          6           0        4.885150   -3.327724   -0.044015
     27          6           0        5.822968   -4.264625    0.073485
     28          1           0        5.873191   -1.416208   -0.171048
     29          1           0        5.395611   -2.092119   -1.734853
     30          1           0        3.883108   -3.502353    0.338357
     31          1           0        6.833173   -4.118498   -0.299149
     32          1           0        5.612899   -5.215911    0.548844
 ---------------------------------------------------------------------

 SCF Done:  E(UB3LYP) =  -880.969082888     A.U. after    1 cycles

 Alpha  occ. eigenvalues --  -19.05601 -18.93948 -18.93739 -10.14627 -10.11974
 Alpha  occ. eigenvalues --  -10.10977 -10.09848 -10.08686 -10.08313 -10.07827
 Alpha  occ. eigenvalues --  -10.07754 -10.07713 -10.07588 -10.07565 -10.07351
 Alpha  occ. eigenvalues --  -10.07052 -10.06445 -10.05538 -10.05381 -10.04393
 Alpha  occ. eigenvalues --   -0.97057  -0.87541  -0.84867  -0.77018  -0.73541
 Alpha  occ. eigenvalues --   -0.71640  -0.67890  -0.67001  -0.63102  -0.62059
 Alpha  occ. eigenvalues --   -0.60737  -0.55036  -0.53076  -0.50209  -0.49247
 Alpha  occ. eigenvalues --   -0.48882  -0.46511  -0.42438  -0.41647  -0.41029
 Alpha  occ. eigenvalues --   -0.39082  -0.39034  -0.37136  -0.35786  -0.35138
 Alpha  occ. eigenvalues --   -0.33676  -0.33259  -0.31558  -0.30988  -0.30160
 Alpha  occ. eigenvalues --   -0.29473  -0.28826  -0.28014  -0.27706  -0.26891
 Alpha  occ. eigenvalues --   -0.25967  -0.25443  -0.25113  -0.23220  -0.22421
 Alpha  occ. eigenvalues --   -0.22048  -0.20543  -0.19258  -0.18334  -0.15878
 Alpha  occ. eigenvalues --   -0.11903  -0.11882  -0.10753  -0.08619  -0.01681
 Alpha virt. eigenvalues --    0.04761   0.05927   0.05963   0.06795   0.07860
 Alpha virt. eigenvalues --    0.08504   0.09295   0.09542   0.10392   0.10521
 Alpha virt. eigenvalues --    0.11234   0.11340   0.12192   0.12613   0.13393

  Beta  occ. eigenvalues --  -19.05531 -18.93247 -18.93158 -10.14631 -10.11777
  Beta  occ. eigenvalues --  -10.10976 -10.09848 -10.08590 -10.08179 -10.07848
  Beta  occ. eigenvalues --  -10.07730 -10.07678 -10.07578 -10.07498 -10.07319
  Beta  occ. eigenvalues --  -10.06978 -10.06469 -10.05461 -10.05334 -10.04427
  Beta  occ. eigenvalues --   -0.96897  -0.86467  -0.83693  -0.76898  -0.73362
  Beta  occ. eigenvalues --   -0.71572  -0.67668  -0.66880  -0.62877  -0.61921
  Beta  occ. eigenvalues --   -0.60673  -0.54389  -0.52967  -0.50042  -0.49202
  Beta  occ. eigenvalues --   -0.48737  -0.46260  -0.42293  -0.41487  -0.40919
  Beta  occ. eigenvalues --   -0.39007  -0.38877  -0.37041  -0.35742  -0.35002
  Beta  occ. eigenvalues --   -0.33596  -0.33160  -0.31485  -0.30888  -0.29477
  Beta  occ. eigenvalues --   -0.29290  -0.28750  -0.27750  -0.27123  -0.26495
  Beta  occ. eigenvalues --   -0.25357  -0.24771  -0.24406  -0.23035  -0.21911
  Beta  occ. eigenvalues --   -0.21608  -0.19558  -0.18567  -0.17257  -0.14941
  Beta  occ. eigenvalues --   -0.11241  -0.10851  -0.09905  -0.08029
  Beta virt. eigenvalues --    0.04508   0.05194   0.05960   0.05988   0.06791
  Beta virt. eigenvalues --    0.07856   0.08500   0.09296   0.10513   0.10520
  Beta virt. eigenvalues --    0.10844   0.11233   0.11467   0.12197   0.12610

 Mulliken charges and spin densities:
               1          2
     1  C   -0.216254   0.010537
     2  C   -0.246230   0.007526
     3  C   -0.302180   0.045647
     4  C    0.425863   0.026837
     5  C   -0.060681   0.049247
     6  C   -0.222370  -0.022999
     7  C    0.000244   0.052196
     8  C    0.676837   0.076119
     9  C    0.098789   0.042304
    10  C   -0.103572  -0.012435
    11  C   -0.640696   0.081264
    12  C   -0.194951   0.111086
    13  C    0.219253  -0.046060
    14  C   -0.411594   0.080484
    15  O   -0.360707   0.267026
    16  O   -0.373034   0.213788
    17  H    0.116338   0.000063
    18  H    0.128917  -0.000926
    19  H    0.132382  -0.003561
    20  H    0.107291   0.001804
    21  H    0.133755  -0.005577
    22  H    0.066952   0.001360
    23  H    0.182445   0.000326
    24  O   -0.100757   0.016331
    25  C   -0.465710   0.002475
    26  C    0.282909   0.000004
    27  C   -0.627270   0.000426
    28  H    0.155538   0.002498
    29  H    0.155688   0.002492
    30  H    0.181407  -0.000239
    31  H    0.122910  -0.000035
    32  H    0.138488  -0.000008
 Sum of Mulliken charges =  -1.00000   1.00000

 Dipole moment (field-independent basis, Debye):
    X=            -16.1229    Y=            -12.1519    Z=             10.1523  Tot=             22.5983
 Quadrupole moment (field-independent basis, Debye-Ang):
   XX=           -202.6414   YY=           -162.2870   ZZ=           -152.5278
   XY=            -50.3967   XZ=             45.3317   YZ=             31.3619

  Exact polarizability: 395.764 -33.765 257.000 -70.277 -50.450 160.009
 Approx polarizability: 641.712 -11.604 403.628-133.825 -91.043 265.549

 ******    1 imaginary frequencies (negative Signs) ******

                      1                      2                      3
                      A                      A                      A
 Frequencies --   -108.6167                32.6272                56.4917
 Red. masses --      2.0031                 5.2274                 7.8102
 Frc consts  --      0.0139                 0.0033                 0.0147
 IR Inten    --      1.9987                 0.0002                 0.0016

                      4                      5                      6
                      A                      A                      A
 Frequencies --     73.7723                82.8662                96.5518
 Red. masses --      4.5806                 4.8107                 1.9528
 Frc consts  --      0.0147                 0.0195                 0.0107
 IR Inten    --      1.4314                 1.4442                 1.7414

                      7                      8                      9
                      A                      A                      A
 Frequencies --    111.9131               174.6939               195.6394
 Red. masses --      5.8528                 5.7534                 7.4998
 Frc consts  --      0.0432                 0.1035                 0.1691
 IR Inten    --      0.5894                 0.9430                 5.5468

                     10                     11                     12
                      A                      A                      A
 Frequencies --    243.5578               263.1866               264.0617
 Red. masses --      4.4314                 4.7105                 5.3685
 Frc consts  --      0.1549                 0.1922                 0.2206
 IR Inten    --      0.0440                 6.7148                 0.4845

                     13                     14                     15
                      A                      A                      A
 Frequencies --    268.7819               336.7770               357.2110
 Red. masses --      5.3058                 6.5422                10.2237
 Frc consts  --      0.2258                 0.4372                 0.7686
 IR Inten    --      1.5501                 3.9784                 0.1073

                     16                     17                     18
                      A                      A                      A
 Frequencies --    384.7672               395.9260               447.4110
 Red. masses --      7.2732                 3.6955                 6.9066
 Frc consts  --      0.6344                 0.3413                 0.8146
 IR Inten    --      1.3660                 0.0108                 0.2626

                     19                     20                     21
                      A                      A                      A
 Frequencies --    461.4979               475.7553               510.3556
 Red. masses --      4.4482                 2.6300                 5.7058
 Frc consts  --      0.5582                 0.3507                 0.8756
 IR Inten    --     12.2428                18.6243                 7.0120

                     22                     23                     24
                      A                      A                      A
 Frequencies --    532.9992               551.3109               572.6706
 Red. masses --      4.0969                 8.1425                 1.3863
 Frc consts  --      0.6857                 1.4581                 0.2679
 IR Inten    --      0.1668                 7.6993                13.4274

                     25                     26                     27
                      A                      A                      A
 Frequencies --    589.5984               591.8737               625.8313
 Red. masses --      3.8354                 7.3167                 6.8101
 Frc consts  --      0.7856                 1.5102                 1.5715
 IR Inten    --      0.0545                19.1182                 4.0682

                     28                     29                     30
                      A                      A                      A
 Frequencies --    657.2522               702.6983               721.9759
 Red. masses --      6.1827                 5.7185                 6.6467
 Frc consts  --      1.5736                 1.6637                 2.0413
 IR Inten    --      4.6114                 0.3290                 2.2966

                     31                     32                     33
                      A                      A                      A
 Frequencies --    740.3571               750.2874               756.9871
 Red. masses --      1.4765                 3.8776                 4.3040
 Frc consts  --      0.4768                 1.2861                 1.4531
 IR Inten    --     41.5822                14.0153                 1.0709

                     34                     35                     36
                      A                      A                      A
 Frequencies --    777.3857               788.2264               833.4576
 Red. masses --      6.0863                 4.5784                 1.4257
 Frc consts  --      2.1671                 1.6760                 0.5835
 IR Inten    --     34.6220                 6.2709                 0.2446

                     37                     38                     39
                      A                      A                      A
 Frequencies --    838.2671               893.3328               915.7791
 Red. masses --      1.4449                 1.4448                 4.8214
 Frc consts  --      0.5982                 0.6793                 2.3824
 IR Inten    --     20.1111                14.4274                 9.7666

                     40                     41                     42
                      A                      A                      A
 Frequencies --    918.5659               921.8170               928.3842
 Red. masses --      1.3345                 1.3568                 1.7480
 Frc consts  --      0.6634                 0.6793                 0.8877
 IR Inten    --     53.2075                 8.9856                 2.2807

                     43                     44                     45
                      A                      A                      A
 Frequencies --    951.2425               961.0678               985.8344
 Red. masses --      1.3495                 1.3029                 4.4471
 Frc consts  --      0.7195                 0.7091                 2.5465
 IR Inten    --      7.6907                 3.5664                 2.3383

                     46                     47                     48
                      A                      A                      A
 Frequencies --   1008.8861              1016.5023              1025.7647
 Red. masses --      1.1181                 4.4383                 2.3393
 Frc consts  --      0.6705                 2.7020                 1.4502
 IR Inten    --      7.5303                16.9915                14.7985

                     49                     50                     51
                      A                      A                      A
 Frequencies --   1047.2578              1105.4245              1145.9958
 Red. masses --      1.5528                 3.9282                 2.0671
 Frc consts  --      1.0034                 2.8281                 1.5995
 IR Inten    --     13.3064                 3.7967                66.1684

                     52                     53                     54
                      A                      A                      A
 Frequencies --   1154.0745              1159.6412              1165.4130
 Red. masses --      2.0883                 2.0523                 1.3840
 Frc consts  --      1.6388                 1.6260                 1.1075
 IR Inten    --     65.8615               199.9162                53.7317

                     55                     56                     57
                      A                      A                      A
 Frequencies --   1181.1857              1231.7731              1244.1146
 Red. masses --      2.0754                 1.9623                 1.0713
 Frc consts  --      1.7061                 1.7542                 0.9770
 IR Inten    --    206.6561                36.8701                 0.5984

                     58                     59                     60
                      A                      A                      A
 Frequencies --   1251.1811              1257.3025              1280.4046
 Red. masses --      1.8491                 3.4392                 1.8276
 Frc consts  --      1.7055                 3.2032                 1.7653
 IR Inten    --     22.0259                29.2389                 9.8806

                     61                     62                     63
                      A                      A                      A
 Frequencies --   1306.7620              1340.1997              1364.9701
 Red. masses --      1.3100                 3.2517                 1.4558
 Frc consts  --      1.3180                 3.4412                 1.5980
 IR Inten    --      3.3627                22.0666               154.7225

                     64                     65                     66
                      A                      A                      A
 Frequencies --   1387.0398              1399.5455              1407.6742
 Red. masses --      5.2823                 2.5528                 3.7052
 Frc consts  --      5.9876                 2.9460                 4.3258
 IR Inten    --      2.5558                 7.6282                99.4640

                     67                     68                     69
                      A                      A                      A
 Frequencies --   1450.8667              1454.1229              1472.1695
 Red. masses --      2.6941                 1.3075                 4.3593
 Frc consts  --      3.3413                 1.6289                 5.5666
 IR Inten    --    132.9000                23.7678               242.7007

                     70                     71                     72
                      A                      A                      A
 Frequencies --   1497.0922              1505.7908              1523.9169
 Red. masses --      2.2894                 1.2151                 4.8806
 Frc consts  --      3.0233                 1.6233                 6.6779
 IR Inten    --     14.0700                19.1217               256.2346

                     73                     74                     75
                      A                      A                      A
 Frequencies --   1546.6306              1583.2642              1594.9362
 Red. masses --      7.5768                 7.5933                 7.6161
 Frc consts  --     10.6784                11.2148                11.4149
 IR Inten    --    317.8540                59.8741               384.2344

                     76                     77                     78
                      A                      A                      A
 Frequencies --   1616.2668              1637.4128              1697.9419
 Red. masses --      6.7313                 5.9225                 4.7436
 Frc consts  --     10.3603                 9.3557                 8.0576
 IR Inten    --     47.0066                31.6683                26.4665

                     79                     80                     81
                      A                      A                      A
 Frequencies --   2972.7277              2996.7738              3119.8569
 Red. masses --      1.0544                 1.1054                 1.0595
 Frc consts  --      5.4897                 5.8487                 6.0763
 IR Inten    --     58.6347                28.4609                15.2166

                     82                     83                     84
                      A                      A                      A
 Frequencies --   3135.8017              3143.8772              3151.1727
 Red. masses --      1.0839                 1.0867                 1.0915
 Frc consts  --      6.2794                 6.3284                 6.3858
 IR Inten    --      1.8146                 4.2519                 1.6653

                     85                     86                     87
                      A                      A                      A
 Frequencies --   3157.2193              3169.6882              3171.4419
 Red. masses --      1.0930                 1.0958                 1.0901
 Frc consts  --      6.4193                 6.4865                 6.4597
 IR Inten    --     48.9698                46.5286                22.0022

                     88                     89                     90
                      A                      A                      A
 Frequencies --   3177.2148              3181.3484              3204.0080
 Red. masses --      1.0890                 1.0886                 1.1138
 Frc consts  --      6.4769                 6.4917                 6.7366
 IR Inten    --     11.4801                25.5188                18.9586

 - Thermochemistry -
 -------------------
 Temperature   298.150 Kelvin.  Pressure   1.00000 Atm.
 Atom     1 has atomic number  6 and mass  12.00000

 Molecular mass:   264.07864 amu.
 Principal axes and moments of inertia in atomic units:
                           1         2         3
     Eigenvalues --  4083.439987645.22042**********
           X            0.88235   0.38615   0.26899
           Y           -0.46582   0.79790   0.38258
           Z           -0.06689  -0.46287   0.88390
 This molecule is an asymmetric top.
 Rotational symmetry number  1.
 Warning -- assumption of classical behavior for rotation
           may cause significant error
 Rotational temperatures (Kelvin)      0.02121     0.01133     0.00739
 Rotational constants (GHZ):           0.44197     0.23606     0.15402
    1 imaginary frequencies ignored.
 Zero-point vibrational energy     630334.5 (Joules/Mol)
                                  150.65357 (Kcal/Mol)
 Warning -- explicit consideration of  25 degrees of freedom as
           vibrations may cause significant error
 Vibrational temperatures:     46.94    81.28   106.14   119.23   138.92
          (Kelvin)            161.02   251.35   281.48   350.43   378.67
                              379.93   386.72   484.55   513.95   553.59
                              569.65   643.72   663.99   684.51   734.29
                              766.87   793.21   823.95   848.30   851.57
                              900.43   945.64  1011.03  1038.76  1065.21
                             1079.50  1089.14  1118.48  1134.08  1199.16
                             1206.08  1285.31  1317.60  1321.61  1326.29
                             1335.74  1368.63  1382.76  1418.40  1451.56
                             1462.52  1475.85  1506.77  1590.46  1648.83
                             1660.46  1668.47  1676.77  1699.46  1772.25
                             1790.00  1800.17  1808.98  1842.22  1880.14
                             1928.25  1963.89  1995.64  2013.63  2025.33
                             2087.47  2092.16  2118.12  2153.98  2166.50
                             2192.58  2225.26  2277.96  2294.76  2325.45
                             2355.87  2442.96  4277.09  4311.69  4488.78
                             4511.72  4523.34  4533.83  4542.53  4560.47
                             4563.00  4571.30  4577.25  4609.85

 Zero-point correction=                           0.240082 (Hartree/Particle)
 Thermal correction to Energy=                    0.255806
 Thermal correction to Enthalpy=                  0.256750
 Thermal correction to Gibbs Free Energy=         0.195404
 Sum of electronic and zero-point Energies=           -880.729001
 Sum of electronic and thermal Energies=              -880.713277
 Sum of electronic and thermal Enthalpies=            -880.712333
 Sum of electronic and thermal Free Energies=         -880.773679

                     E (Thermal)             CV                S
                      KCal/Mol        Cal/Mol-Kelvin    Cal/Mol-Kelvin
 Total                  160.520             62.434            129.112
 Electronic               0.000              0.000              1.377
 Translational            0.889              2.981             42.613
 Rotational               0.889              2.981             34.258
 Vibrational            158.743             56.473             50.865
 Vibration     1          0.594              1.983              5.663
 Vibration     2          0.596              1.975              4.576
 Vibration     3          0.599              1.966              4.050
 Vibration     4          0.600              1.961              3.822
 Vibration     5          0.603              1.952              3.523
 Vibration     6          0.607              1.940              3.235
 Vibration     7          0.627              1.874              2.384
 Vibration     8          0.636              1.846              2.174
 Vibration     9          0.659              1.773              1.777
 Vibration    10          0.670              1.740              1.641
 Vibration    11          0.671              1.739              1.635
 Vibration    12          0.673              1.731              1.604
 Vibration    13          0.717              1.602              1.227
 Vibration    14          0.732              1.560              1.134
 Vibration    15          0.754              1.503              1.020
 Vibration    16          0.763              1.479              0.978
 Vibration    17          0.807              1.367              0.804
 Vibration    18          0.819              1.335              0.762
 Vibration    19          0.832              1.304              0.722
 Vibration    20          0.865              1.227              0.633
 Vibration    21          0.888              1.177              0.581
 Vibration    22          0.907              1.137              0.541
 Vibration    23          0.929              1.090              0.499
 Vibration    24          0.947              1.054              0.468
 Vibration    25          0.949              1.049              0.464

                           ! Non-Optimized Parameters !
 Normal termination of Gaussian 16 at Sat Jan  6 20:47:36 2024.
