 Gaussian 16, Revision A.03,
 Gaussian 16:  ES64L-G16RevA.03 25-Dec-2016

 ----------------------------------------------------------------------
 #P UB3LYP/6-311++G(d,p) nosym opt freq SCRF=(PCM,Solvent=n,n-DiMethylF
 ormamide)
 ----------------------------------------------------------------------

 -------
 Reduced
 -------
 Symbolic Z-matrix:
 Charge = -2 Multiplicity = 1

 SCF Done:  E(UB3LYP) =  -817.509821086     A.U. after   20 cycles
 SCF Done:  E(UB3LYP) =  -817.509966983     A.U. after   15 cycles
 SCF Done:  E(UB3LYP) =  -817.508682570     A.U. after   17 cycles
 SCF Done:  E(UB3LYP) =  -817.510604278     A.U. after   15 cycles
 SCF Done:  E(UB3LYP) =  -817.510927570     A.U. after   15 cycles
 SCF Done:  E(UB3LYP) =  -817.511065804     A.U. after   15 cycles
 SCF Done:  E(UB3LYP) =  -817.511123895     A.U. after   14 cycles
 SCF Done:  E(UB3LYP) =  -817.511129068     A.U. after   13 cycles
 SCF Done:  E(UB3LYP) =  -817.511140477     A.U. after   12 cycles
 SCF Done:  E(UB3LYP) =  -817.511142553     A.U. after   17 cycles
 SCF Done:  E(UB3LYP) =  -817.511195344     A.U. after    8 cycles
 SCF Done:  E(UB3LYP) =  -817.511020071     A.U. after   22 cycles
 SCF Done:  E(UB3LYP) =  -817.511204723     A.U. after   16 cycles
 SCF Done:  E(UB3LYP) =  -817.511217044     A.U. after   14 cycles
 SCF Done:  E(UB3LYP) =  -817.511223020     A.U. after   16 cycles
 SCF Done:  E(UB3LYP) =  -817.511223901     A.U. after   16 cycles
 SCF Done:  E(UB3LYP) =  -817.511225659     A.U. after   14 cycles
 SCF Done:  E(UB3LYP) =  -817.511225840     A.U. after   20 cycles
 SCF Done:  E(UB3LYP) =  -817.511225832     A.U. after   11 cycles
 Optimization completed.
    -- Stationary point found.
 Normal termination of Gaussian 16 at Sat Feb 10 13:57:14 2024.

 ----------------------------------------------------------------------
 #P Geom=AllCheck Guess=TCheck SCRF=Check GenChk UB3LYP/6-311++G(d,p) F
 req
 ----------------------------------------------------------------------

 Structure from the checkpoint file:  "099-an.chk"
 -------
 Reduced
 -------
 Charge = -2 Multiplicity = 1

                          Input orientation:
 ---------------------------------------------------------------------
 Center     Atomic      Atomic             Coordinates (Angstroms)
 Number     Number       Type             X           Y           Z
 ---------------------------------------------------------------------
      1          6           0       -0.174379   -0.783086    1.495419
      2          6           0       -0.177851   -0.753310    0.043437
      3          6           0       -0.649968   -1.875610   -0.685930
      4          6           0       -1.152235   -3.057695   -0.101967
      5          6           0       -1.110176   -3.074671    1.339097
      6          6           0       -0.641133   -2.013932    2.079469
      7          8           0        0.233575    0.181501    2.234871
      8          8           0       -1.629397   -4.063560   -0.782854
      9          6           0        0.473072    0.338626   -0.679653
     10          1           0       -1.475415   -3.967691    1.843113
     11          1           0       -0.672437   -1.817597   -1.771161
     12          1           0       -0.636285   -2.066443    3.165877
     13          6           0        0.436077    1.734732   -0.373575
     14          6           0        1.278653    2.656860   -1.036588
     15          6           0        2.108692    2.253229   -2.058438
     16          6           0        2.111248    0.898967   -2.441176
     17          6           0        1.318672   -0.009687   -1.768780
     18          7           0       -0.538027    2.321712    0.499555
     19          8           0       -0.372600    3.513763    0.873302
     20          8           0       -1.537309    1.677733    0.846681
     21          1           0        1.229153    3.694893   -0.741858
     22          1           0        2.740994    2.973916   -2.563662
     23          1           0        2.759501    0.558528   -3.241318
     24          1           0        1.384419   -1.057229   -2.033634
 ---------------------------------------------------------------------

 SCF Done:  E(UB3LYP) =  -817.511225832     A.U. after    1 cycles

 Alpha  occ. eigenvalues --  -19.12689 -19.11916 -19.03933 -19.02330 -14.50887
 Alpha  occ. eigenvalues --  -10.21273 -10.19112 -10.18825 -10.17874 -10.17572
 Alpha  occ. eigenvalues --  -10.17300 -10.17019 -10.16931 -10.14995 -10.14064
 Alpha  occ. eigenvalues --  -10.13692 -10.12447  -1.18784  -1.01168  -0.95377
 Alpha  occ. eigenvalues --   -0.93049  -0.86694  -0.79682  -0.78838  -0.75957
 Alpha  occ. eigenvalues --   -0.70932  -0.67817  -0.65360  -0.61081  -0.58102
 Alpha  occ. eigenvalues --   -0.56699  -0.54384  -0.51896  -0.50190  -0.49192
 Alpha  occ. eigenvalues --   -0.48034  -0.45296  -0.44233  -0.43814  -0.42938
 Alpha  occ. eigenvalues --   -0.41851  -0.39649  -0.37516  -0.36876  -0.36559
 Alpha  occ. eigenvalues --   -0.35721  -0.35111  -0.33434  -0.32746  -0.32328
 Alpha  occ. eigenvalues --   -0.29789  -0.28798  -0.27191  -0.26426  -0.25647
 Alpha  occ. eigenvalues --   -0.23374  -0.21292  -0.20974  -0.20139  -0.12804
 Alpha virt. eigenvalues --   -0.07948  -0.02078   0.00094   0.00808   0.01051
 Alpha virt. eigenvalues --    0.01732   0.02426   0.02774   0.02990   0.03942
 Alpha virt. eigenvalues --    0.04880   0.05193   0.05699   0.06314   0.06641

  Beta  occ. eigenvalues --  -19.12689 -19.11916 -19.03933 -19.02330 -14.50887
  Beta  occ. eigenvalues --  -10.21273 -10.19112 -10.18825 -10.17874 -10.17572
  Beta  occ. eigenvalues --  -10.17300 -10.17019 -10.16931 -10.14995 -10.14064
  Beta  occ. eigenvalues --  -10.13692 -10.12447  -1.18784  -1.01168  -0.95377
  Beta  occ. eigenvalues --   -0.93049  -0.86694  -0.79682  -0.78838  -0.75957
  Beta  occ. eigenvalues --   -0.70932  -0.67817  -0.65360  -0.61081  -0.58102
  Beta  occ. eigenvalues --   -0.56699  -0.54384  -0.51896  -0.50190  -0.49192
  Beta  occ. eigenvalues --   -0.48034  -0.45296  -0.44233  -0.43814  -0.42938
  Beta  occ. eigenvalues --   -0.41851  -0.39649  -0.37516  -0.36876  -0.36559
  Beta  occ. eigenvalues --   -0.35721  -0.35111  -0.33434  -0.32746  -0.32328
  Beta  occ. eigenvalues --   -0.29789  -0.28798  -0.27191  -0.26426  -0.25647
  Beta  occ. eigenvalues --   -0.23374  -0.21292  -0.20974  -0.20139  -0.12804
  Beta virt. eigenvalues --   -0.07948  -0.02078   0.00094   0.00808   0.01051
  Beta virt. eigenvalues --    0.01732   0.02426   0.02774   0.02990   0.03942
  Beta virt. eigenvalues --    0.04880   0.05193   0.05699   0.06314   0.06641

 Mulliken charges and spin densities:
               1          2
     1  C   -1.523961  -0.000000
     2  C    1.972264  -0.000000
     3  C   -0.468528   0.000000
     4  C   -0.326284  -0.000000
     5  C   -0.087605  -0.000000
     6  C   -0.002514  -0.000000
     7  O   -0.557179  -0.000000
     8  O   -0.710921  -0.000000
     9  C    1.276042   0.000000
    10  H    0.158880   0.000000
    11  H    0.155349  -0.000000
    12  H    0.156736   0.000000
    13  C   -0.418694  -0.000000
    14  C   -0.383822   0.000000
    15  C   -0.413678  -0.000000
    16  C   -0.461164   0.000000
    17  C   -0.689628  -0.000000
    18  N   -0.187605   0.000000
    19  O   -0.147704   0.000000
    20  O   -0.125890   0.000000
    21  H    0.238271  -0.000000
    22  H    0.185006   0.000000
    23  H    0.184836  -0.000000
    24  H    0.177791   0.000000
 Sum of Mulliken charges =  -2.00000   0.00000

 Dipole moment (field-independent basis, Debye):
    X=              8.8800    Y=              8.5198    Z=             -6.8461  Tot=             14.0823
 Quadrupole moment (field-independent basis, Debye-Ang):
   XX=           -120.1024   YY=           -189.1867   ZZ=           -123.7321
   XY=            -18.0248   XZ=             -7.1584   YZ=            -22.5295

  Exact polarizability: 233.724 117.266 668.200 -74.684 -79.566 318.638
 Approx polarizability: 266.074 132.018 869.099 -84.320 -99.539 375.117

                      1                      2                      3
                      A                      A                      A
 Frequencies --     28.2799                68.0118                72.6284
 Red. masses --     13.9632                 5.8280                 6.5845
 Frc consts  --      0.0066                 0.0159                 0.0205
 IR Inten    --     40.7686                 7.1249                45.4082

                      4                      5                      6
                      A                      A                      A
 Frequencies --    104.5928               141.8075               163.8977
 Red. masses --      4.8792                 7.6358                 9.3837
 Frc consts  --      0.0314                 0.0905                 0.1485
 IR Inten    --      5.0508                29.2535                24.2814

                      7                      8                      9
                      A                      A                      A
 Frequencies --    203.6027               260.8202               282.7801
 Red. masses --      9.2992                 6.7926                 7.2133
 Frc consts  --      0.2271                 0.2723                 0.3398
 IR Inten    --      1.7576                 3.6441                 5.2908

                     10                     11                     12
                      A                      A                      A
 Frequencies --    327.4231               356.4059               397.8658
 Red. masses --      7.8402                 5.4273                 9.5821
 Frc consts  --      0.4952                 0.4062                 0.8937
 IR Inten    --      1.9920                 1.8493                16.6424

                     13                     14                     15
                      A                      A                      A
 Frequencies --    424.0652               440.5074               455.4170
 Red. masses --      6.2451                 3.9469                 8.3331
 Frc consts  --      0.6617                 0.4512                 1.0183
 IR Inten    --     24.5684                11.1401               461.1458

                     16                     17                     18
                      A                      A                      A
 Frequencies --    475.3084               523.4960               556.3746
 Red. masses --      5.5592                 3.0748                 5.2834
 Frc consts  --      0.7400                 0.4965                 0.9636
 IR Inten    --     97.2445                13.3837                 5.1538

                     19                     20                     21
                      A                      A                      A
 Frequencies --    578.9151               614.5253               644.1071
 Red. masses --      4.6640                 3.1414                 5.8963
 Frc consts  --      0.9210                 0.6990                 1.4413
 IR Inten    --     12.6416                29.0153                 1.5862

                     22                     23                     24
                      A                      A                      A
 Frequencies --    669.7662               683.4550               724.0846
 Red. masses --      6.3903                 5.3984                 7.1825
 Frc consts  --      1.6889                 1.4857                 2.2187
 IR Inten    --     28.0020                91.2467                68.4312

                     25                     26                     27
                      A                      A                      A
 Frequencies --    734.2229               760.5240               769.6890
 Red. masses --      2.7964                 2.4738                 1.6653
 Frc consts  --      0.8882                 0.8430                 0.5813
 IR Inten    --     58.9105                15.5819               106.5344

                     28                     29                     30
                      A                      A                      A
 Frequencies --    817.0343               823.0626               841.7157
 Red. masses --      5.2992                 2.1642                 1.9570
 Frc consts  --      2.0842                 0.8638                 0.8169
 IR Inten    --    141.4318                25.1754                72.8875

                     31                     32                     33
                      A                      A                      A
 Frequencies --    847.2507               871.0739               903.8730
 Red. masses --      7.2837                 1.5946                 5.2100
 Frc consts  --      3.0805                 0.7129                 2.5079
 IR Inten    --     47.9556                27.0938                25.7704

                     34                     35                     36
                      A                      A                      A
 Frequencies --    943.7861               977.8821               992.4711
 Red. masses --      1.3133                 1.3582                 1.3132
 Frc consts  --      0.6892                 0.7652                 0.7621
 IR Inten    --     35.0005                 9.5402                42.1217

                     37                     38                     39
                      A                      A                      A
 Frequencies --   1008.8852              1050.4764              1094.5730
 Red. masses --      3.1630                 2.6240                 2.5880
 Frc consts  --      1.8968                 1.7061                 1.8269
 IR Inten    --     64.1778               562.9930               850.8218

                     40                     41                     42
                      A                      A                      A
 Frequencies --   1104.1044              1116.8837              1168.6687
 Red. masses --      4.9281                 1.6034                 2.0050
 Frc consts  --      3.5396                 1.1784                 1.6134
 IR Inten    --   5188.8694               279.8285               405.1968

                     43                     44                     45
                      A                      A                      A
 Frequencies --   1180.2900              1209.1297              1234.8025
 Red. masses --      1.1889                 3.0063                 1.6396
 Frc consts  --      0.9759                 2.5896                 1.4729
 IR Inten    --    300.2899              1438.6124               115.6704

                     46                     47                     48
                      A                      A                      A
 Frequencies --   1248.0779              1275.5842              1331.9072
 Red. masses --      2.4845                 2.2619                 3.0643
 Frc consts  --      2.2802                 2.1684                 3.2028
 IR Inten    --    325.9076               123.3421               125.1240

                     49                     50                     51
                      A                      A                      A
 Frequencies --   1341.8087              1372.1360              1411.7278
 Red. masses --      4.1838                 9.0696                 6.1020
 Frc consts  --      4.4382                10.0608                 7.1651
 IR Inten    --     50.4285               216.9201               347.1110

                     52                     53                     54
                      A                      A                      A
 Frequencies --   1438.3585              1449.4139              1477.8234
 Red. masses --      3.1478                 2.8781                 4.3866
 Frc consts  --      3.8370                 3.5624                 5.6444
 IR Inten    --     81.9087               478.9016               405.4521

                     55                     56                     57
                      A                      A                      A
 Frequencies --   1485.2546              1496.7513              1569.9733
 Red. masses --      4.0219                 2.8556                 5.9052
 Frc consts  --      5.2274                 3.7691                 8.5757
 IR Inten    --    114.5141               386.4077               404.8960

                     58                     59                     60
                      A                      A                      A
 Frequencies --   1604.5336              1620.6615              3112.6720
 Red. masses --      6.2502                 5.4359                 1.0849
 Frc consts  --      9.4807                 8.4122                 6.1934
 IR Inten    --    601.1895                25.1253                64.3100

                     61                     62                     63
                      A                      A                      A
 Frequencies --   3129.3054              3136.3906              3164.4946
 Red. masses --      1.0880                 1.0933                 1.0867
 Frc consts  --      6.2773                 6.3367                 6.4116
 IR Inten    --     81.9278               182.4399                15.6590

                     64                     65                     66
                      A                      A                      A
 Frequencies --   3181.9995              3194.0106              3222.8318
 Red. masses --      1.0916                 1.0931                 1.0922
 Frc consts  --      6.5119                 6.5702                 6.6836
 IR Inten    --     34.9908                22.8233                 8.0123

 - Thermochemistry -
 -------------------
 Temperature   298.150 Kelvin.  Pressure   1.00000 Atm.
 Atom     1 has atomic number  6 and mass  12.00000

 Molecular mass:   229.03751 amu.
 Principal axes and moments of inertia in atomic units:
                           1         2         3
     Eigenvalues --  2215.511754941.281206395.95562
           X            0.32464  -0.42236   0.84630
           Y            0.92635   0.32265  -0.19433
           Z           -0.19098   0.84706   0.49600
 This molecule is an asymmetric top.
 Rotational symmetry number  1.
 Warning -- assumption of classical behavior for rotation
           may cause significant error
 Rotational temperatures (Kelvin)      0.03909     0.01753     0.01354
 Rotational constants (GHZ):           0.81459     0.36524     0.28217
 Zero-point vibrational energy     430142.8 (Joules/Mol)
                                  102.80659 (Kcal/Mol)
 Warning -- explicit consideration of  20 degrees of freedom as
           vibrations may cause significant error
 Vibrational temperatures:     40.69    97.85   104.50   150.49   204.03
          (Kelvin)            235.81   292.94   375.26   406.86   471.09
                              512.79   572.44   610.14   633.79   655.24
                              683.86   753.19   800.50   832.93   884.16
                              926.73   963.64   983.34  1041.80  1056.38
                             1094.22  1107.41  1175.53  1184.20  1211.04
                             1219.00  1253.28  1300.47  1357.90  1406.95
                             1427.94  1451.56  1511.40  1574.85  1588.56
                             1606.95  1681.45  1698.17  1739.67  1776.61
                             1795.71  1835.28  1916.32  1930.56  1974.20
                             2031.16  2069.48  2085.38  2126.26  2136.95
                             2153.49  2258.84  2308.57  2331.77  4478.44
                             4502.37  4512.57  4553.00  4578.19  4595.47
                             4636.94

 Zero-point correction=                           0.163833 (Hartree/Particle)
 Thermal correction to Energy=                    0.177020
 Thermal correction to Enthalpy=                  0.177964
 Thermal correction to Gibbs Free Energy=         0.122959
 Sum of electronic and zero-point Energies=           -817.347393
 Sum of electronic and thermal Energies=              -817.334206
 Sum of electronic and thermal Enthalpies=            -817.333262
 Sum of electronic and thermal Free Energies=         -817.388266

                     E (Thermal)             CV                S
                      KCal/Mol        Cal/Mol-Kelvin    Cal/Mol-Kelvin
 Total                  111.082             51.484            115.767
 Electronic               0.000              0.000              0.000
 Translational            0.889              2.981             42.188
 Rotational               0.889              2.981             32.615
 Vibrational            109.304             45.523             40.963
 Vibration     1          0.593              1.984              5.947
 Vibration     2          0.598              1.969              4.210
 Vibration     3          0.599              1.967              4.081
 Vibration     4          0.605              1.946              3.367
 Vibration     5          0.615              1.911              2.779
 Vibration     6          0.623              1.887              2.504
 Vibration     7          0.639              1.835              2.100
 Vibration     8          0.669              1.744              1.656
 Vibration     9          0.682              1.706              1.517
 Vibration    10          0.711              1.621              1.273
 Vibration    11          0.732              1.562              1.138
 Vibration    12          0.764              1.475              0.971
 Vibration    13          0.786              1.418              0.878
 Vibration    14          0.800              1.382              0.825
 Vibration    15          0.814              1.349              0.780
 Vibration    16          0.832              1.305              0.723
 Vibration    17          0.878              1.198              0.602
 Vibration    18          0.912              1.126              0.531
 Vibration    19          0.935              1.077              0.487
 Vibration    20          0.974              1.001              0.425

 Optimization completed.
    -- Stationary point found.
 Normal termination of Gaussian 16 at Sat Feb 10 14:21:12 2024.
