 Gaussian 16, Revision A.03,
 Gaussian 16:  ES64L-G16RevA.03 25-Dec-2016

 ----------------------------------------------------------------------
 #P UB3LYP/6-311++G(d,p) nosym opt freq SCRF=(PCM,Solvent=n,n-DiMethylF
 ormamide)
 ----------------------------------------------------------------------

 --------
 Oxidized
 --------
 Symbolic Z-matrix:
 Charge =  0 Multiplicity = 1

 SCF Done:  E(UB3LYP) =  -1389.24997177     A.U. after   17 cycles
 SCF Done:  E(UB3LYP) =  -1389.24959278     A.U. after   18 cycles
 SCF Done:  E(UB3LYP) =  -1389.25035382     A.U. after   17 cycles
 SCF Done:  E(UB3LYP) =  -1389.25064282     A.U. after   15 cycles
 SCF Done:  E(UB3LYP) =  -1389.25062622     A.U. after   14 cycles
 SCF Done:  E(UB3LYP) =  -1389.25065428     A.U. after   14 cycles
 SCF Done:  E(UB3LYP) =  -1389.25067633     A.U. after   13 cycles
 SCF Done:  E(UB3LYP) =  -1389.25067608     A.U. after   13 cycles
 SCF Done:  E(UB3LYP) =  -1389.25067663     A.U. after   13 cycles
 SCF Done:  E(UB3LYP) =  -1389.25067787     A.U. after   13 cycles
 SCF Done:  E(UB3LYP) =  -1389.25067793     A.U. after   11 cycles
 Optimization completed.
    -- Stationary point found.
 Normal termination of Gaussian 16 at Sat Feb 10 12:27:04 2024.

 ----------------------------------------------------------------------
 #P Geom=AllCheck Guess=TCheck SCRF=Check GenChk UB3LYP/6-311++G(d,p) F
 req
 ----------------------------------------------------------------------

 Structure from the checkpoint file:  "097.chk"
 --------
 Oxidized
 --------
 Charge =  0 Multiplicity = 1

                          Input orientation:
 ---------------------------------------------------------------------
 Center     Atomic      Atomic             Coordinates (Angstroms)
 Number     Number       Type             X           Y           Z
 ---------------------------------------------------------------------
      1          6           0        1.221284    4.242212    5.355115
      2          6           0        1.526034    4.051492    3.926622
      3          6           0        1.046397    3.001756    3.251194
      4          6           0        0.186627    1.985676    3.895708
      5          6           0       -0.111207    2.158602    5.354034
      6          6           0        0.362803    3.206053    6.046329
      7          8           0        1.633033    5.200949    5.982208
      8          8           0       -0.272285    1.054242    3.259847
      9          1           0        2.150418    4.807276    3.465389
     10          1           0        1.252231    2.842248    2.199364
     11         16           0       -1.106225    0.845876    6.162469
     12          6           0        0.195518    3.477394    7.526758
     13          8           0        1.017122    3.124403    8.335979
     14          8           0       -0.871532    4.226858    7.759582
     15          6           0       -1.109790    4.605870    9.140927
     16          1           0       -2.004425    5.220990    9.116141
     17          1           0       -0.260804    5.171547    9.522543
     18          1           0       -1.270638    3.712255    9.742752
     19          6           0       -2.695178    0.860061    5.332704
     20          6           0       -2.980387   -0.126341    4.390977
     21          6           0       -3.621686    1.842378    5.685495
     22          6           0       -4.235288   -0.125558    3.787225
     23          6           0       -4.867644    1.834798    5.064151
     24          6           0       -5.172771    0.852957    4.120318
     25          8           0       -0.430495   -0.433148    5.918718
     26          8           0       -1.311841    1.296388    7.546846
     27          1           0       -2.238493   -0.872409    4.141746
     28          1           0       -3.380008    2.588668    6.431630
     29          1           0       -4.478813   -0.888705    3.058034
     30          1           0       -5.600428    2.588921    5.324116
     31          1           0       -6.146105    0.849520    3.643838
 ---------------------------------------------------------------------

 SCF Done:  E(UB3LYP) =  -1389.25067793     A.U. after    2 cycles

 Alpha  occ. eigenvalues --  -89.08129 -19.19681 -19.16689 -19.16329 -19.14388
 Alpha  occ. eigenvalues --  -19.14382 -19.14293 -10.34199 -10.31516 -10.31460
 Alpha  occ. eigenvalues --  -10.26556 -10.26418 -10.23533 -10.23201 -10.23062
 Alpha  occ. eigenvalues --  -10.22938 -10.21037 -10.20837 -10.20161 -10.19946
 Alpha  occ. eigenvalues --  -10.19896  -8.14487  -6.10747  -6.10691  -6.10583
 Alpha  occ. eigenvalues --   -1.14287  -1.13744  -1.09813  -1.09544  -1.05515
 Alpha  occ. eigenvalues --   -1.03380  -0.89820  -0.89221  -0.83486  -0.80033
 Alpha  occ. eigenvalues --   -0.77842  -0.76903  -0.73607  -0.70898  -0.67086
 Alpha  occ. eigenvalues --   -0.64869  -0.63708  -0.60685  -0.59556  -0.56541
 Alpha  occ. eigenvalues --   -0.56088  -0.55029  -0.53245  -0.51353  -0.50896
 Alpha  occ. eigenvalues --   -0.50585  -0.49994  -0.49106  -0.48492  -0.47467
 Alpha  occ. eigenvalues --   -0.47027  -0.46799  -0.45783  -0.45203  -0.44988
 Alpha  occ. eigenvalues --   -0.44405  -0.43538  -0.41664  -0.40181  -0.39405
 Alpha  occ. eigenvalues --   -0.38430  -0.37554  -0.36983  -0.35926  -0.34770
 Alpha  occ. eigenvalues --   -0.34001  -0.33224  -0.33181  -0.32722  -0.31660
 Alpha  occ. eigenvalues --   -0.31513  -0.29733  -0.28659  -0.28280
 Alpha virt. eigenvalues --   -0.16011  -0.07465  -0.05225  -0.03756  -0.02963
 Alpha virt. eigenvalues --   -0.02683  -0.00909   0.00171   0.00368   0.01158
 Alpha virt. eigenvalues --    0.01511   0.01909   0.02337   0.02712   0.03177

  Beta  occ. eigenvalues --  -89.08129 -19.19681 -19.16689 -19.16329 -19.14388
  Beta  occ. eigenvalues --  -19.14382 -19.14293 -10.34199 -10.31516 -10.31460
  Beta  occ. eigenvalues --  -10.26556 -10.26418 -10.23533 -10.23201 -10.23062
  Beta  occ. eigenvalues --  -10.22938 -10.21037 -10.20837 -10.20161 -10.19946
  Beta  occ. eigenvalues --  -10.19896  -8.14487  -6.10747  -6.10691  -6.10583
  Beta  occ. eigenvalues --   -1.14287  -1.13744  -1.09813  -1.09544  -1.05515
  Beta  occ. eigenvalues --   -1.03380  -0.89820  -0.89221  -0.83486  -0.80033
  Beta  occ. eigenvalues --   -0.77842  -0.76903  -0.73607  -0.70898  -0.67086
  Beta  occ. eigenvalues --   -0.64869  -0.63708  -0.60685  -0.59556  -0.56541
  Beta  occ. eigenvalues --   -0.56088  -0.55029  -0.53245  -0.51353  -0.50896
  Beta  occ. eigenvalues --   -0.50585  -0.49994  -0.49106  -0.48492  -0.47467
  Beta  occ. eigenvalues --   -0.47027  -0.46799  -0.45783  -0.45203  -0.44988
  Beta  occ. eigenvalues --   -0.44405  -0.43538  -0.41664  -0.40181  -0.39405
  Beta  occ. eigenvalues --   -0.38430  -0.37554  -0.36983  -0.35926  -0.34770
  Beta  occ. eigenvalues --   -0.34001  -0.33224  -0.33181  -0.32722  -0.31660
  Beta  occ. eigenvalues --   -0.31513  -0.29733  -0.28659  -0.28280
  Beta virt. eigenvalues --   -0.16011  -0.07465  -0.05225  -0.03756  -0.02963
  Beta virt. eigenvalues --   -0.02683  -0.00909   0.00171   0.00368   0.01158
  Beta virt. eigenvalues --    0.01511   0.01909   0.02337   0.02712   0.03177

 Mulliken charges and spin densities:
               1          2
     1  C   -0.213745   0.000000
     2  C   -0.093698   0.000000
     3  C    0.194435  -0.000000
     4  C   -0.329842   0.000000
     5  C   -0.106006   0.000000
     6  C    0.549737  -0.000000
     7  O   -0.199521  -0.000000
     8  O   -0.193817   0.000000
     9  H    0.257670   0.000000
    10  H    0.264693  -0.000000
    11  S    0.522337  -0.000000
    12  C   -0.699559   0.000000
    13  O   -0.165508  -0.000000
    14  O    0.076492   0.000000
    15  C   -0.224232   0.000000
    16  H    0.175866  -0.000000
    17  H    0.187635   0.000000
    18  H    0.193404  -0.000000
    19  C    0.751747   0.000000
    20  C   -0.110067  -0.000000
    21  C   -0.422606  -0.000000
    22  C   -0.452018   0.000000
    23  C   -0.453852  -0.000000
    24  C   -0.329082   0.000000
    25  O   -0.144009  -0.000000
    26  O   -0.140197   0.000000
    27  H    0.265545  -0.000000
    28  H    0.184519  -0.000000
    29  H    0.221535  -0.000000
    30  H    0.231896   0.000000
    31  H    0.200251  -0.000000
 Sum of Mulliken charges =  -0.00000  -0.00000

 Dipole moment (field-independent basis, Debye):
    X=             -5.3554    Y=              4.6721    Z=             -5.5752  Tot=              9.0328
 Quadrupole moment (field-independent basis, Debye-Ang):
   XX=           -100.9793   YY=           -114.2513   ZZ=           -184.8056
   XY=            -13.5802   XZ=            -35.8485   YZ=             19.7233

  Exact polarizability: 276.485  40.075 283.756  32.454  65.743 265.360
 Approx polarizability: 308.758  38.838 362.133  49.893 100.061 312.373

                      1                      2                      3
                      A                      A                      A
 Frequencies --     18.7503                37.2644                40.4214
 Red. masses --      5.7265                 5.3997                 4.9514
 Frc consts  --      0.0012                 0.0044                 0.0048
 IR Inten    --      0.3305                 0.0764                 0.6380

                      4                      5                      6
                      A                      A                      A
 Frequencies --     63.1497                68.5487                83.5987
 Red. masses --      5.6708                 4.5747                 7.5570
 Frc consts  --      0.0133                 0.0127                 0.0311
 IR Inten    --      8.9425                 6.9617                 6.2455

                      7                      8                      9
                      A                      A                      A
 Frequencies --    113.2893               136.8788               145.3042
 Red. masses --      2.1843                 2.6555                 2.9655
 Frc consts  --      0.0165                 0.0293                 0.0369
 IR Inten    --      1.7992                 3.5085                 0.0517

                     10                     11                     12
                      A                      A                      A
 Frequencies --    161.9562               177.0669               197.2067
 Red. masses --      7.5409                 6.5282                 5.8813
 Frc consts  --      0.1165                 0.1206                 0.1348
 IR Inten    --      1.6472                 3.3916                 6.0804

                     13                     14                     15
                      A                      A                      A
 Frequencies --    208.6359               247.1081               252.4521
 Red. masses --      8.2851                11.9875                 7.8296
 Frc consts  --      0.2125                 0.4313                 0.2940
 IR Inten    --      2.1233                 5.3040                 5.0261

                     16                     17                     18
                      A                      A                      A
 Frequencies --    264.4797               293.1220               302.2547
 Red. masses --      4.7683                 5.4768                 8.4116
 Frc consts  --      0.1965                 0.2773                 0.4528
 IR Inten    --      2.1790                17.4432                 3.7906

                     19                     20                     21
                      A                      A                      A
 Frequencies --    311.2217               356.4185               409.1423
 Red. masses --      8.0517                 6.9401                 4.3307
 Frc consts  --      0.4595                 0.5194                 0.4271
 IR Inten    --     10.8191                14.0736                11.9369

                     22                     23                     24
                      A                      A                      A
 Frequencies --    410.4667               445.4524               453.3427
 Red. masses --      4.1698                10.9185                 5.5569
 Frc consts  --      0.4139                 1.2765                 0.6729
 IR Inten    --     11.4091                25.0969                23.0397

                     25                     26                     27
                      A                      A                      A
 Frequencies --    489.5647               504.3939               543.7177
 Red. masses --      7.3728                 9.2279                 5.8792
 Frc consts  --      1.0411                 1.3832                 1.0240
 IR Inten    --     64.9969                68.5719                19.3107

                     28                     29                     30
                      A                      A                      A
 Frequencies --    581.4841               593.7881               624.4086
 Red. masses --      6.3304                 7.8398                 6.4640
 Frc consts  --      1.2611                 1.6286                 1.4849
 IR Inten    --     83.2360               185.1529                 0.0443

                     31                     32                     33
                      A                      A                      A
 Frequencies --    638.8881               670.8022               696.9866
 Red. masses --      3.0027                 8.6055                 2.1043
 Frc consts  --      0.7221                 2.2815                 0.6023
 IR Inten    --      5.1689                19.9846                63.5302

                     34                     35                     36
                      A                      A                      A
 Frequencies --    707.4428               719.2253               763.7567
 Red. masses --      6.9288                 7.2133                 1.5979
 Frc consts  --      2.0431                 2.1984                 0.5492
 IR Inten    --     12.0807                80.6386                42.1206

                     37                     38                     39
                      A                      A                      A
 Frequencies --    790.8716               808.3016               851.7415
 Red. masses --      6.6129                 9.3460                 1.2476
 Frc consts  --      2.4370                 3.5977                 0.5333
 IR Inten    --     35.9415                 8.0882                 0.2444

                     40                     41                     42
                      A                      A                      A
 Frequencies --    859.4730               880.9827               905.6688
 Red. masses --      2.0964                10.0621                 6.9115
 Frc consts  --      0.9124                 4.6012                 3.3401
 IR Inten    --     76.5514                20.0361                39.2015

                     43                     44                     45
                      A                      A                      A
 Frequencies --    948.4424               975.9185               998.4193
 Red. masses --      1.3387                 7.5559                 1.3830
 Frc consts  --      0.7095                 4.2400                 0.8122
 IR Inten    --      0.2929                42.8970                 0.1451

                     46                     47                     48
                      A                      A                      A
 Frequencies --   1011.6850              1016.1066              1021.9646
 Red. masses --      6.2315                 1.2657                 1.3232
 Frc consts  --      3.7578                 0.7700                 0.8142
 IR Inten    --     11.6776                 0.0140                 0.1223

                     49                     50                     51
                      A                      A                      A
 Frequencies --   1035.1198              1054.5325              1075.1581
 Red. masses --      4.4856                 3.5011                 3.9796
 Frc consts  --      2.8318                 2.2939                 2.7104
 IR Inten    --     47.7631               149.8616               128.3146

                     52                     53                     54
                      A                      A                      A
 Frequencies --   1102.0844              1108.1118              1117.8571
 Red. masses --      1.7824                 3.5862                 1.6181
 Frc consts  --      1.2755                 2.5945                 1.1913
 IR Inten    --     73.7774               258.7744                78.1372

                     55                     56                     57
                      A                      A                      A
 Frequencies --   1164.2854              1182.7744              1199.1837
 Red. masses --      1.2775                 1.1106                 1.1596
 Frc consts  --      1.0203                 0.9154                 0.9825
 IR Inten    --      1.4911                 0.2031                 4.2817

                     58                     59                     60
                      A                      A                      A
 Frequencies --   1203.2063              1242.4178              1247.1943
 Red. masses --      1.5660                 4.5214                17.6687
 Frc consts  --      1.3357                 4.1121                16.1928
 IR Inten    --     10.9809               260.3771               493.9994

                     61                     62                     63
                      A                      A                      A
 Frequencies --   1280.0586              1293.6164              1332.3139
 Red. masses --      2.6331                 5.4608                 3.4815
 Frc consts  --      2.5420                 5.3841                 3.6411
 IR Inten    --    241.6749               258.5831                 1.6157

                     64                     65                     66
                      A                      A                      A
 Frequencies --   1348.3914              1390.4082              1466.4941
 Red. masses --      1.6529                 1.8043                 1.2201
 Frc consts  --      1.7707                 2.0551                 1.5460
 IR Inten    --      6.9945                 7.9495                23.0548

                     67                     68                     69
                      A                      A                      A
 Frequencies --   1475.6432              1476.3016              1482.3862
 Red. masses --      2.1369                 1.0442                 1.0431
 Frc consts  --      2.7416                 1.3409                 1.3505
 IR Inten    --     29.4296                17.0204                16.8238

                     70                     71                     72
                      A                      A                      A
 Frequencies --   1505.1129              1615.7527              1621.4506
 Red. masses --      1.9834                 5.3114                 5.7523
 Frc consts  --      2.6472                 8.1698                 8.9105
 IR Inten    --      4.5229                 8.2951                 0.1970

                     73                     74                     75
                      A                      A                      A
 Frequencies --   1642.8801              1681.2558              1711.4729
 Red. masses --     10.5797                 8.9597                12.0635
 Frc consts  --     16.8243                14.9214                20.8192
 IR Inten    --     36.0935                11.3998               947.9153

                     76                     77                     78
                      A                      A                      A
 Frequencies --   1716.5024              1764.3120              3064.4254
 Red. masses --     10.8476                11.7969                 1.0290
 Frc consts  --     18.8310                21.6357                 5.6934
 IR Inten    --     32.6940               594.6116                30.0558

                     79                     80                     81
                      A                      A                      A
 Frequencies --   3147.0028              3179.2514              3179.4928
 Red. masses --      1.1086                 1.0872                 1.1071
 Frc consts  --      6.4688                 6.4747                 6.5940
 IR Inten    --     17.0598                 1.0533                10.5801

                     82                     83                     84
                      A                      A                      A
 Frequencies --   3189.8353              3192.4563              3197.4762
 Red. masses --      1.0901                 1.0882                 1.0944
 Frc consts  --      6.5350                 6.5345                 6.5923
 IR Inten    --     11.8712                 0.4335                10.5976

                     85                     86                     87
                      A                      A                      A
 Frequencies --   3207.2359              3207.5356              3219.3886
 Red. masses --      1.1000                 1.0953                 1.0936
 Frc consts  --      6.6665                 6.6391                 6.6784
 IR Inten    --      0.1876                 5.9814                 4.2868

 - Thermochemistry -
 -------------------
 Temperature   298.150 Kelvin.  Pressure   1.00000 Atm.
 Atom     1 has atomic number  6 and mass  12.00000

 Molecular mass:   306.01981 amu.
 Principal axes and moments of inertia in atomic units:
                           1         2         3
     Eigenvalues --  4079.596847547.052309137.60318
           X            0.72602  -0.49926  -0.47291
           Y            0.59361   0.10781   0.79750
           Z            0.34717   0.85972  -0.37463
 This molecule is an asymmetric top.
 Rotational symmetry number  1.
 Warning -- assumption of classical behavior for rotation
           may cause significant error
 Rotational temperatures (Kelvin)      0.02123     0.01148     0.00948
 Rotational constants (GHZ):           0.44238     0.23913     0.19751
 Zero-point vibrational energy     568955.6 (Joules/Mol)
                                  135.98365 (Kcal/Mol)
 Warning -- explicit consideration of  29 degrees of freedom as
           vibrations may cause significant error
 Vibrational temperatures:     26.98    53.62    58.16    90.86    98.63
          (Kelvin)            120.28   163.00   196.94   209.06   233.02
                              254.76   283.74   300.18   355.53   363.22
                              380.53   421.74   434.88   447.78   512.81
                              588.66   590.57   640.91   652.26   704.37
                              725.71   782.29   836.63   854.33   898.38
                              919.22   965.13  1002.81  1017.85  1034.80
                             1098.88  1137.89  1162.97  1225.47  1236.59
                             1267.54  1303.06  1364.60  1404.13  1436.50
                             1455.59  1461.95  1470.38  1489.31  1517.24
                             1546.91  1585.65  1594.33  1608.35  1675.15
                             1701.75  1725.36  1731.15  1787.56  1794.43
                             1841.72  1861.23  1916.90  1940.03  2000.49
                             2109.96  2123.12  2124.07  2132.82  2165.52
                             2324.71  2332.91  2363.74  2418.95  2462.43
                             2469.66  2538.45  4409.02  4527.84  4574.23
                             4574.58  4589.46  4593.23  4600.46  4614.50
                             4614.93  4631.98

 Zero-point correction=                           0.216704 (Hartree/Particle)
 Thermal correction to Energy=                    0.235847
 Thermal correction to Enthalpy=                  0.236792
 Thermal correction to Gibbs Free Energy=         0.167335
 Sum of electronic and zero-point Energies=          -1389.033974
 Sum of electronic and thermal Energies=             -1389.014830
 Sum of electronic and thermal Enthalpies=           -1389.013886
 Sum of electronic and thermal Free Energies=        -1389.083343

                     E (Thermal)             CV                S
                      KCal/Mol        Cal/Mol-Kelvin    Cal/Mol-Kelvin
 Total                  147.997             70.314            146.184
 Electronic               0.000              0.000              0.000
 Translational            0.889              2.981             43.052
 Rotational               0.889              2.981             33.997
 Vibrational            146.219             64.353             69.135
 Vibration     1          0.593              1.986              6.762
 Vibration     2          0.594              1.982              5.399
 Vibration     3          0.594              1.981              5.238
 Vibration     4          0.597              1.972              4.356
 Vibration     5          0.598              1.969              4.195
 Vibration     6          0.600              1.960              3.805
 Vibration     7          0.607              1.938              3.212
 Vibration     8          0.614              1.917              2.847
 Vibration     9          0.617              1.908              2.733
 Vibration    10          0.622              1.889              2.527
 Vibration    11          0.628              1.871              2.359
 Vibration    12          0.637              1.844              2.159
 Vibration    13          0.642              1.828              2.056
 Vibration    14          0.661              1.768              1.751
 Vibration    15          0.664              1.759              1.713
 Vibration    16          0.671              1.738              1.632
 Vibration    17          0.688              1.687              1.456
 Vibration    18          0.694              1.669              1.404
 Vibration    19          0.700              1.652              1.356
 Vibration    20          0.732              1.562              1.138
 Vibration    21          0.774              1.450              0.930
 Vibration    22          0.775              1.448              0.925
 Vibration    23          0.805              1.371              0.810
 Vibration    24          0.812              1.354              0.786
 Vibration    25          0.845              1.273              0.685
 Vibration    26          0.860              1.240              0.647
 Vibration    27          0.899              1.153              0.557
 Vibration    28          0.938              1.071              0.483
 Vibration    29          0.951              1.045              0.460

                           ! Non-Optimized Parameters !
 Normal termination of Gaussian 16 at Sat Feb 10 14:29:45 2024.
