 Gaussian 16, Revision A.03,
 Gaussian 16:  ES64L-G16RevA.03 25-Dec-2016

 --------------------------------------
 #P UB3LYP/6-311++G(d,p) nosym opt freq
 --------------------------------------

 --------
 Oxidized
 --------
 Symbolic Z-matrix:
 Charge =  0 Multiplicity = 1

 SCF Done:  E(UB3LYP) =  -801.306302868     A.U. after   16 cycles
 SCF Done:  E(UB3LYP) =  -801.329802824     A.U. after   13 cycles
 SCF Done:  E(UB3LYP) =  -801.334952574     A.U. after   13 cycles
 SCF Done:  E(UB3LYP) =  -801.335458305     A.U. after   12 cycles
 SCF Done:  E(UB3LYP) =  -801.335512100     A.U. after   10 cycles
 SCF Done:  E(UB3LYP) =  -801.335515200     A.U. after   10 cycles
 SCF Done:  E(UB3LYP) =  -801.335515525     A.U. after    9 cycles
 Optimization completed.
    -- Stationary point found.
 Normal termination of Gaussian 16 at Sat Jan  6 01:55:23 2024.

 ----------------------------------------------------------------------
 #P Geom=AllCheck Guess=TCheck SCRF=Check GenChk UB3LYP/6-311++G(d,p) F
 req
 ----------------------------------------------------------------------

 Structure from the checkpoint file:  "336.chk"
 --------
 Oxidized
 --------
 Charge =  0 Multiplicity = 1

                          Input orientation:
 ---------------------------------------------------------------------
 Center     Atomic      Atomic             Coordinates (Angstroms)
 Number     Number       Type             X           Y           Z
 ---------------------------------------------------------------------
      1          8           0        0.152495    0.410326    2.639326
      2          6           0        0.082627    0.220460    1.416031
      3          6           0       -1.188923    0.113706    0.715947
      4          6           0       -2.425918    0.222471    1.404295
      5          6           0       -3.616339    0.112751    0.687673
      6          6           0       -3.594506   -0.101111   -0.687682
      7          6           0       -2.396697   -0.211692   -1.388077
      8          6           0       -1.206027   -0.102369   -0.674294
      9          8           0       -0.055567   -0.219045   -1.414541
     10          6           0        1.163397   -0.125676   -0.801030
     11          6           0        2.289061   -0.254153   -1.616748
     12          6           0        3.547953   -0.167218   -1.042845
     13          6           0        3.695346    0.046424    0.335654
     14          6           0        2.572884    0.172363    1.134580
     15          6           0        1.285921    0.088260    0.578301
     16          8           0       -2.470817    0.428960    2.732166
     17          1           0       -4.554759    0.196917    1.220543
     18          1           0       -4.520327   -0.186362   -1.244272
     19          8           0       -2.416805   -0.421778   -2.739313
     20          1           0        2.158630   -0.418837   -2.679127
     21          1           0        4.425548   -0.266238   -1.671315
     22          1           0        4.685168    0.112218    0.770647
     23          1           0        2.650187    0.337913    2.202167
     24          1           0       -1.540888    0.477732    3.054512
     25          1           0       -1.508768   -0.473180   -3.060772
 ---------------------------------------------------------------------

 SCF Done:  E(UB3LYP) =  -801.335515525     A.U. after    1 cycles

 Alpha  occ. eigenvalues --  -19.22018 -19.16809 -19.15042 -19.12629 -10.28349
 Alpha  occ. eigenvalues --  -10.27935 -10.27072 -10.25729 -10.25068 -10.21206
 Alpha  occ. eigenvalues --  -10.21141 -10.20753 -10.20688 -10.20558 -10.20026
 Alpha  occ. eigenvalues --  -10.19950 -10.18626  -1.14149  -1.07808  -1.07783
 Alpha  occ. eigenvalues --   -1.05019  -0.89555  -0.87892  -0.81124  -0.79973
 Alpha  occ. eigenvalues --   -0.77851  -0.75221  -0.69092  -0.68334  -0.63256
 Alpha  occ. eigenvalues --   -0.63078  -0.59398  -0.58735  -0.57186  -0.55120
 Alpha  occ. eigenvalues --   -0.51701  -0.50945  -0.49963  -0.49928  -0.46702
 Alpha  occ. eigenvalues --   -0.46587  -0.45771  -0.43727  -0.43627  -0.42846
 Alpha  occ. eigenvalues --   -0.42793  -0.42113  -0.40138  -0.39842  -0.38668
 Alpha  occ. eigenvalues --   -0.38087  -0.38075  -0.36919  -0.32586  -0.28975
 Alpha  occ. eigenvalues --   -0.28620  -0.28287  -0.26708  -0.22032
 Alpha virt. eigenvalues --   -0.09098  -0.04639  -0.03164  -0.01824  -0.00769
 Alpha virt. eigenvalues --   -0.00003   0.00425   0.00921   0.01746   0.02828
 Alpha virt. eigenvalues --    0.03323   0.03538   0.03951   0.04017   0.05798

  Beta  occ. eigenvalues --  -19.22018 -19.16809 -19.15042 -19.12629 -10.28349
  Beta  occ. eigenvalues --  -10.27935 -10.27072 -10.25729 -10.25068 -10.21206
  Beta  occ. eigenvalues --  -10.21141 -10.20753 -10.20688 -10.20558 -10.20026
  Beta  occ. eigenvalues --  -10.19950 -10.18626  -1.14149  -1.07808  -1.07783
  Beta  occ. eigenvalues --   -1.05019  -0.89555  -0.87892  -0.81124  -0.79973
  Beta  occ. eigenvalues --   -0.77851  -0.75221  -0.69092  -0.68334  -0.63256
  Beta  occ. eigenvalues --   -0.63078  -0.59398  -0.58735  -0.57186  -0.55120
  Beta  occ. eigenvalues --   -0.51701  -0.50945  -0.49963  -0.49928  -0.46702
  Beta  occ. eigenvalues --   -0.46587  -0.45771  -0.43727  -0.43627  -0.42846
  Beta  occ. eigenvalues --   -0.42793  -0.42113  -0.40138  -0.39842  -0.38668
  Beta  occ. eigenvalues --   -0.38087  -0.38075  -0.36919  -0.32586  -0.28975
  Beta  occ. eigenvalues --   -0.28620  -0.28287  -0.26708  -0.22032
  Beta virt. eigenvalues --   -0.09098  -0.04639  -0.03164  -0.01824  -0.00769
  Beta virt. eigenvalues --   -0.00003   0.00425   0.00921   0.01746   0.02828
  Beta virt. eigenvalues --    0.03323   0.03538   0.03951   0.04017   0.05798

 Mulliken charges and spin densities:
               1          2
     1  O   -0.314164  -0.000000
     2  C   -0.084677   0.000000
     3  C    1.344160   0.000000
     4  C   -0.118105  -0.000000
     5  C    0.057736  -0.000000
     6  C    0.080972   0.000000
     7  C   -1.112009   0.000000
     8  C   -0.496745  -0.000000
     9  O   -0.105222   0.000000
    10  C   -1.303074   0.000000
    11  C   -0.335723   0.000000
    12  C   -0.368853   0.000000
    13  C   -0.209229  -0.000000
    14  C    0.357478  -0.000000
    15  C    1.381888  -0.000000
    16  O   -0.272352   0.000000
    17  H    0.199136   0.000000
    18  H    0.206883   0.000000
    19  O   -0.241337  -0.000000
    20  H    0.176806   0.000000
    21  H    0.178823  -0.000000
    22  H    0.172227   0.000000
    23  H    0.208385   0.000000
    24  H    0.318428   0.000000
    25  H    0.278566  -0.000000
 Sum of Mulliken charges =  -0.00000   0.00000

 Dipole moment (field-independent basis, Debye):
    X=              2.9998    Y=             -0.4767    Z=             -3.0363  Tot=              4.2948
 Quadrupole moment (field-independent basis, Debye-Ang):
   XX=            -86.3734   YY=           -100.6497   ZZ=           -102.8567
   XY=             -0.2636   XZ=             -1.5584   YZ=             -0.3503

  Exact polarizability: 247.491  -1.133  82.711  -5.620  15.755 181.613
 Approx polarizability: 363.566  -1.163 132.676  -5.111  33.213 341.248

                      1                      2                      3
                      A                      A                      A
 Frequencies --     62.3451                90.1549               147.0811
 Red. masses --      6.4173                 5.6200                 7.1475
 Frc consts  --      0.0147                 0.0269                 0.0911
 IR Inten    --      0.9056                 0.0004                 0.2763

                      4                      5                      6
                      A                      A                      A
 Frequencies --    156.1976               188.0630               248.1321
 Red. masses --      6.6379                 5.8014                 5.7601
 Frc consts  --      0.0954                 0.1209                 0.2090
 IR Inten    --      0.0508                 0.3593                 0.1140

                      7                      8                      9
                      A                      A                      A
 Frequencies --    281.8728               296.1346               318.1937
 Red. masses --      8.0268                 6.1401                 1.1571
 Frc consts  --      0.3757                 0.3173                 0.0690
 IR Inten    --      0.0928                 0.4987               100.5920

                     10                     11                     12
                      A                      A                      A
 Frequencies --    336.1064               368.7725               397.6646
 Red. masses --      6.5398                 5.1559                10.1221
 Frc consts  --      0.4353                 0.4131                 0.9431
 IR Inten    --     15.0734                 4.0745                 6.2585

                     13                     14                     15
                      A                      A                      A
 Frequencies --    432.0739               436.9701               475.9129
 Red. masses --      3.5806                 6.7022                10.4986
 Frc consts  --      0.3938                 0.7540                 1.4010
 IR Inten    --      1.7340                 6.9123                 0.3559

                     16                     17                     18
                      A                      A                      A
 Frequencies --    486.9184               519.5863               531.9349
 Red. masses --      4.3005                 5.5150                 3.5499
 Frc consts  --      0.6007                 0.8772                 0.5918
 IR Inten    --      0.1284                19.3498                 4.8584

                     19                     20                     21
                      A                      A                      A
 Frequencies --    547.2892               613.6054               646.8452
 Red. masses --      9.4546                 4.2130                 7.4939
 Frc consts  --      1.6685                 0.9346                 1.8474
 IR Inten    --      2.2423                12.5549                 8.5202

                     22                     23                     24
                      A                      A                      A
 Frequencies --    651.3821               676.2202               682.8658
 Red. masses --      6.2961                 5.6980                 6.7090
 Frc consts  --      1.5740                 1.5351                 1.8432
 IR Inten    --     17.0656                 0.3846                13.2334

                     25                     26                     27
                      A                      A                      A
 Frequencies --    708.2698               759.9374               763.9594
 Red. masses --      4.5879                 7.6394                 1.7728
 Frc consts  --      1.3560                 2.5993                 0.6096
 IR Inten    --      3.1891                15.2331                 0.3529

                     28                     29                     30
                      A                      A                      A
 Frequencies --    772.1569               792.7591               840.5032
 Red. masses --      1.2046                 2.2048                 1.4974
 Frc consts  --      0.4232                 0.8164                 0.6232
 IR Inten    --    184.6368                 2.2372                19.4474

                     31                     32                     33
                      A                      A                      A
 Frequencies --    860.1776               877.2843               914.7376
 Red. masses --      7.1637                 1.4466                 7.1384
 Frc consts  --      3.1229                 0.6560                 3.5192
 IR Inten    --      0.5324                 1.0006                43.0015

                     34                     35                     36
                      A                      A                      A
 Frequencies --    953.0432               980.5699              1002.7757
 Red. masses --      1.3118                 1.3527                 1.3073
 Frc consts  --      0.7020                 0.7663                 0.7745
 IR Inten    --      0.4091                 1.4470                 0.1356

                     37                     38                     39
                      A                      A                      A
 Frequencies --   1014.9284              1043.9339              1071.0143
 Red. masses --      5.7733                 2.4964                 2.0834
 Frc consts  --      3.5038                 1.6029                 1.4080
 IR Inten    --     66.1116                 2.8602                24.6141

                     40                     41                     42
                      A                      A                      A
 Frequencies --   1129.6914              1172.0392              1182.3995
 Red. masses --      1.9209                 1.2919                 1.4597
 Frc consts  --      1.4444                 1.0456                 1.2024
 IR Inten    --     31.0972                 8.9893                 6.6341

                     43                     44                     45
                      A                      A                      A
 Frequencies --   1191.0016              1226.5338              1250.3742
 Red. masses --      1.7665                 3.0231                 2.4325
 Frc consts  --      1.4763                 2.6796                 2.2407
 IR Inten    --     72.9026               190.4432                60.1845

                     46                     47                     48
                      A                      A                      A
 Frequencies --   1255.1082              1295.5509              1331.0291
 Red. masses --      2.2189                 2.1194                 3.9775
 Frc consts  --      2.0595                 2.0959                 4.1518
 IR Inten    --    162.4911               146.3581                25.4662

                     49                     50                     51
                      A                      A                      A
 Frequencies --   1343.1255              1358.5804              1400.3780
 Red. masses --      2.6045                 8.5101                 3.8920
 Frc consts  --      2.7682                 9.2546                 4.4969
 IR Inten    --     54.5997                19.6341                43.8708

                     52                     53                     54
                      A                      A                      A
 Frequencies --   1406.1213              1486.3256              1495.5075
 Red. masses --      2.4481                 3.4389                 2.7719
 Frc consts  --      2.8518                 4.4761                 3.6527
 IR Inten    --    246.4675                66.9227               179.7833

                     55                     56                     57
                      A                      A                      A
 Frequencies --   1506.1050              1520.5141              1610.8742
 Red. masses --      3.1302                 2.3857                 6.6143
 Frc consts  --      4.1834                 3.2498                10.1125
 IR Inten    --    143.4996               195.4098                16.8460

                     58                     59                     60
                      A                      A                      A
 Frequencies --   1634.3699              1642.6651              1665.9161
 Red. masses --      5.0844                 6.4980                 8.9736
 Frc consts  --      8.0019                10.3307                14.6731
 IR Inten    --     74.1518               280.1858               126.4620

                     61                     62                     63
                      A                      A                      A
 Frequencies --   1687.1018              3174.9636              3188.1858
 Red. masses --      6.6450                 1.0870                 1.0889
 Frc consts  --     11.1437                 6.4557                 6.5211
 IR Inten    --    187.4613                 2.7510                 3.2403

                     64                     65                     66
                      A                      A                      A
 Frequencies --   3188.5251              3198.2757              3203.5845
 Red. masses --      1.0900                 1.0940                 1.0963
 Frc consts  --      6.5294                 6.5933                 6.6290
 IR Inten    --      6.2505                 2.2062                 8.5054

                     67                     68                     69
                      A                      A                      A
 Frequencies --   3204.5143              3389.0095              3812.5897
 Red. masses --      1.0942                 1.0682                 1.0657
 Frc consts  --      6.6203                 7.2282                 9.1266
 IR Inten    --      1.3610               287.8428                68.9505

 - Thermochemistry -
 -------------------
 Temperature   298.150 Kelvin.  Pressure   1.00000 Atm.
 Atom     1 has atomic number  8 and mass  15.99491

 Molecular mass:   228.04226 amu.
 Principal axes and moments of inertia in atomic units:
                           1         2         3
     Eigenvalues --  2134.859784462.222226597.08193
           X            0.99861   0.05264   0.00154
           Y           -0.00960   0.15327   0.98814
           Z           -0.05178   0.98678  -0.15356
 This molecule is an asymmetric top.
 Rotational symmetry number  1.
 Warning -- assumption of classical behavior for rotation
           may cause significant error
 Rotational temperatures (Kelvin)      0.04057     0.01941     0.01313
 Rotational constants (GHZ):           0.84537     0.40445     0.27357
 Zero-point vibrational energy     479100.4 (Joules/Mol)
                                  114.50775 (Kcal/Mol)
 Warning -- explicit consideration of  20 degrees of freedom as
           vibrations may cause significant error
 Vibrational temperatures:     89.70   129.71   211.62   224.73   270.58
          (Kelvin)            357.01   405.55   426.07   457.81   483.58
                              530.58   572.15   621.66   628.70   684.73
                              700.57   747.57   765.34   787.43   882.84
                              930.67   937.19   972.93   982.49  1019.04
                             1093.38  1099.17  1110.96  1140.60  1209.30
                             1237.60  1262.22  1316.10  1371.22  1410.82
                             1442.77  1460.26  1501.99  1540.95  1625.37
                             1686.30  1701.21  1713.59  1764.71  1799.01
                             1805.82  1864.01  1915.05  1932.46  1954.69
                             2014.83  2023.09  2138.49  2151.70  2166.95
                             2187.68  2317.69  2351.49  2363.43  2396.88
                             2427.36  4568.06  4587.09  4587.58  4601.61
                             4609.24  4610.58  4876.03  5485.47

 Zero-point correction=                           0.182480 (Hartree/Particle)
 Thermal correction to Energy=                    0.194936
 Thermal correction to Enthalpy=                  0.195880
 Thermal correction to Gibbs Free Energy=         0.144017
 Sum of electronic and zero-point Energies=           -801.153036
 Sum of electronic and thermal Energies=              -801.140580
 Sum of electronic and thermal Enthalpies=            -801.139635
 Sum of electronic and thermal Free Energies=         -801.191499

                     E (Thermal)             CV                S
                      KCal/Mol        Cal/Mol-Kelvin    Cal/Mol-Kelvin
 Total                  122.324             51.127            109.155
 Electronic               0.000              0.000              0.000
 Translational            0.889              2.981             42.175
 Rotational               0.889              2.981             32.508
 Vibrational            120.547             45.166             34.472
 Vibration     1          0.597              1.972              4.382
 Vibration     2          0.602              1.956              3.657
 Vibration     3          0.617              1.906              2.710
 Vibration     4          0.620              1.896              2.595
 Vibration     5          0.633              1.856              2.247
 Vibration     6          0.662              1.766              1.744
 Vibration     7          0.681              1.707              1.522
 Vibration     8          0.690              1.681              1.439
 Vibration     9          0.705              1.639              1.319
 Vibration    10          0.717              1.603              1.231
 Vibration    11          0.741              1.536              1.085
 Vibration    12          0.764              1.475              0.971
 Vibration    13          0.793              1.400              0.852
 Vibration    14          0.797              1.390              0.836
 Vibration    15          0.833              1.303              0.721
 Vibration    16          0.843              1.279              0.692
 Vibration    17          0.875              1.207              0.611
 Vibration    18          0.887              1.179              0.583
 Vibration    19          0.902              1.146              0.550
 Vibration    20          0.973              1.003              0.427

 Optimization completed.
    -- Stationary point found.
 Normal termination of Gaussian 16 at Sat Jan  6 02:20:27 2024.
