 Gaussian 16, Revision A.03,
 Gaussian 16:  ES64L-G16RevA.03 25-Dec-2016

 ----------------------------------------------------------------
 #P UB3LYP/6-311++G(d,p) SCRF=(PCM,Solvent=n,n-DiMethylFormamide)
 ----------------------------------------------------------------

 ------------------
 Radical PCM in DMF
 ------------------
 Symbolic Z-matrix:
 Charge = -1 Multiplicity = 2

                         Standard orientation:
 ---------------------------------------------------------------------
 Center     Atomic      Atomic             Coordinates (Angstroms)
 Number     Number       Type             X           Y           Z
 ---------------------------------------------------------------------
      1          6           0       -4.979134   -0.503249   -0.369399
      2          6           0       -3.658384   -0.748490    0.307792
      3          8           0       -3.463230   -0.745548    1.494826
      4          8           0       -2.702724   -1.033660   -0.623119
      5          6           0       -1.354759   -0.950106   -0.259184
      6          6           0       -0.685595   -2.147583   -0.135547
      7          6           0        0.685727   -2.147533    0.135270
      8          6           0        1.354765   -0.950000    0.258999
      9          8           0        2.702653   -1.033388    0.623284
     10          6           0        3.658574   -0.748579   -0.307467
     11          6           0        4.979012   -0.502739    0.370096
     12          8           0        3.463812   -0.746295   -1.494568
     13          6           0        0.708244    0.302470    0.126368
     14          6           0        1.453561    1.576379    0.244148
     15          8           0        2.699309    1.632110    0.433262
     16          6           0        0.674161    2.774599    0.116287
     17          6           0       -0.674499    2.774544   -0.116252
     18          6           0       -1.453729    1.576256   -0.244506
     19          8           0       -2.699430    1.631870   -0.433927
     20          6           0       -0.708301    0.302415   -0.126690
     21          1           0       -5.784795   -0.557257    0.361671
     22          1           0       -4.928472    0.498541   -0.801377
     23          1           0       -5.141658   -1.219682   -1.177274
     24          1           0       -1.236695   -3.072939   -0.251622
     25          1           0        1.236893   -3.072840    0.251427
     26          1           0        5.141726   -1.219295    1.177833
     27          1           0        4.927581    0.498893    0.802340
     28          1           0        5.784902   -0.556102   -0.360763
     29          1           0        1.226831    3.704889    0.207203
     30          1           0       -1.227285    3.704782   -0.206992
 ---------------------------------------------------------------------

 SCF Done:  E(UB3LYP) =  -991.298265592     A.U. after   17 cycles

 The electronic state is 2-A.
 Alpha  occ. eigenvalues --  -19.17340 -19.17339 -19.12066 -19.12066 -19.08069
 Alpha  occ. eigenvalues --  -19.08069 -10.31302 -10.31301 -10.24471 -10.24470
 Alpha  occ. eigenvalues --  -10.23108 -10.23107 -10.19486 -10.19446 -10.18490
 Alpha  occ. eigenvalues --  -10.18437 -10.17296 -10.17296 -10.16730 -10.16665
 Alpha  occ. eigenvalues --   -1.11779  -1.11746  -1.03748  -1.03691  -1.00673
 Alpha  occ. eigenvalues --   -1.00449  -0.87331  -0.81381  -0.78915  -0.75709
 Alpha  occ. eigenvalues --   -0.75593  -0.72993  -0.68776  -0.65806  -0.63538
 Alpha  occ. eigenvalues --   -0.60902  -0.60096  -0.52764  -0.51910  -0.51601
 Alpha  occ. eigenvalues --   -0.49904  -0.49791  -0.48860  -0.48837  -0.47543
 Alpha  occ. eigenvalues --   -0.47096  -0.46258  -0.44447  -0.42889  -0.42872
 Alpha  occ. eigenvalues --   -0.41713  -0.41390  -0.41306  -0.40892  -0.39580
 Alpha  occ. eigenvalues --   -0.39284  -0.38674  -0.38313  -0.37846  -0.37065
 Alpha  occ. eigenvalues --   -0.36814  -0.35486  -0.32761  -0.32461  -0.29249
 Alpha  occ. eigenvalues --   -0.29139  -0.28313  -0.26426  -0.25706  -0.24671
 Alpha  occ. eigenvalues --   -0.24082  -0.15947
 Alpha virt. eigenvalues --   -0.04113  -0.02958  -0.00348  -0.00153  -0.00147
 Alpha virt. eigenvalues --    0.00348   0.01079   0.01635   0.02989   0.03116
 Alpha virt. eigenvalues --    0.03303   0.03917   0.03943   0.04461   0.05027

  Beta  occ. eigenvalues --  -19.17336 -19.17335 -19.12065 -19.12064 -19.07418
  Beta  occ. eigenvalues --  -19.07418 -10.31299 -10.31299 -10.24462 -10.24460
  Beta  occ. eigenvalues --  -10.22968 -10.22967 -10.19432 -10.19391 -10.18443
  Beta  occ. eigenvalues --  -10.18389 -10.17297 -10.17296 -10.16595 -10.16529
  Beta  occ. eigenvalues --   -1.11768  -1.11735  -1.03733  -1.03679  -0.99557
  Beta  occ. eigenvalues --   -0.99302  -0.87153  -0.80847  -0.78835  -0.75689
  Beta  occ. eigenvalues --   -0.75380  -0.72897  -0.67921  -0.65766  -0.63154
  Beta  occ. eigenvalues --   -0.60652  -0.60034  -0.52587  -0.51656  -0.51484
  Beta  occ. eigenvalues --   -0.49778  -0.49769  -0.48782  -0.48779  -0.47354
  Beta  occ. eigenvalues --   -0.47048  -0.46110  -0.44388  -0.42750  -0.42327
  Beta  occ. eigenvalues --   -0.41389  -0.41360  -0.40866  -0.40462  -0.39091
  Beta  occ. eigenvalues --   -0.38975  -0.38236  -0.38182  -0.37038  -0.36614
  Beta  occ. eigenvalues --   -0.35522  -0.34793  -0.32666  -0.32279  -0.29232
  Beta  occ. eigenvalues --   -0.29127  -0.25904  -0.25308  -0.25048  -0.24079
  Beta  occ. eigenvalues --   -0.23501
  Beta virt. eigenvalues --   -0.09328  -0.03301  -0.01798  -0.00294  -0.00086
  Beta virt. eigenvalues --   -0.00079   0.00360   0.01096   0.01641   0.03008
  Beta virt. eigenvalues --    0.03290   0.03336   0.03933   0.03986   0.05038

 Mulliken charges and spin densities:
               1          2
     1  C   -0.484050   0.003602
     2  C    0.054493  -0.002167
     3  O   -0.285610  -0.000210
     4  O   -0.004899  -0.001914
     5  C   -0.551042   0.042961
     6  C    0.108653   0.029719
     7  C    0.108658   0.029717
     8  C   -0.551211   0.042966
     9  O   -0.004900  -0.001913
    10  C    0.054668  -0.002181
    11  C   -0.484066   0.003607
    12  O   -0.285608  -0.000210
    13  C    0.508241   0.030533
    14  C   -0.210998   0.080325
    15  O   -0.453290   0.238107
    16  C   -0.123158   0.091707
    17  C   -0.122394   0.091731
    18  C   -0.211106   0.080304
    19  O   -0.453293   0.238100
    20  C    0.507884   0.030543
    21  H    0.161693  -0.000270
    22  H    0.205060  -0.000758
    23  H    0.173221   0.000347
    24  H    0.214071  -0.002966
    25  H    0.214066  -0.002966
    26  H    0.173221   0.000346
    27  H    0.205063  -0.000758
    28  H    0.161693  -0.000270
    29  H    0.187468  -0.009017
    30  H    0.187472  -0.009017
 Sum of Mulliken charges =  -1.00000   1.00000

 Dipole moment (field-independent basis, Debye):
    X=             -0.0010    Y=             -5.6498    Z=              0.0019  Tot=              5.6498
 Quadrupole moment (field-independent basis, Debye-Ang):
   XX=           -141.0586   YY=           -120.2373   ZZ=           -132.3429
   XY=              0.0049   XZ=             13.5581   YZ=             -0.0007

 Normal termination of Gaussian 16 at Sun Jan 21 08:30:10 2024.
