 Q-Chem 5.4, Q-Chem, Inc., Pleasanton, CA (2021)
 Q-Chem 5.4.0 for Intel X86 EM64T Linux

User input:
--------------------------------------------------------------
$molecule
-1 2
O                  0.0972680000      2.9570470000      0.8939730000
C                  0.0577590000      1.7507730000      0.5292690000
C                  1.1876510000      0.8434790000      0.3184560000
C                  2.5660370000      1.0632080000      0.4600950000
C                  3.4551670000      0.0271460000      0.1974970000
C                  2.9869140000     -1.2413020000     -0.2093760000
C                  1.6173450000     -1.4740860000     -0.3544750000
C                  0.7125120000     -0.4442550000     -0.0946180000
C                 -0.7392260000     -0.3790530000     -0.1545830000
C                 -1.7090920000     -1.3234090000     -0.4916000000
C                 -3.0596150000     -0.9667390000     -0.4582230000
C                 -3.4433480000      0.3395730000     -0.0863910000
C                 -2.4882600000      1.2923230000      0.2522440000
C                 -1.1290970000      0.9484300000      0.2231290000
H                  2.9207380000      2.0403480000      0.7732140000
H                  4.5241920000      0.1902340000      0.3051680000
H                  3.6961270000     -2.0387390000     -0.4100750000
H                  1.2646380000     -2.4534100000     -0.6680910000
H                 -1.4232060000     -2.3319400000     -0.7791880000
H                 -3.8188140000     -1.6978820000     -0.7195720000
H                 -4.4982420000      0.5995760000     -0.0658650000
H                 -2.7774490000      2.2986770000      0.5390110000
$end
$rem
MAX_SCF_CYCLES=200
BASIS  =  6-311++G(d,p)
GUI  =  2
JOB_TYPE  =  SP
METHOD  =  B3LYP
SOLVENT_METHOD = PCM
$end
$pcm
theory = CPCM
$end
$solvent
dielectric 37.219
opticaldielectric 1.43
$end

--------------------------------------------------------------

             Standard Nuclear Orientation (Angstroms)
    I     Atom           X                Y                Z
 ----------------------------------------------------------------
    1      O       0.0972680000     2.9570470000     0.8939730000
    2      C       0.0577590000     1.7507730000     0.5292690000
    3      C       1.1876510000     0.8434790000     0.3184560000
    4      C       2.5660370000     1.0632080000     0.4600950000
    5      C       3.4551670000     0.0271460000     0.1974970000
    6      C       2.9869140000    -1.2413020000    -0.2093760000
    7      C       1.6173450000    -1.4740860000    -0.3544750000
    8      C       0.7125120000    -0.4442550000    -0.0946180000
    9      C      -0.7392260000    -0.3790530000    -0.1545830000
   10      C      -1.7090920000    -1.3234090000    -0.4916000000
   11      C      -3.0596150000    -0.9667390000    -0.4582230000
   12      C      -3.4433480000     0.3395730000    -0.0863910000
   13      C      -2.4882600000     1.2923230000     0.2522440000
   14      C      -1.1290970000     0.9484300000     0.2231290000
   15      H       2.9207380000     2.0403480000     0.7732140000
   16      H       4.5241920000     0.1902340000     0.3051680000
   17      H       3.6961270000    -2.0387390000    -0.4100750000
   18      H       1.2646380000    -2.4534100000    -0.6680910000
   19      H      -1.4232060000    -2.3319400000    -0.7791880000
   20      H      -3.8188140000    -1.6978820000    -0.7195720000
   21      H      -4.4982420000     0.5995760000    -0.0658650000
   22      H      -2.7774490000     2.2986770000     0.5390110000
 ----------------------------------------------------------------

    8    -575.7071724840      8.16e-06  Convergence criterion met
 Total energy in the final basis set =     -575.7071724840

                    Orbital Energies (a.u.)
 --------------------------------------------------------------

 Alpha MOs
 -- Occupied --
-19.0672 -10.2028 -10.1651 -10.1651 -10.1637 -10.1633 -10.1624 -10.1623
-10.1618 -10.1618 -10.1612 -10.1611 -10.1524 -10.1524  -0.9863  -0.8686
 -0.8323  -0.7826  -0.7486  -0.7330  -0.7013  -0.6505  -0.6158  -0.5769
 -0.5616  -0.5421  -0.4957  -0.4860  -0.4599  -0.4329  -0.4329  -0.4189
 -0.4124  -0.4092  -0.4044  -0.3934  -0.3547  -0.3532  -0.3498  -0.3493
 -0.3268  -0.3215  -0.2841  -0.2564  -0.2487  -0.2308  -0.2093  -0.1259

 Beta MOs
 -- Occupied --
-19.0609 -10.1993 -10.1657 -10.1656 -10.1622 -10.1621 -10.1621 -10.1618
-10.1612 -10.1611 -10.1596 -10.1595 -10.1519 -10.1519  -0.9743  -0.8648
 -0.8305  -0.7786  -0.7456  -0.7310  -0.6996  -0.6433  -0.6140  -0.5739
 -0.5604  -0.5390  -0.4924  -0.4847  -0.4579  -0.4311  -0.4309  -0.4180
 -0.4107  -0.4032  -0.3944  -0.3896  -0.3532  -0.3511  -0.3447  -0.3263
 -0.3262  -0.3201  -0.2740  -0.2423  -0.2400  -0.2251  -0.2045

          Ground-State Mulliken Net Atomic Charges

     Atom                 Charge (a.u.)    Spin (a.u.)
  --------------------------------------------------------
      1 O                    -0.579534       0.235810
      2 C                    -0.178404       0.229066
      3 C                     0.674381       0.029582
      4 C                    -0.237770       0.092811
      5 C                    -0.359778      -0.020315
      6 C                    -0.352894       0.135945
      7 C                    -0.513531      -0.053922
      8 C                    -0.005367       0.095433
      9 C                    -0.007129       0.094780
     10 C                    -0.515995      -0.053592
     11 C                    -0.349130       0.135431
     12 C                    -0.362381      -0.020096
     13 C                    -0.242441       0.092848
     14 C                     0.680616       0.029766
     15 H                     0.156974      -0.004994
     16 H                     0.181556      -0.000312
     17 H                     0.191087      -0.009548
     18 H                     0.145047       0.003079
     19 H                     0.145104       0.003064
     20 H                     0.191189      -0.009515
     21 H                     0.181532      -0.000331
     22 H                     0.156868      -0.004990
  --------------------------------------------------------
  Sum of atomic charges =    -1.000000

                    Cartesian Multipole Moments
 -----------------------------------------------------------------
    Charge (ESU x 10^10)
                -4.8032
    Dipole Moment (Debye)
         X      -0.2878      Y      -8.7320      Z      -2.6389
       Tot       9.1265
    Quadrupole Moments (Debye-Ang)
        XX     -87.9297     XY      -0.6736     YY    -107.2865
        XZ      -0.0342     YZ      -4.9458     ZZ     -92.4293

 Total job time:  39.65s(wall), 227.13s(cpu)
        *  Thank you very much for using Q-Chem.  Have a nice day.  *
