 Q-Chem 5.4, Q-Chem, Inc., Pleasanton, CA (2021)
 Q-Chem 5.4.0 for Intel X86 EM64T Linux

User input:
--------------------------------------------------------------
$molecule
-2 1
C                 -4.4363580000     -0.5323060000     -3.5517020000
C                 -3.5501230000     -0.9481190000     -4.5284010000
C                 -2.1581250000     -0.8071200000     -4.3208310000
C                 -3.9918150000      0.0347360000     -2.3346210000
C                 -2.5829080000      0.1743360000     -2.1260890000
C                 -1.6979100000     -0.2558860000     -3.1376170000
C                 -4.9768160000      0.4562550000     -1.3378180000
C                 -4.4384090000      1.0099600000     -0.1374460000
C                 -3.0313210000      1.1591940000      0.0496560000
C                 -2.0340870000      0.7639670000     -0.8992960000
O                 -6.2380310000      0.3183970000     -1.5565870000
O                 -0.7781960000      0.8788870000     -0.7172070000
H                 -5.5100960000     -0.6247590000     -3.6786100000
H                 -3.9212780000     -1.3820890000     -5.4550360000
H                 -1.4551240000     -1.1323420000     -5.0849490000
H                 -0.6374830000     -0.1324590000     -2.9425110000
C                 -5.4313030000      1.4259290000      0.9181940000
S                 -2.4451230000      2.0592730000      1.4896410000
C                 -1.6561890000      0.8837340000      2.5627180000
C                 -1.3267340000      1.2725940000      3.8519250000
C                 -0.6922040000      0.3893340000      4.7578000000
C                 -0.3801560000     -0.9439910000      4.3291720000
C                 -0.7216010000     -1.3138020000      3.0005460000
C                 -1.3355720000     -0.4378540000      2.1393860000
C                 -0.3542030000      0.7653200000      6.0878080000
C                  0.2642960000     -0.1153040000      6.9477060000
C                  0.5705630000     -1.4298450000      6.5223980000
C                  0.2502960000     -1.8273880000      5.2416710000
H                 -5.4989730000      2.5191790000      1.0247840000
H                 -5.1676980000      1.0358430000      1.9082800000
H                 -6.4141050000      1.0542840000      0.6207220000
H                 -1.5679610000      2.2777330000      4.1881090000
H                 -0.4768850000     -2.3167940000      2.6603960000
H                 -1.5744880000     -0.7231990000      1.1239580000
H                 -0.5900330000      1.7739580000      6.4171260000
H                  0.5220700000      0.1958420000      7.9573800000
H                  1.0586690000     -2.1181650000      7.2074300000
H                  0.4824250000     -2.8361770000      4.9095450000
$end
$rem
MAX_SCF_CYCLES=200
BASIS  =  6-311++G(d,p)
GUI  =  2
JOB_TYPE  =  SP
METHOD  =  B3LYP
SCF_ALGORITHM = DIIS_GDM
THRESH = 14
SOLVENT_METHOD = PCM
$end
$pcm
theory = CPCM
$end
$solvent
dielectric 37.219
opticaldielectric 1.43
$end

--------------------------------------------------------------

             Standard Nuclear Orientation (Angstroms)
    I     Atom           X                Y                Z
 ----------------------------------------------------------------
    1      C      -4.4363580000    -0.5323060000    -3.5517020000
    2      C      -3.5501230000    -0.9481190000    -4.5284010000
    3      C      -2.1581250000    -0.8071200000    -4.3208310000
    4      C      -3.9918150000     0.0347360000    -2.3346210000
    5      C      -2.5829080000     0.1743360000    -2.1260890000
    6      C      -1.6979100000    -0.2558860000    -3.1376170000
    7      C      -4.9768160000     0.4562550000    -1.3378180000
    8      C      -4.4384090000     1.0099600000    -0.1374460000
    9      C      -3.0313210000     1.1591940000     0.0496560000
   10      C      -2.0340870000     0.7639670000    -0.8992960000
   11      O      -6.2380310000     0.3183970000    -1.5565870000
   12      O      -0.7781960000     0.8788870000    -0.7172070000
   13      H      -5.5100960000    -0.6247590000    -3.6786100000
   14      H      -3.9212780000    -1.3820890000    -5.4550360000
   15      H      -1.4551240000    -1.1323420000    -5.0849490000
   16      H      -0.6374830000    -0.1324590000    -2.9425110000
   17      C      -5.4313030000     1.4259290000     0.9181940000
   18      S      -2.4451230000     2.0592730000     1.4896410000
   19      C      -1.6561890000     0.8837340000     2.5627180000
   20      C      -1.3267340000     1.2725940000     3.8519250000
   21      C      -0.6922040000     0.3893340000     4.7578000000
   22      C      -0.3801560000    -0.9439910000     4.3291720000
   23      C      -0.7216010000    -1.3138020000     3.0005460000
   24      C      -1.3355720000    -0.4378540000     2.1393860000
   25      C      -0.3542030000     0.7653200000     6.0878080000
   26      C       0.2642960000    -0.1153040000     6.9477060000
   27      C       0.5705630000    -1.4298450000     6.5223980000
   28      C       0.2502960000    -1.8273880000     5.2416710000
   29      H      -5.4989730000     2.5191790000     1.0247840000
   30      H      -5.1676980000     1.0358430000     1.9082800000
   31      H      -6.4141050000     1.0542840000     0.6207220000
   32      H      -1.5679610000     2.2777330000     4.1881090000
   33      H      -0.4768850000    -2.3167940000     2.6603960000
   34      H      -1.5744880000    -0.7231990000     1.1239580000
   35      H      -0.5900330000     1.7739580000     6.4171260000
   36      H       0.5220700000     0.1958420000     7.9573800000
   37      H       1.0586690000    -2.1181650000     7.2074300000
   38      H       0.4824250000    -2.8361770000     4.9095450000
 ----------------------------------------------------------------

   15   -1357.8476134192      8.66e-06  Convergence criterion met
 Total energy in the final basis set =    -1357.8476134192

                    Orbital Energies (a.u.)
 --------------------------------------------------------------

 Alpha MOs
 -- Occupied --
-88.8314 -19.0265 -19.0171 -10.1995 -10.1835 -10.1826 -10.1801 -10.1734
-10.1732 -10.1723 -10.1722 -10.1713 -10.1706 -10.1690 -10.1688 -10.1536
-10.1535 -10.1522 -10.1498 -10.1478 -10.1432 -10.1424 -10.1346 -10.1336
 -7.9174  -5.8813  -5.8771  -5.8719  -0.9506  -0.9365  -0.8754  -0.8309
 -0.8289  -0.7904  -0.7729  -0.7549  -0.7289  -0.7261  -0.7223  -0.6998
 -0.6573  -0.6287  -0.6204  -0.6032  -0.5935  -0.5726  -0.5622  -0.5265
 -0.5113  -0.5024  -0.4869  -0.4757  -0.4605  -0.4430  -0.4389  -0.4342
 -0.4208  -0.4182  -0.4131  -0.4033  -0.3969  -0.3953  -0.3893  -0.3820
 -0.3744  -0.3695  -0.3659  -0.3561  -0.3477  -0.3406  -0.3377  -0.3313
 -0.3298  -0.3211  -0.3143  -0.3095  -0.2993  -0.2907  -0.2654  -0.2340
 -0.2302  -0.2274  -0.2167  -0.2072  -0.2008  -0.1906  -0.1168

          Ground-State Mulliken Net Atomic Charges

     Atom                 Charge (a.u.)
  ----------------------------------------
      1 C                     0.024468
      2 C                    -0.583496
      3 C                    -0.502653
      4 C                     0.315519
      5 C                    -0.075702
      6 C                    -0.033073
      7 C                    -0.440871
      8 C                     0.595459
      9 C                     0.773104
     10 C                    -0.609778
     11 O                    -0.712785
     12 O                    -0.610954
     13 H                     0.164348
     14 H                     0.172385
     15 H                     0.176928
     16 H                     0.171825
     17 C                    -0.375746
     18 S                    -0.670131
     19 C                     0.119410
     20 C                    -0.154895
     21 C                    -0.050670
     22 C                     0.150431
     23 C                    -0.275858
     24 C                    -0.319786
     25 C                    -0.167284
     26 C                    -0.326330
     27 C                    -0.245041
     28 C                    -0.279003
     29 H                     0.158833
     30 H                     0.117223
     31 H                     0.156658
     32 H                     0.184742
     33 H                     0.210969
     34 H                     0.206376
     35 H                     0.171342
     36 H                     0.200264
     37 H                     0.201718
     38 H                     0.162052
  ----------------------------------------
  Sum of atomic charges =    -2.000000

                    Cartesian Multipole Moments
 -----------------------------------------------------------------
    Charge (ESU x 10^10)
                -9.6064
    Dipole Moment (Debye)
         X      32.4611      Y      -6.8584      Z       8.1926
       Tot      34.1743
    Quadrupole Moments (Debye-Ang)
        XX    -325.7514     XY      12.8428     YY    -161.3912
        XZ     -39.0131     YZ       1.8524     ZZ    -181.2214

 Total job time:  305.55s(wall), 2245.14s(cpu)
        *  Thank you very much for using Q-Chem.  Have a nice day.  *
