 Gaussian 16, Revision A.03,
 Gaussian 16:  ES64L-G16RevA.03 25-Dec-2016

 --------------------------------------
 #P UB3LYP/6-311++G(d,p) nosym opt freq
 --------------------------------------

 --------
 Oxidized
 --------
 Symbolic Z-matrix:
 Charge =  0 Multiplicity = 1

 SCF Done:  E(UB3LYP) =  -744.263400775     A.U. after   17 cycles
 SCF Done:  E(UB3LYP) =  -744.268573881     A.U. after   16 cycles
 SCF Done:  E(UB3LYP) =  -744.270219301     A.U. after   17 cycles
 SCF Done:  E(UB3LYP) =  -744.270041942     A.U. after   18 cycles
 SCF Done:  E(UB3LYP) =  -744.271138035     A.U. after   15 cycles
 SCF Done:  E(UB3LYP) =  -744.271200580     A.U. after   14 cycles
 SCF Done:  E(UB3LYP) =  -744.271276059     A.U. after   15 cycles
 SCF Done:  E(UB3LYP) =  -744.271295413     A.U. after   14 cycles
 SCF Done:  E(UB3LYP) =  -744.271297805     A.U. after   11 cycles
 SCF Done:  E(UB3LYP) =  -744.271297968     A.U. after   10 cycles
 Optimization completed.
    -- Stationary point found.
 Normal termination of Gaussian 16 at Sat Jan  6 02:05:19 2024.

 ----------------------------------------------------------------------
 #P Geom=AllCheck Guess=TCheck SCRF=Check GenChk UB3LYP/6-311++G(d,p) F
 req
 ----------------------------------------------------------------------

 Structure from the checkpoint file:  "320.chk"
 --------
 Oxidized
 --------
 Charge =  0 Multiplicity = 1

                          Input orientation:
 ---------------------------------------------------------------------
 Center     Atomic      Atomic             Coordinates (Angstroms)
 Number     Number       Type             X           Y           Z
 ---------------------------------------------------------------------
      1          6           0       -0.358534    3.997683    0.123063
      2          6           0        0.595512    3.052773    0.159898
      3          6           0        0.345754    1.632222   -0.157111
      4          6           0       -0.906811    1.242713   -0.528842
      5          6           0        1.467073    0.711050   -0.056834
      6          6           0        1.459018   -0.734512    0.105101
      7          6           0        2.801568    1.076083   -0.146049
      8          6           0        2.811400   -1.159356    0.091307
      9          6           0        0.462862   -1.703090    0.313807
     10          6           0        0.832792   -3.031791    0.469876
     11          6           0        2.181669   -3.425918    0.429767
     12          6           0        3.191711   -2.491826    0.247332
     13          7           0        3.598053   -0.030519   -0.069284
     14          1           0       -1.124022    0.223411   -0.817665
     15          1           0        3.240615    2.049124   -0.297109
     16          1           0       -0.581878   -1.428579    0.368485
     17          1           0        0.066506   -3.781255    0.629484
     18          1           0        2.436998   -4.471975    0.551790
     19          1           0        4.234829   -2.787188    0.232817
     20          1           0        4.603063   -0.023908   -0.131561
     21          6           0       -1.742950    3.663510   -0.254131
     22          6           0       -2.023331    2.174925   -0.621209
     23          8           0       -2.630297    4.488514   -0.283142
     24          8           0       -3.139766    1.843155   -0.975575
     25          1           0       -0.155030    5.031940    0.377197
     26          1           0        1.598126    3.329514    0.465287
 ---------------------------------------------------------------------

 SCF Done:  E(UB3LYP) =  -744.271297968     A.U. after    1 cycles

 Alpha  occ. eigenvalues --  -19.13187 -19.12031 -14.39652 -10.27023 -10.26275
 Alpha  occ. eigenvalues --  -10.24583 -10.23570 -10.23090 -10.22121 -10.20885
 Alpha  occ. eigenvalues --  -10.20311 -10.20260 -10.20021 -10.19475 -10.19396
 Alpha  occ. eigenvalues --  -10.18931 -10.18850  -1.06811  -1.04021  -1.02109
 Alpha  occ. eigenvalues --   -0.87951  -0.86950  -0.82096  -0.77360  -0.76719
 Alpha  occ. eigenvalues --   -0.75669  -0.71582  -0.65616  -0.64138  -0.62960
 Alpha  occ. eigenvalues --   -0.61153  -0.58210  -0.57124  -0.52543  -0.51441
 Alpha  occ. eigenvalues --   -0.50776  -0.49266  -0.47645  -0.46855  -0.46101
 Alpha  occ. eigenvalues --   -0.45739  -0.44608  -0.44298  -0.44027  -0.43057
 Alpha  occ. eigenvalues --   -0.41744  -0.39819  -0.38471  -0.38079  -0.37001
 Alpha  occ. eigenvalues --   -0.36438  -0.36137  -0.30907  -0.29752  -0.26957
 Alpha  occ. eigenvalues --   -0.25796  -0.24691  -0.23256
 Alpha virt. eigenvalues --   -0.13058  -0.05373  -0.03135  -0.02230  -0.01661
 Alpha virt. eigenvalues --   -0.01140  -0.00805  -0.00664   0.00906   0.01465
 Alpha virt. eigenvalues --    0.02349   0.02649   0.03344   0.03850   0.04255

  Beta  occ. eigenvalues --  -19.13187 -19.12031 -14.39652 -10.27023 -10.26275
  Beta  occ. eigenvalues --  -10.24583 -10.23570 -10.23090 -10.22121 -10.20885
  Beta  occ. eigenvalues --  -10.20311 -10.20260 -10.20021 -10.19475 -10.19396
  Beta  occ. eigenvalues --  -10.18931 -10.18850  -1.06811  -1.04021  -1.02109
  Beta  occ. eigenvalues --   -0.87951  -0.86950  -0.82096  -0.77360  -0.76719
  Beta  occ. eigenvalues --   -0.75669  -0.71582  -0.65616  -0.64138  -0.62960
  Beta  occ. eigenvalues --   -0.61153  -0.58210  -0.57124  -0.52543  -0.51441
  Beta  occ. eigenvalues --   -0.50776  -0.49266  -0.47645  -0.46855  -0.46101
  Beta  occ. eigenvalues --   -0.45739  -0.44608  -0.44298  -0.44027  -0.43057
  Beta  occ. eigenvalues --   -0.41744  -0.39819  -0.38471  -0.38079  -0.37001
  Beta  occ. eigenvalues --   -0.36438  -0.36137  -0.30907  -0.29752  -0.26957
  Beta  occ. eigenvalues --   -0.25796  -0.24691  -0.23256
  Beta virt. eigenvalues --   -0.13058  -0.05373  -0.03135  -0.02230  -0.01661
  Beta virt. eigenvalues --   -0.01140  -0.00805  -0.00664   0.00906   0.01465
  Beta virt. eigenvalues --    0.02349   0.02649   0.03344   0.03850   0.04255

 Mulliken charges and spin densities:
               1          2
     1  C    0.501344   0.000000
     2  C   -1.497702  -0.000000
     3  C    1.133505   0.000000
     4  C   -0.267577  -0.000000
     5  C    1.012174  -0.000000
     6  C    1.220493   0.000000
     7  C   -0.134485   0.000000
     8  C   -0.214693   0.000000
     9  C   -0.986679   0.000000
    10  C   -0.513736  -0.000000
    11  C   -0.216514   0.000000
    12  C   -0.617495   0.000000
    13  N   -0.041945  -0.000000
    14  H    0.167237   0.000000
    15  H    0.175840  -0.000000
    16  H    0.097038   0.000000
    17  H    0.178286   0.000000
    18  H    0.165733   0.000000
    19  H    0.150727   0.000000
    20  H    0.302873   0.000000
    21  C   -0.443685  -0.000000
    22  C   -0.036169   0.000000
    23  O   -0.213547   0.000000
    24  O   -0.237665  -0.000000
    25  H    0.221905  -0.000000
    26  H    0.094739   0.000000
 Sum of Mulliken charges =  -0.00000  -0.00000

 Dipole moment (field-independent basis, Debye):
    X=              9.6669    Y=             -2.5903    Z=              1.2056  Tot=             10.0803
 Quadrupole moment (field-independent basis, Debye-Ang):
   XX=            -93.5688   YY=           -100.7518   ZZ=           -102.6973
   XY=             20.3159   XZ=             -5.6601   YZ=              2.3580

  Exact polarizability: 246.769 -56.538 252.221  16.487 -11.353  93.750
 Approx polarizability: 470.127 -56.272 367.297  32.290 -13.935 151.690

                      1                      2                      3
                      A                      A                      A
 Frequencies --     35.5338                55.6253                82.1908
 Red. masses --      8.1540                 5.5208                 5.2817
 Frc consts  --      0.0061                 0.0101                 0.0210
 IR Inten    --      0.2323                 1.7480                 0.8662

                      4                      5                      6
                      A                      A                      A
 Frequencies --     89.2263               175.3484               220.1293
 Red. masses --      6.3452                 5.6324                 4.0950
 Frc consts  --      0.0298                 0.1020                 0.1169
 IR Inten    --      1.3698                 2.7818                 7.3961

                      7                      8                      9
                      A                      A                      A
 Frequencies --    242.4588               259.2567               295.5442
 Red. masses --      5.8940                 5.7353                 5.8326
 Frc consts  --      0.2041                 0.2271                 0.3002
 IR Inten    --      6.5298                 2.7280                 4.9021

                     10                     11                     12
                      A                      A                      A
 Frequencies --    341.7738               351.1316               428.1040
 Red. masses --      6.1080                13.9596                 2.7493
 Frc consts  --      0.4204                 1.0141                 0.2969
 IR Inten    --      6.3717                 2.5591                24.3758

                     13                     14                     15
                      A                      A                      A
 Frequencies --    447.1666               455.5867               469.3958
 Red. masses --      1.4239                 5.8850                 3.1284
 Frc consts  --      0.1677                 0.7197                 0.4061
 IR Inten    --     54.7406                 7.3269                 3.5562

                     16                     17                     18
                      A                      A                      A
 Frequencies --    493.1359               555.5447               576.5306
 Red. masses --      4.6177                 6.3432                 4.2742
 Frc consts  --      0.6616                 1.1534                 0.8370
 IR Inten    --      9.3820                 2.3705                 6.0053

                     19                     20                     21
                      A                      A                      A
 Frequencies --    583.2392               593.2309               617.9929
 Red. masses --      4.7995                 3.5482                 4.8153
 Frc consts  --      0.9619                 0.7357                 1.0835
 IR Inten    --     12.2277                 1.5473                 5.1496

                     22                     23                     24
                      A                      A                      A
 Frequencies --    653.1821               655.9945               721.3301
 Red. masses --      5.3536                 3.0233                 5.4661
 Frc consts  --      1.3458                 0.7665                 1.6757
 IR Inten    --      3.7907                10.5167                 3.5020

                     25                     26                     27
                      A                      A                      A
 Frequencies --    753.9355               770.3443               772.4309
 Red. masses --      1.2914                 3.5323                 2.4636
 Frc consts  --      0.4325                 1.2350                 0.8661
 IR Inten    --     75.3609                 2.2432                 8.0655

                     28                     29                     30
                      A                      A                      A
 Frequencies --    781.2253               816.0813               843.1778
 Red. masses --      5.0281                 1.5381                 2.1843
 Frc consts  --      1.8080                 0.6036                 0.9150
 IR Inten    --      8.2976                29.9880                17.0994

                     31                     32                     33
                      A                      A                      A
 Frequencies --    859.8539               886.0289               891.0039
 Red. masses --      1.4915                 4.1839                 1.9056
 Frc consts  --      0.6497                 1.9352                 0.8914
 IR Inten    --      1.1866                 0.5618                 5.9803

                     34                     35                     36
                      A                      A                      A
 Frequencies --    910.1226               948.2574               950.0120
 Red. masses --      6.8723                 1.3684                 3.3629
 Frc consts  --      3.3539                 0.7250                 1.7882
 IR Inten    --      4.9387                 0.6903                 5.8638

                     37                     38                     39
                      A                      A                      A
 Frequencies --    986.2076              1005.1007              1040.8360
 Red. masses --      1.2845                 1.2802                 2.1783
 Frc consts  --      0.7361                 0.7620                 1.3904
 IR Inten    --      0.0945                 0.3529                 6.5095

                     40                     41                     42
                      A                      A                      A
 Frequencies --   1112.9307              1136.1449              1139.0429
 Red. masses --      3.1837                 1.6366                 2.6019
 Frc consts  --      2.3233                 1.2447                 1.9890
 IR Inten    --     13.0410                71.1938                32.1718

                     43                     44                     45
                      A                      A                      A
 Frequencies --   1162.8906              1179.9747              1192.9639
 Red. masses --      1.4567                 1.2116                 1.3070
 Frc consts  --      1.1606                 0.9939                 1.0959
 IR Inten    --     17.4674                 2.5133                82.4006

                     46                     47                     48
                      A                      A                      A
 Frequencies --   1250.4429              1259.0393              1284.7753
 Red. masses --      2.0223                 3.2213                 2.2470
 Frc consts  --      1.8631                 3.0086                 2.1853
 IR Inten    --     47.8391               210.0720                12.4968

                     49                     50                     51
                      A                      A                      A
 Frequencies --   1304.8884              1336.0129              1365.7932
 Red. masses --      1.6982                 2.6512                 4.2581
 Frc consts  --      1.7037                 2.7881                 4.6798
 IR Inten    --      5.3142                 1.7000                 3.9565

                     52                     53                     54
                      A                      A                      A
 Frequencies --   1378.1641              1428.4724              1449.6262
 Red. masses --      2.8522                 1.9923                 2.5935
 Frc consts  --      3.1917                 2.3953                 3.2111
 IR Inten    --      2.9527                 4.6191               180.8421

                     55                     56                     57
                      A                      A                      A
 Frequencies --   1485.4416              1523.0959              1545.6214
 Red. masses --      2.4461                 2.8750                 4.1913
 Frc consts  --      3.1800                 3.9296                 5.8994
 IR Inten    --     23.4313                23.7770               141.7954

                     58                     59                     60
                      A                      A                      A
 Frequencies --   1595.8375              1614.1030              1656.7968
 Red. masses --      7.6510                 5.8236                 6.1739
 Frc consts  --     11.4802                 8.9393                 9.9850
 IR Inten    --    302.8343                12.4195                10.8705

                     61                     62                     63
                      A                      A                      A
 Frequencies --   1672.5306              1713.9504              1758.3909
 Red. masses --      6.3793                12.1942                12.0200
 Frc consts  --     10.5140                21.1057                21.8971
 IR Inten    --     71.0788               423.6621               109.9785

                     64                     65                     66
                      A                      A                      A
 Frequencies --   3168.5475              3170.3771              3177.6874
 Red. masses --      1.0866                 1.0860                 1.0903
 Frc consts  --      6.4273                 6.4312                 6.4864
 IR Inten    --      0.7958                 3.0772                 9.9747

                     67                     68                     69
                      A                      A                      A
 Frequencies --   3189.6709              3190.8781              3203.3321
 Red. masses --      1.0970                 1.0950                 1.0936
 Frc consts  --      6.5758                 6.5689                 6.6117
 IR Inten    --      9.8819                15.9052                 2.1728

                     70                     71                     72
                      A                      A                      A
 Frequencies --   3215.5110              3254.4703              3662.1365
 Red. masses --      1.0906                 1.0963                 1.0806
 Frc consts  --      6.6436                 6.8411                 8.5384
 IR Inten    --      2.0143                 0.1719               136.7852

 - Thermochemistry -
 -------------------
 Temperature   298.150 Kelvin.  Pressure   1.00000 Atm.
 Atom     1 has atomic number  6 and mass  12.00000

 Molecular mass:   223.06333 amu.
 Principal axes and moments of inertia in atomic units:
                           1         2         3
     Eigenvalues --  1532.603006925.951208329.39195
           X           -0.62249   0.77699  -0.09372
           Y            0.77755   0.62762   0.03879
           Z           -0.08896   0.04873   0.99484
 This molecule is an asymmetric top.
 Rotational symmetry number  1.
 Warning -- assumption of classical behavior for rotation
           may cause significant error
 Rotational temperatures (Kelvin)      0.05651     0.01251     0.01040
 Rotational constants (GHZ):           1.17757     0.26058     0.21667
 Zero-point vibrational energy     510762.4 (Joules/Mol)
                                  122.07515 (Kcal/Mol)
 Warning -- explicit consideration of  21 degrees of freedom as
           vibrations may cause significant error
 Vibrational temperatures:     51.13    80.03   118.25   128.38   252.29
          (Kelvin)            316.72   348.84   373.01   425.22   491.74
                              505.20   615.95   643.37   655.49   675.36
                              709.51   799.30   829.50   839.15   853.53
                              889.15   939.78   943.83  1037.83  1084.74
                             1108.35  1111.36  1124.01  1174.16  1213.14
                             1237.14  1274.80  1281.96  1309.46  1364.33
                             1366.86  1418.93  1446.12  1497.53  1601.26
                             1634.66  1638.83  1673.14  1697.72  1716.41
                             1799.11  1811.48  1848.51  1877.44  1922.22
                             1965.07  1982.87  2055.25  2085.69  2137.22
                             2191.40  2223.80  2296.05  2322.33  2383.76
                             2406.40  2465.99  2529.93  4558.83  4561.47
                             4571.98  4589.23  4590.96  4608.88  4626.40
                             4682.46  5269.00

 Zero-point correction=                           0.194539 (Hartree/Particle)
 Thermal correction to Energy=                    0.207494
 Thermal correction to Enthalpy=                  0.208438
 Thermal correction to Gibbs Free Energy=         0.154080
 Sum of electronic and zero-point Energies=           -744.076759
 Sum of electronic and thermal Energies=              -744.063804
 Sum of electronic and thermal Enthalpies=            -744.062860
 Sum of electronic and thermal Free Energies=         -744.117218

                     E (Thermal)             CV                S
                      KCal/Mol        Cal/Mol-Kelvin    Cal/Mol-Kelvin
 Total                  130.204             51.688            114.405
 Electronic               0.000              0.000              0.000
 Translational            0.889              2.981             42.109
 Rotational               0.889              2.981             32.847
 Vibrational            128.427             45.727             39.449
 Vibration     1          0.594              1.982              5.494
 Vibration     2          0.596              1.975              4.607
 Vibration     3          0.600              1.961              3.838
 Vibration     4          0.602              1.957              3.677
 Vibration     5          0.627              1.873              2.377
 Vibration     6          0.647              1.810              1.958
 Vibration     7          0.659              1.775              1.785
 Vibration     8          0.668              1.747              1.667
 Vibration     9          0.690              1.682              1.442
 Vibration    10          0.721              1.592              1.204
 Vibration    11          0.728              1.573              1.161
 Vibration    12          0.790              1.409              0.865
 Vibration    13          0.806              1.367              0.804
 Vibration    14          0.814              1.349              0.779
 Vibration    15          0.827              1.318              0.739
 Vibration    16          0.849              1.265              0.676
 Vibration    17          0.911              1.128              0.533
 Vibration    18          0.933              1.082              0.492
 Vibration    19          0.940              1.068              0.479
 Vibration    20          0.951              1.046              0.461
 Vibration    21          0.978              0.994              0.420

                           ! Non-Optimized Parameters !
 Normal termination of Gaussian 16 at Sat Jan  6 02:29:07 2024.
