 Q-Chem 5.4, Q-Chem, Inc., Pleasanton, CA (2021)
 Q-Chem 5.4.0 for Intel X86 EM64T Linux

User input:
--------------------------------------------------------------
$molecule
-1 2
C                 -1.5612120000      1.9039960000     -4.7410860000
C                 -1.5101650000      0.5445320000     -4.9704560000
C                 -1.2289750000     -0.3395530000     -3.9059060000
C                 -1.3374190000      2.4304840000     -3.4486600000
C                 -1.0560940000      1.5434180000     -2.3768470000
C                 -1.0058450000      0.1571620000     -2.6371350000
C                 -1.3960460000      3.8627950000     -3.2328540000
C                 -0.8081110000      2.0202290000     -1.0115700000
C                 -1.1772220000      4.3564310000     -1.8884170000
C                 -0.8964990000      3.4694440000     -0.7929980000
C                 -1.2619740000      5.7674060000     -1.6577800000
C                 -1.0834820000      6.2802550000     -0.3804960000
C                 -0.8184170000      5.4144580000      0.6861890000
C                 -0.7257960000      4.0538380000      0.4851050000
O                 -1.6426650000      4.6593210000     -4.2055380000
O                 -0.5341920000      1.2039010000     -0.0986370000
H                 -1.7726130000      2.6053260000     -5.5393460000
H                 -1.6842890000      0.1536170000     -5.9683600000
H                 -1.1868170000     -1.4093200000     -4.0868860000
H                 -0.7840770000     -0.4982520000     -1.8034230000
H                 -0.6844600000      5.7989810000      1.6909150000
O                 -1.5214610000      6.6156370000     -2.6707150000
O                 -0.5589980000      3.2613790000      1.6302350000
C                  0.6483120000      2.6748770000      1.8558340000
C                  0.5062240000      1.5865210000      2.8862550000
O                  1.6755950000      3.0083620000      1.3251770000
H                 -1.1547390000      7.3512960000     -0.2324430000
H                 -1.6191010000      6.0221610000     -3.4862650000
H                  0.0503900000      0.7319540000      2.3809320000
H                 -0.1558380000      1.8994500000      3.6961310000
H                  1.4868480000      1.3127940000      3.2733840000
$end
$rem
MAX_SCF_CYCLES=200
BASIS  =  6-311++G(d,p)
GUI  =  2
JOB_TYPE  =  SP
METHOD  =  B3LYP
SOLVENT_METHOD = COSMO
$end
$solvent
dielectric 37.219
opticaldielectric 1.43
$end

--------------------------------------------------------------

             Standard Nuclear Orientation (Angstroms)
    I     Atom           X                Y                Z
 ----------------------------------------------------------------
    1      C       3.6751162821     0.3292557078    -0.1392898376
    2      C       4.1967332432     1.6057362501    -0.0960240167
    3      C       3.3348470505     2.7144371362     0.0518791326
    4      C       2.2826289725     0.1107431850    -0.0350341109
    5      C       1.4146074766     1.2237467978     0.1152143217
    6      C       1.9716952803     2.5199649726     0.1533210745
    7      C       1.7585334938    -1.2399939652    -0.0835854820
    8      C      -0.0406952078     1.0715451872     0.2236318080
    9      C       0.3263611531    -1.4176523194     0.0444425858
   10      C      -0.5636304488    -0.3002740346     0.2021601932
   11      C      -0.1998148843    -2.7495979306     0.0275179190
   12      C      -1.5631430853    -2.9659521235     0.1719304768
   13      C      -2.4271458963    -1.8773591577     0.3336255174
   14      C      -1.9425465475    -0.5868885700     0.3458461032
   15      O       2.5460182792    -2.2403110698    -0.2271896837
   16      O      -0.7746501730     2.0842980781     0.3261568085
   17      H       4.3125110375    -0.5392520975    -0.2541606231
   18      H       5.2685699958     1.7591693763    -0.1770817092
   19      H       3.7452496158     3.7191645752     0.0838947454
   20      H       1.2875954379     3.3528651681     0.2633616406
   21      H      -3.4934333740    -2.0304695952     0.4555474565
   22      O       0.6165358264    -3.8098689622    -0.1216916772
   23      O      -2.8717571685     0.4285709031     0.6151883329
   24      C      -3.2585572127     1.2532823803    -0.3961047236
   25      C      -3.9304410847     2.4770108351     0.1673985604
   26      O      -3.1069293637     1.0122212851    -1.5653001746
   27      H      -1.9354497534    -3.9834552913     0.1577486961
   28      H       1.5454142135    -3.4121470755    -0.1983165923
   29      H      -3.1375906281     3.1226812233     0.5520004726
   30      H      -4.5906217626     2.2134200743     0.9961513400
   31      H      -4.4832754946     2.9907156604    -0.6180314048
 ----------------------------------------------------------------

    9    -992.2286548958      5.50e-06  Convergence criterion met
 Total energy in the final basis set =     -992.2286548958
    4    -992.3087152037      8.00e-06  Convergence criterion met
 Total energy in the final basis set =     -992.3087152037

                    Orbital Energies (a.u.)
 --------------------------------------------------------------

 Alpha MOs
 -- Occupied --
-19.1724 -19.1355 -19.1217 -19.0974 -19.0836 -10.3125 -10.2410 -10.2393
-10.2370 -10.2354 -10.1904 -10.1864 -10.1803 -10.1797 -10.1788 -10.1763
-10.1758 -10.1744 -10.1732 -10.1722 -10.1696  -1.1165  -1.0617  -1.0370
 -1.0135  -1.0115  -0.8695  -0.8557  -0.7958  -0.7719  -0.7559  -0.7490
 -0.7307  -0.6820  -0.6489  -0.6362  -0.6264  -0.5795  -0.5644  -0.5463
 -0.5296  -0.5141  -0.4992  -0.4886  -0.4831  -0.4716  -0.4624  -0.4608
 -0.4406  -0.4343  -0.4290  -0.4276  -0.4181  -0.4148  -0.4109  -0.4049
 -0.4000  -0.3900  -0.3816  -0.3779  -0.3656  -0.3585  -0.3560  -0.3423
 -0.3351  -0.3237  -0.2923  -0.2783  -0.2646  -0.2620  -0.2564  -0.2455
 -0.2337  -0.1511

 Beta MOs
 -- Occupied --
-19.1724 -19.1352 -19.1217 -19.0925 -19.0781 -10.3124 -10.2408 -10.2368
-10.2356 -10.2351 -10.1895 -10.1863 -10.1797 -10.1793 -10.1780 -10.1759
-10.1753 -10.1742 -10.1733 -10.1712 -10.1697  -1.1163  -1.0602  -1.0368
 -1.0053  -1.0024  -0.8668  -0.8544  -0.7919  -0.7706  -0.7539  -0.7472
 -0.7292  -0.6752  -0.6474  -0.6337  -0.6252  -0.5781  -0.5630  -0.5437
 -0.5284  -0.5127  -0.4986  -0.4878  -0.4811  -0.4704  -0.4607  -0.4601
 -0.4349  -0.4299  -0.4275  -0.4252  -0.4165  -0.4123  -0.4092  -0.3991
 -0.3964  -0.3844  -0.3784  -0.3673  -0.3636  -0.3570  -0.3485  -0.3411
 -0.3278  -0.3215  -0.2920  -0.2607  -0.2602  -0.2550  -0.2512  -0.2406
 -0.2251

          Ground-State Mulliken Net Atomic Charges

     Atom                 Charge (a.u.)    Spin (a.u.)
  --------------------------------------------------------
      1 C                    -0.078676       0.044526
      2 C                    -0.528940       0.019215
      3 C                    -0.431057       0.046617
      4 C                     0.089066      -0.011015
      5 C                    -0.073878       0.029793
      6 C                     0.000405       0.023896
      7 C                    -0.308122       0.146896
      8 C                    -0.211968       0.073522
      9 C                     0.780039      -0.008024
     10 C                     0.598418       0.061401
     11 C                    -0.364731       0.032084
     12 C                    -0.214815       0.069380
     13 C                     0.079771       0.046554
     14 C                    -0.385776       0.058093
     15 O                    -0.506969       0.172583
     16 O                    -0.437853       0.204203
     17 H                     0.185403      -0.001415
     18 H                     0.205501      -0.001975
     19 H                     0.210378      -0.003599
     20 H                     0.172775      -0.000642
     21 H                     0.228968      -0.004116
     22 O                    -0.420951       0.010082
     23 O                    -0.022792      -0.000025
     24 C                     0.087735      -0.000320
     25 C                    -0.503138       0.002365
     26 O                    -0.318742      -0.000468
     27 H                     0.222640      -0.005626
     28 H                     0.382039      -0.003533
     29 H                     0.207956      -0.000632
     30 H                     0.185329       0.000401
     31 H                     0.171984      -0.000220
  --------------------------------------------------------
  Sum of atomic charges =    -1.000000

                    Cartesian Multipole Moments
 -----------------------------------------------------------------
    Charge (ESU x 10^10)
                -4.8032
    Dipole Moment (Debye)
         X      -1.6208      Y       3.5168      Z       2.3786
       Tot       4.5445
    Quadrupole Moments (Debye-Ang)
        XX    -127.6060     XY      15.2981     YY    -145.4792
        XZ      -7.2052     YZ       0.0332     ZZ    -133.9948

 Total job time:  114.59s(wall), 849.55s(cpu)
        *  Thank you very much for using Q-Chem.  Have a nice day.  *
