 Q-Chem 5.4, Q-Chem, Inc., Pleasanton, CA (2021)
 Q-Chem 5.4.0 for Intel X86 EM64T Linux

User input:
--------------------------------------------------------------
$molecule
-1 2
C                 -4.0695480000      3.5961490000      1.5374880000
C                 -4.5554290000      3.8204700000      0.2667510000
C                 -3.9605740000      3.1717900000     -0.8267210000
C                 -2.8876740000      2.3059830000     -0.6447760000
C                 -2.3588830000      2.0496770000      0.6510290000
C                 -2.9837840000      2.7237740000      1.7482520000
C                 -2.5166540000      2.5312250000      3.1338230000
C                 -1.4105600000      1.6357420000      3.3018050000
C                 -0.7935120000      0.9767720000      2.2640120000
C                 -1.2207940000      1.1369880000      0.8826410000
O                 -3.0647040000      3.1232540000      4.1052470000
O                 -0.6293420000      0.5159860000     -0.0364020000
H                 -4.4972840000      4.0747060000      2.4099360000
H                 -4.3359650000      3.3413030000     -1.8346070000
O                 -2.3355310000      1.6919930000     -1.7426570000
C                  0.3663670000      0.0474660000      2.5052400000
H                 -5.3923940000      4.4926940000      0.1025550000
H                 -1.0654030000      1.4930130000      4.3234050000
H                 -2.8300000000      1.9937310000     -2.5123160000
H                  0.6098640000     -0.0053610000      3.5702850000
H                  1.2536300000      0.3751880000      1.9526550000
H                  0.1441150000     -0.9610710000      2.1399780000
$end
$rem
MAX_SCF_CYCLES=200
BASIS  =  6-311++G(d,p)
GUI  =  2
JOB_TYPE  =  SP
METHOD  =  B3LYP
SOLVENT_METHOD = PCM
$end
$pcm
theory = CPCM
$end
$solvent
dielectric 37.219
opticaldielectric 1.43
$end

--------------------------------------------------------------

             Standard Nuclear Orientation (Angstroms)
    I     Atom           X                Y                Z
 ----------------------------------------------------------------
    1      C      -4.0695480000     3.5961490000     1.5374880000
    2      C      -4.5554290000     3.8204700000     0.2667510000
    3      C      -3.9605740000     3.1717900000    -0.8267210000
    4      C      -2.8876740000     2.3059830000    -0.6447760000
    5      C      -2.3588830000     2.0496770000     0.6510290000
    6      C      -2.9837840000     2.7237740000     1.7482520000
    7      C      -2.5166540000     2.5312250000     3.1338230000
    8      C      -1.4105600000     1.6357420000     3.3018050000
    9      C      -0.7935120000     0.9767720000     2.2640120000
   10      C      -1.2207940000     1.1369880000     0.8826410000
   11      O      -3.0647040000     3.1232540000     4.1052470000
   12      O      -0.6293420000     0.5159860000    -0.0364020000
   13      H      -4.4972840000     4.0747060000     2.4099360000
   14      H      -4.3359650000     3.3413030000    -1.8346070000
   15      O      -2.3355310000     1.6919930000    -1.7426570000
   16      C       0.3663670000     0.0474660000     2.5052400000
   17      H      -5.3923940000     4.4926940000     0.1025550000
   18      H      -1.0654030000     1.4930130000     4.3234050000
   19      H      -2.8300000000     1.9937310000    -2.5123160000
   20      H       0.6098640000    -0.0053610000     3.5702850000
   21      H       1.2536300000     0.3751880000     1.9526550000
   22      H       0.1441150000    -0.9610710000     2.1399780000
 ----------------------------------------------------------------

    8    -649.9874497961      9.54e-06  Convergence criterion met
 Total energy in the final basis set =     -649.9874497961

                    Orbital Energies (a.u.)
 --------------------------------------------------------------

 Alpha MOs
 -- Occupied --
-19.1496 -19.0730 -19.0726 -10.2384 -10.2220 -10.2189 -10.1765 -10.1736
-10.1733 -10.1696 -10.1692 -10.1619 -10.1547 -10.1540  -1.0617  -0.9996
 -0.9962  -0.8541  -0.8083  -0.7548  -0.7426  -0.6990  -0.6577  -0.6266
 -0.5947  -0.5695  -0.5213  -0.5080  -0.4756  -0.4678  -0.4484  -0.4345
 -0.4313  -0.4132  -0.4072  -0.3928  -0.3882  -0.3874  -0.3752  -0.3655
 -0.3634  -0.3513  -0.3463  -0.3321  -0.2715  -0.2476  -0.2420  -0.2331
 -0.2320  -0.1483

 Beta MOs
 -- Occupied --
-19.1494 -19.0674 -19.0668 -10.2384 -10.2203 -10.2171 -10.1763 -10.1730
-10.1729 -10.1685 -10.1676 -10.1617 -10.1541 -10.1539  -1.0614  -0.9893
 -0.9860  -0.8520  -0.8034  -0.7529  -0.7405  -0.6953  -0.6513  -0.6245
 -0.5920  -0.5673  -0.5186  -0.5059  -0.4734  -0.4662  -0.4472  -0.4321
 -0.4230  -0.4080  -0.4046  -0.3902  -0.3875  -0.3741  -0.3726  -0.3641
 -0.3497  -0.3445  -0.3426  -0.3247  -0.2478  -0.2400  -0.2367  -0.2267
 -0.2259

          Ground-State Mulliken Net Atomic Charges

     Atom                 Charge (a.u.)    Spin (a.u.)
  --------------------------------------------------------
      1 C                    -0.067716       0.039222
      2 C                    -0.390147       0.033527
      3 C                    -0.194171       0.043134
      4 C                     0.112658       0.027946
      5 C                    -0.195480      -0.009850
      6 C                     0.742189       0.055958
      7 C                    -0.818662       0.095236
      8 C                    -0.368100       0.055951
      9 C                     0.596186       0.125265
     10 C                    -0.328544       0.101082
     11 O                    -0.521047       0.208237
     12 O                    -0.485005       0.224723
     13 H                     0.159840      -0.003337
     14 H                     0.181054      -0.004223
     15 O                    -0.259491       0.001633
     16 C                    -0.348540       0.001603
     17 H                     0.207874      -0.002183
     18 H                     0.160769      -0.007108
     19 H                     0.310834      -0.000457
     20 H                     0.163386      -0.000044
     21 H                     0.171195       0.006864
     22 H                     0.170918       0.006819
  --------------------------------------------------------
  Sum of atomic charges =    -1.000000

                    Cartesian Multipole Moments
 -----------------------------------------------------------------
    Charge (ESU x 10^10)
                -4.8032
    Dipole Moment (Debye)
         X       8.2346      Y      -8.4016      Z     -11.1085
       Tot      16.1800
    Quadrupole Moments (Debye-Ang)
        XX    -102.8115     XY      18.8871     YY    -108.2473
        XZ      41.1690     YZ     -39.0248     ZZ    -121.4401

 Total job time:  31.05s(wall), 230.46s(cpu)
        *  Thank you very much for using Q-Chem.  Have a nice day.  *
