 Gaussian 16, Revision A.03,
 Gaussian 16:  ES64L-G16RevA.03 25-Dec-2016

 ----------------------------------------------------------------
 #P UB3LYP/6-311++G(d,p) SCRF=(PCM,Solvent=n,n-DiMethylFormamide)
 ----------------------------------------------------------------

 ------------------
 Quinone PCM in DMF
 ------------------
 Symbolic Z-matrix:
 Charge =  0 Multiplicity = 1

                         Standard orientation:
 ---------------------------------------------------------------------
 Center     Atomic      Atomic             Coordinates (Angstroms)
 Number     Number       Type             X           Y           Z
 ---------------------------------------------------------------------
      1         17           0        2.654506   -2.415400   -0.147635
      2          6           0        2.509434   -0.673514   -0.082638
      3          6           0        3.684649    0.053084   -0.268703
      4          6           0        3.662287    1.444209   -0.259501
      5          6           0        2.459531    2.117347   -0.094358
      6          6           0        1.277282    1.394360    0.064947
      7          6           0        0.000071    2.158217    0.178874
      8          8           0        0.000102    3.371036    0.300604
      9          6           0       -1.277142    1.394455    0.064644
     10          6           0       -2.459334    2.117473   -0.094998
     11          6           0       -3.662124    1.444383   -0.260068
     12          6           0       -3.684619    0.053260   -0.268793
     13          6           0       -2.509478   -0.673384   -0.082462
     14         17           0       -2.654766   -2.415267   -0.146982
     15          6           0       -1.279671   -0.015650    0.097199
     16          6           0       -0.000013   -0.737728    0.403497
     17          8           0       -0.000031   -1.829154    0.930760
     18          6           0        1.279692   -0.015753    0.097210
     19          1           0        4.612972   -0.483212   -0.418412
     20          1           0        4.585805    1.995336   -0.392769
     21          1           0        2.408300    3.198455   -0.093778
     22          1           0       -2.408054    3.198584   -0.094653
     23          1           0       -4.585581    1.995552   -0.393569
     24          1           0       -4.612991   -0.482993   -0.418352
 ---------------------------------------------------------------------

 SCF Done:  E(UB3LYP) =  -1608.18582326     A.U. after   15 cycles

 The electronic state is 1-A.
 Alpha  occ. eigenvalues -- -101.56855-101.56855 -19.14093 -19.13894 -10.29786
 Alpha  occ. eigenvalues --  -10.29172 -10.26780 -10.26780 -10.22828 -10.22827
 Alpha  occ. eigenvalues --  -10.22035 -10.22034 -10.21114 -10.21114 -10.20801
 Alpha  occ. eigenvalues --  -10.20801 -10.20506 -10.20506  -9.48340  -9.48340
 Alpha  occ. eigenvalues --   -7.24814  -7.24814  -7.23841  -7.23841  -7.23746
 Alpha  occ. eigenvalues --   -7.23746  -1.08076  -1.07448  -0.92231  -0.91818
 Alpha  occ. eigenvalues --   -0.87235  -0.86245  -0.82310  -0.78485  -0.77146
 Alpha  occ. eigenvalues --   -0.76522  -0.69938  -0.67775  -0.65921  -0.61675
 Alpha  occ. eigenvalues --   -0.58980  -0.57327  -0.56550  -0.51703  -0.50562
 Alpha  occ. eigenvalues --   -0.50421  -0.50069  -0.47238  -0.46785  -0.46491
 Alpha  occ. eigenvalues --   -0.46103  -0.46003  -0.45156  -0.42950  -0.42076
 Alpha  occ. eigenvalues --   -0.41030  -0.39916  -0.39732  -0.39112  -0.38527
 Alpha  occ. eigenvalues --   -0.35737  -0.35207  -0.34189  -0.32976  -0.29987
 Alpha  occ. eigenvalues --   -0.29586  -0.28592  -0.27441  -0.27349  -0.27277
 Alpha virt. eigenvalues --   -0.12265  -0.08437  -0.04650  -0.03872  -0.00743
 Alpha virt. eigenvalues --   -0.00284   0.00062   0.00653   0.01163   0.01428
 Alpha virt. eigenvalues --    0.02094   0.02475   0.02626   0.03968   0.04084

  Beta  occ. eigenvalues -- -101.56855-101.56855 -19.14093 -19.13894 -10.29786
  Beta  occ. eigenvalues --  -10.29172 -10.26780 -10.26780 -10.22828 -10.22827
  Beta  occ. eigenvalues --  -10.22035 -10.22034 -10.21114 -10.21114 -10.20801
  Beta  occ. eigenvalues --  -10.20801 -10.20506 -10.20506  -9.48340  -9.48340
  Beta  occ. eigenvalues --   -7.24814  -7.24814  -7.23841  -7.23841  -7.23746
  Beta  occ. eigenvalues --   -7.23746  -1.08076  -1.07448  -0.92231  -0.91818
  Beta  occ. eigenvalues --   -0.87235  -0.86245  -0.82310  -0.78485  -0.77146
  Beta  occ. eigenvalues --   -0.76522  -0.69938  -0.67775  -0.65921  -0.61675
  Beta  occ. eigenvalues --   -0.58980  -0.57327  -0.56550  -0.51703  -0.50562
  Beta  occ. eigenvalues --   -0.50421  -0.50069  -0.47238  -0.46785  -0.46491
  Beta  occ. eigenvalues --   -0.46103  -0.46003  -0.45156  -0.42950  -0.42076
  Beta  occ. eigenvalues --   -0.41030  -0.39916  -0.39732  -0.39112  -0.38527
  Beta  occ. eigenvalues --   -0.35737  -0.35207  -0.34189  -0.32976  -0.29987
  Beta  occ. eigenvalues --   -0.29586  -0.28592  -0.27441  -0.27349  -0.27277
  Beta virt. eigenvalues --   -0.12265  -0.08437  -0.04650  -0.03872  -0.00743
  Beta virt. eigenvalues --   -0.00284   0.00062   0.00653   0.01163   0.01428
  Beta virt. eigenvalues --    0.02094   0.02475   0.02626   0.03968   0.04084

 Mulliken charges and spin densities:
               1          2
     1  Cl   0.496315  -0.000000
     2  C    0.468005  -0.000000
     3  C   -0.287910  -0.000000
     4  C   -0.726543   0.000000
     5  C    0.414463  -0.000000
     6  C    0.461343  -0.000000
     7  C   -0.916795   0.000000
     8  O   -0.251904  -0.000000
     9  C    0.461428  -0.000000
    10  C    0.414814  -0.000000
    11  C   -0.726633   0.000000
    12  C   -0.287805  -0.000000
    13  C    0.468274  -0.000000
    14  Cl   0.496320   0.000000
    15  C    0.350097   0.000000
    16  C   -2.328786   0.000000
    17  O   -0.155452  -0.000000
    18  C    0.350599   0.000000
    19  H    0.230800  -0.000000
    20  H    0.212556   0.000000
    21  H    0.206731  -0.000000
    22  H    0.206730  -0.000000
    23  H    0.212549   0.000000
    24  H    0.230805  -0.000000
 Sum of Mulliken charges =  -0.00000  -0.00000

 Dipole moment (field-independent basis, Debye):
    X=             -0.0001    Y=              3.3341    Z=             -2.1210  Tot=              3.9516
 Quadrupole moment (field-independent basis, Debye-Ang):
   XX=            -83.7980   YY=           -130.1233   ZZ=           -119.3147
   XY=             -0.0007   XZ=              0.0026   YZ=              0.4781

 Normal termination of Gaussian 16 at Sun Jan 14 01:04:19 2024.
