 Gaussian 16, Revision A.03,
 Gaussian 16:  ES64L-G16RevA.03 25-Dec-2016

 ----------------------------------------------------------------------
 #P UB3LYP/6-311++G(d,p) nosym opt freq SCRF=(PCM,Solvent=n,n-DiMethylF
 ormamide)
 ----------------------------------------------------------------------

 -------
 Reduced
 -------
 Symbolic Z-matrix:
 Charge = -2 Multiplicity = 1

 SCF Done:  E(UB3LYP) =  -839.705273007     A.U. after   16 cycles
 SCF Done:  E(UB3LYP) =  -839.705906022     A.U. after   13 cycles
 SCF Done:  E(UB3LYP) =  -839.705764692     A.U. after   13 cycles
 SCF Done:  E(UB3LYP) =  -839.706173708     A.U. after   12 cycles
 SCF Done:  E(UB3LYP) =  -839.706149007     A.U. after   11 cycles
 SCF Done:  E(UB3LYP) =  -839.706181330     A.U. after   11 cycles
 SCF Done:  E(UB3LYP) =  -839.706195311     A.U. after   11 cycles
 SCF Done:  E(UB3LYP) =  -839.706197074     A.U. after   10 cycles
 SCF Done:  E(UB3LYP) =  -839.706197272     A.U. after    9 cycles
 Optimization completed.
    -- Stationary point found.
 Normal termination of Gaussian 16 at Sat Feb 10 22:48:29 2024.

 ----------------------------------------------------------------------
 #P Geom=AllCheck Guess=TCheck SCRF=Check GenChk UB3LYP/6-311++G(d,p) F
 req
 ----------------------------------------------------------------------

 Structure from the checkpoint file:  "187-an.chk"
 -------
 Reduced
 -------
 Charge = -2 Multiplicity = 1

                          Input orientation:
 ---------------------------------------------------------------------
 Center     Atomic      Atomic             Coordinates (Angstroms)
 Number     Number       Type             X           Y           Z
 ---------------------------------------------------------------------
      1          8           0       -2.261011   -2.698612   -0.455559
      2          6           0       -2.317392   -1.342285   -0.210315
      3          6           0       -3.545462   -0.731676   -0.097523
      4          6           0       -3.646736    0.662704    0.150163
      5          6           0       -2.504290    1.408201    0.277171
      6          6           0       -1.210267    0.824371    0.167356
      7          6           0       -0.062711    1.683780    0.308202
      8          8           0       -0.185881    2.949997    0.540002
      9          6           0        1.232982    1.063638    0.174052
     10          6           0        2.407309    1.864519    0.279384
     11          6           0        3.655608    1.295185    0.162386
     12          6           0        3.807067   -0.091219   -0.062603
     13          6           0        2.699940   -0.941266   -0.180617
     14          8           0        2.836464   -2.230524   -0.391568
     15          6           0        1.359279   -0.350091   -0.063624
     16          6           0        0.207943   -1.171147   -0.187037
     17          8           0        0.378177   -2.516557   -0.409342
     18          6           0       -1.081834   -0.605957   -0.083560
     19          1           0       -3.167323   -3.024346   -0.514070
     20          1           0       -4.445227   -1.332457   -0.203273
     21          1           0       -4.626748    1.120622    0.234069
     22          1           0       -2.548292    2.473918    0.464413
     23          1           0        2.284560    2.926522    0.449432
     24          1           0        4.544280    1.916642    0.243248
     25          1           0        4.796238   -0.530959   -0.151614
     26          1           0        1.393328   -2.623001   -0.439170
 ---------------------------------------------------------------------

 SCF Done:  E(UB3LYP) =  -839.706197272     A.U. after    1 cycles

 Alpha  occ. eigenvalues --  -19.13923 -19.08769 -19.04804 -19.02423 -10.22235
 Alpha  occ. eigenvalues --  -10.19755 -10.19339 -10.18217 -10.15854 -10.15227
 Alpha  occ. eigenvalues --  -10.15093 -10.14678 -10.14535 -10.14392 -10.14347
 Alpha  occ. eigenvalues --  -10.13931 -10.12931 -10.12625  -1.04930  -1.00761
 Alpha  occ. eigenvalues --   -0.95208  -0.93981  -0.83283  -0.81013  -0.76380
 Alpha  occ. eigenvalues --   -0.72572  -0.71249  -0.69755  -0.64972  -0.61733
 Alpha  occ. eigenvalues --   -0.60186  -0.56709  -0.54590  -0.52884  -0.49436
 Alpha  occ. eigenvalues --   -0.48517  -0.47052  -0.44671  -0.44112  -0.42970
 Alpha  occ. eigenvalues --   -0.42282  -0.40831  -0.39180  -0.38457  -0.38063
 Alpha  occ. eigenvalues --   -0.38035  -0.36680  -0.35781  -0.34828  -0.34539
 Alpha  occ. eigenvalues --   -0.33632  -0.32866  -0.32032  -0.30903  -0.30571
 Alpha  occ. eigenvalues --   -0.28228  -0.24962  -0.22276  -0.22104  -0.21430
 Alpha  occ. eigenvalues --   -0.19968  -0.18207  -0.12052
 Alpha virt. eigenvalues --   -0.02008  -0.00063   0.00000   0.00712   0.01301
 Alpha virt. eigenvalues --    0.02360   0.02445   0.03444   0.04298   0.04764
 Alpha virt. eigenvalues --    0.04843   0.04963   0.06745   0.06794   0.06924

  Beta  occ. eigenvalues --  -19.13923 -19.08769 -19.04804 -19.02423 -10.22235
  Beta  occ. eigenvalues --  -10.19755 -10.19339 -10.18217 -10.15854 -10.15227
  Beta  occ. eigenvalues --  -10.15093 -10.14678 -10.14535 -10.14392 -10.14347
  Beta  occ. eigenvalues --  -10.13931 -10.12931 -10.12625  -1.04930  -1.00761
  Beta  occ. eigenvalues --   -0.95208  -0.93981  -0.83283  -0.81013  -0.76380
  Beta  occ. eigenvalues --   -0.72572  -0.71249  -0.69755  -0.64972  -0.61733
  Beta  occ. eigenvalues --   -0.60186  -0.56709  -0.54590  -0.52884  -0.49436
  Beta  occ. eigenvalues --   -0.48517  -0.47052  -0.44671  -0.44112  -0.42970
  Beta  occ. eigenvalues --   -0.42282  -0.40831  -0.39180  -0.38457  -0.38063
  Beta  occ. eigenvalues --   -0.38035  -0.36680  -0.35781  -0.34828  -0.34539
  Beta  occ. eigenvalues --   -0.33632  -0.32866  -0.32032  -0.30903  -0.30571
  Beta  occ. eigenvalues --   -0.28228  -0.24962  -0.22276  -0.22104  -0.21430
  Beta  occ. eigenvalues --   -0.19968  -0.18207  -0.12052
  Beta virt. eigenvalues --   -0.02008  -0.00063   0.00000   0.00712   0.01301
  Beta virt. eigenvalues --    0.02360   0.02445   0.03444   0.04298   0.04764
  Beta virt. eigenvalues --    0.04843   0.04963   0.06745   0.06794   0.06924

 Mulliken charges and spin densities:
               1          2
     1  O   -0.275453   0.000000
     2  C   -0.045564  -0.000000
     3  C   -0.260605  -0.000000
     4  C   -0.392710   0.000000
     5  C   -0.100034   0.000000
     6  C    0.163099   0.000000
     7  C   -0.346784  -0.000000
     8  O   -0.634056   0.000000
     9  C    0.274074  -0.000000
    10  C   -0.205290   0.000000
    11  C   -0.411249  -0.000000
    12  C   -0.320107   0.000000
    13  C   -0.287750  -0.000000
    14  O   -0.663173   0.000000
    15  C    0.474187   0.000000
    16  C   -0.056166   0.000000
    17  O   -0.594146  -0.000000
    18  C    0.020724   0.000000
    19  H    0.291560   0.000000
    20  H    0.132990   0.000000
    21  H    0.170121  -0.000000
    22  H    0.139433   0.000000
    23  H    0.134672   0.000000
    24  H    0.154683  -0.000000
    25  H    0.140719   0.000000
    26  H    0.496826   0.000000
 Sum of Mulliken charges =  -2.00000   0.00000

 Dipole moment (field-independent basis, Debye):
    X=             -9.3111    Y=             -1.9012    Z=             -0.4473  Tot=              9.5137
 Quadrupole moment (field-independent basis, Debye-Ang):
   XX=           -140.6955   YY=           -164.7822   ZZ=           -117.8417
   XY=             20.9446   XZ=              3.8529   YZ=             -8.6191

  Exact polarizability: 527.996   8.795 363.581  -2.786  36.102 158.628
 Approx polarizability: 573.300   6.803 446.313  -3.441  47.431 176.919

                      1                      2                      3
                      A                      A                      A
 Frequencies --     57.0222                59.8967               100.3549
 Red. masses --      6.4310                 6.4995                10.8969
 Frc consts  --      0.0123                 0.0137                 0.0647
 IR Inten    --      1.4112                11.6034                 3.8362

                      4                      5                      6
                      A                      A                      A
 Frequencies --    161.5394               193.7005               210.2740
 Red. masses --      7.2963                 4.4955                 6.7699
 Frc consts  --      0.1122                 0.0994                 0.1764
 IR Inten    --      2.0093                 0.2610                27.3617

                      7                      8                      9
                      A                      A                      A
 Frequencies --    243.0114               284.6430               313.9743
 Red. masses --      4.0911                 3.5446                 7.1197
 Frc consts  --      0.1423                 0.1692                 0.4135
 IR Inten    --      9.0750                16.7872                22.7407

                     10                     11                     12
                      A                      A                      A
 Frequencies --    347.9896               354.4632               359.4989
 Red. masses --      8.8279                 1.2979                 8.6035
 Frc consts  --      0.6299                 0.0961                 0.6551
 IR Inten    --      6.3279               111.4751                 6.3470

                     13                     14                     15
                      A                      A                      A
 Frequencies --    389.0124               409.2590               448.3897
 Red. masses --      7.0956                 6.4017                 7.8582
 Frc consts  --      0.6327                 0.6317                 0.9309
 IR Inten    --      1.0985                58.2158                 3.4857

                     16                     17                     18
                      A                      A                      A
 Frequencies --    490.7803               494.6786               502.2317
 Red. masses --     10.9217                 4.2083                 6.5617
 Frc consts  --      1.5499                 0.6067                 0.9752
 IR Inten    --     10.2900                 1.2648                20.3151

                     19                     20                     21
                      A                      A                      A
 Frequencies --    539.0286               546.6620               597.4067
 Red. masses --      4.8676                 8.1203                 5.4569
 Frc consts  --      0.8333                 1.4297                 1.1475
 IR Inten    --      6.2050                 5.9384                10.6961

                     22                     23                     24
                      A                      A                      A
 Frequencies --    605.8307               607.5727               611.9931
 Red. masses --      4.7658                 7.1784                 3.8716
 Frc consts  --      1.0306                 1.5613                 0.8544
 IR Inten    --      3.1593                89.8232                11.2341

                     25                     26                     27
                      A                      A                      A
 Frequencies --    691.0164               716.6036               723.5687
 Red. masses --      6.2515                 1.7588                 1.7713
 Frc consts  --      1.7588                 0.5321                 0.5464
 IR Inten    --      7.8825                 0.2573               181.3732

                     28                     29                     30
                      A                      A                      A
 Frequencies --    741.7261               772.4690               782.4699
 Red. masses --      2.6362                 2.5830                 6.2337
 Frc consts  --      0.8545                 0.9081                 2.2487
 IR Inten    --     62.9720                 0.5580                15.2997

                     31                     32                     33
                      A                      A                      A
 Frequencies --    807.3332               819.4367               825.8226
 Red. masses --      5.3290                 8.3779                 1.6702
 Frc consts  --      2.0465                 3.3145                 0.6711
 IR Inten    --     30.8731                63.1966                 1.0132

                     34                     35                     36
                      A                      A                      A
 Frequencies --    835.9103               914.7656               943.3102
 Red. masses --      1.6107                 6.3142                 1.2477
 Frc consts  --      0.6631                 3.1131                 0.6541
 IR Inten    --      1.6487                20.1489                 0.6425

                     37                     38                     39
                      A                      A                      A
 Frequencies --    952.9698               959.3650               972.7954
 Red. masses --      1.2728                 1.0518                 6.7470
 Frc consts  --      0.6810                 0.5704                 3.7619
 IR Inten    --      0.4170               139.2025               633.6991

                     40                     41                     42
                      A                      A                      A
 Frequencies --   1043.1282              1057.9835              1071.1152
 Red. masses --      4.0232                 2.6763                 1.9113
 Frc consts  --      2.5793                 1.7650                 1.2920
 IR Inten    --     28.4971                84.5734               236.4621

                     43                     44                     45
                      A                      A                      A
 Frequencies --   1100.8671              1133.7406              1158.8422
 Red. masses --      2.3407                 1.4054                 1.2485
 Frc consts  --      1.6713                 1.0644                 0.9878
 IR Inten    --    151.7592               290.7390                 8.7645

                     46                     47                     48
                      A                      A                      A
 Frequencies --   1195.1015              1225.5536              1248.6567
 Red. masses --      1.8536                 3.8031                 2.1312
 Frc consts  --      1.5599                 3.3655                 1.9577
 IR Inten    --     98.0728               397.5343               318.9117

                     49                     50                     51
                      A                      A                      A
 Frequencies --   1255.3824              1284.1917              1307.9975
 Red. masses --      2.4444                 3.7218                 6.0299
 Frc consts  --      2.2698                 3.6163                 6.0782
 IR Inten    --     45.5799               281.1002                55.3961

                     52                     53                     54
                      A                      A                      A
 Frequencies --   1333.9246              1355.9256              1383.3344
 Red. masses --      4.4343                 5.8047                 5.6443
 Frc consts  --      4.6488                 6.2879                 6.3638
 IR Inten    --     43.7286               527.2301               872.3107

                     55                     56                     57
                      A                      A                      A
 Frequencies --   1404.7311              1443.9214              1450.8007
 Red. masses --      2.5843                 4.0858                 2.7972
 Frc consts  --      3.0046                 5.0189                 3.4689
 IR Inten    --    883.6084               949.0395                75.3977

                     58                     59                     60
                      A                      A                      A
 Frequencies --   1474.9243              1506.2561              1532.3847
 Red. masses --      2.9998                 3.1478                 5.2218
 Frc consts  --      3.8449                 4.2078                 7.2244
 IR Inten    --     86.2929                26.2089               140.5047

                     61                     62                     63
                      A                      A                      A
 Frequencies --   1577.3244              1589.9198              1619.9070
 Red. masses --      7.5329                 5.6669                 5.3988
 Frc consts  --     11.0422                 8.4401                 8.3470
 IR Inten    --    221.1761                70.7311               120.0343

                     64                     65                     66
                      A                      A                      A
 Frequencies --   1661.9143              2657.8603              3124.8308
 Red. masses --      1.5159                 1.0824                 1.0857
 Frc consts  --      2.4669                 4.5052                 6.2459
 IR Inten    --     79.9422              1692.4257                56.0472

                     67                     68                     69
                      A                      A                      A
 Frequencies --   3134.2969              3149.6409              3160.4638
 Red. masses --      1.0878                 1.0913                 1.0896
 Frc consts  --      6.2962                 6.3787                 6.4125
 IR Inten    --     54.4236                92.4922                26.2462

                     70                     71                     72
                      A                      A                      A
 Frequencies --   3182.8026              3186.5256              3798.8753
 Red. masses --      1.0917                 1.0930                 1.0658
 Frc consts  --      6.5161                 6.5387                 9.0624
 IR Inten    --     44.6257                40.1689                84.0796

 - Thermochemistry -
 -------------------
 Temperature   298.150 Kelvin.  Pressure   1.00000 Atm.
 Atom     1 has atomic number  8 and mass  15.99491

 Molecular mass:   240.04226 amu.
 Principal axes and moments of inertia in atomic units:
                           1         2         3
     Eigenvalues --  2474.631424787.840177262.05302
           X            0.99534  -0.09590   0.01015
           Y            0.09624   0.98084  -0.16940
           Z            0.00629   0.16959   0.98549
 This molecule is an asymmetric top.
 Rotational symmetry number  1.
 Warning -- assumption of classical behavior for rotation
           may cause significant error
 Rotational temperatures (Kelvin)      0.03500     0.01809     0.01193
 Rotational constants (GHZ):           0.72930     0.37694     0.24852
 Zero-point vibrational energy     479713.9 (Joules/Mol)
                                  114.65437 (Kcal/Mol)
 Warning -- explicit consideration of  24 degrees of freedom as
           vibrations may cause significant error
 Vibrational temperatures:     82.04    86.18   144.39   232.42   278.69
          (Kelvin)            302.54   349.64   409.54   451.74   500.68
                              509.99   517.24   559.70   588.83   645.13
                              706.12   711.73   722.60   775.54   786.52
                              859.53   871.66   874.16   880.52   994.22
                             1031.03  1041.05  1067.18  1111.41  1125.80
                             1161.57  1178.99  1188.17  1202.69  1316.14
                             1357.21  1371.11  1380.31  1399.64  1500.83
                             1522.20  1541.10  1583.90  1631.20  1667.32
                             1719.48  1763.30  1796.54  1806.22  1847.67
                             1881.92  1919.22  1950.87  1990.31  2021.09
                             2077.48  2087.38  2122.09  2167.17  2204.76
                             2269.42  2287.54  2330.68  2391.12  3824.07
                             4495.93  4509.55  4531.63  4547.20  4579.34
                             4584.70  5465.73

 Zero-point correction=                           0.182713 (Hartree/Particle)
 Thermal correction to Energy=                    0.196064
 Thermal correction to Enthalpy=                  0.197009
 Thermal correction to Gibbs Free Energy=         0.142953
 Sum of electronic and zero-point Energies=           -839.523484
 Sum of electronic and thermal Energies=              -839.510133
 Sum of electronic and thermal Enthalpies=            -839.509189
 Sum of electronic and thermal Free Energies=         -839.563245

                     E (Thermal)             CV                S
                      KCal/Mol        Cal/Mol-Kelvin    Cal/Mol-Kelvin
 Total                  123.032             54.769            113.770
 Electronic               0.000              0.000              0.000
 Translational            0.889              2.981             42.328
 Rotational               0.889              2.981             32.820
 Vibrational            121.255             48.807             38.622
 Vibration     1          0.596              1.975              4.558
 Vibration     2          0.597              1.973              4.461
 Vibration     3          0.604              1.949              3.447
 Vibration     4          0.622              1.890              2.532
 Vibration     5          0.635              1.849              2.192
 Vibration     6          0.642              1.825              2.041
 Vibration     7          0.659              1.774              1.781
 Vibration     8          0.683              1.702              1.506
 Vibration     9          0.702              1.647              1.341
 Vibration    10          0.726              1.579              1.175
 Vibration    11          0.730              1.566              1.146
 Vibration    12          0.734              1.556              1.124
 Vibration    13          0.757              1.494              1.004
 Vibration    14          0.774              1.450              0.929
 Vibration    15          0.807              1.364              0.801
 Vibration    16          0.847              1.270              0.682
 Vibration    17          0.850              1.262              0.672
 Vibration    18          0.858              1.245              0.653
 Vibration    19          0.894              1.164              0.567
 Vibration    20          0.902              1.147              0.551
 Vibration    21          0.955              1.037              0.454
 Vibration    22          0.964              1.019              0.440
 Vibration    23          0.966              1.016              0.437
 Vibration    24          0.971              1.006              0.429

                           ! Non-Optimized Parameters !
 Normal termination of Gaussian 16 at Sat Feb 10 23:47:12 2024.
