 Gaussian 16, Revision A.03,
 Gaussian 16:  ES64L-G16RevA.03 25-Dec-2016

 --------------------------------------
 #P UB3LYP/6-311++G(d,p) nosym opt freq
 --------------------------------------

 -------
 Radical
 -------
 Symbolic Z-matrix:
 Charge = -1 Multiplicity = 2

 SCF Done:  E(UB3LYP) =  -573.638752547     A.U. after   23 cycles
 SCF Done:  E(UB3LYP) =  -573.654273945     A.U. after   18 cycles
 SCF Done:  E(UB3LYP) =  -573.655249643     A.U. after   17 cycles
 SCF Done:  E(UB3LYP) =  -573.656002968     A.U. after   17 cycles
 SCF Done:  E(UB3LYP) =  -573.656025839     A.U. after   15 cycles
 SCF Done:  E(UB3LYP) =  -573.655971090     A.U. after   16 cycles
 SCF Done:  E(UB3LYP) =  -573.656028337     A.U. after   15 cycles
 SCF Done:  E(UB3LYP) =  -573.656030824     A.U. after   14 cycles
 SCF Done:  E(UB3LYP) =  -573.656030907     A.U. after   10 cycles
 SCF Done:  E(UB3LYP) =  -573.656031176     A.U. after   12 cycles
 SCF Done:  E(UB3LYP) =  -573.658519150     A.U. after   16 cycles
 SCF Done:  E(UB3LYP) =  -573.659130477     A.U. after   18 cycles
 SCF Done:  E(UB3LYP) =  -573.659555495     A.U. after   16 cycles
 SCF Done:  E(UB3LYP) =  -573.660404102     A.U. after   18 cycles
 SCF Done:  E(UB3LYP) =  -573.660555122     A.U. after   17 cycles
 SCF Done:  E(UB3LYP) =  -573.660624010     A.U. after   18 cycles
 SCF Done:  E(UB3LYP) =  -573.660637130     A.U. after   14 cycles
 SCF Done:  E(UB3LYP) =  -573.660638208     A.U. after   14 cycles
 SCF Done:  E(UB3LYP) =  -573.660638289     A.U. after   11 cycles
 Optimization completed.
    -- Stationary point found.
 Normal termination of Gaussian 16 at Sun Dec 17 22:05:32 2023.

 ----------------------------------------------------------------------
 #P Geom=AllCheck Guess=TCheck SCRF=Check GenChk UB3LYP/6-311++G(d,p) F
 req
 ----------------------------------------------------------------------

 Structure from the checkpoint file:  "059-rad.chk"
 -------
 Radical
 -------
 Charge = -1 Multiplicity = 2

                          Input orientation:
 ---------------------------------------------------------------------
 Center     Atomic      Atomic             Coordinates (Angstroms)
 Number     Number       Type             X           Y           Z
 ---------------------------------------------------------------------
      1          6           0       -0.502359    1.167827   -0.363149
      2          6           0       -1.468194    0.139699   -0.799868
      3          6           0       -1.292510   -1.177868   -0.500676
      4          6           0       -0.158908   -1.674287    0.259569
      5          6           0        0.773678   -0.672529    0.695636
      6          6           0        0.630288    0.687291    0.441590
      7          8           0       -0.665303    2.353626   -0.717486
      8          8           0       -0.011135   -2.903703    0.520706
      9          6           0        1.620355    1.635680    1.003273
     10          6           0        3.006830    1.084458    1.371385
     11          8           0        1.400424    2.820550    1.210481
     12          1           0        3.417642    0.439953    0.590425
     13          1           0        2.954137    0.493660    2.291898
     14          1           0        3.668270    1.934003    1.544145
     15          1           0        1.608716   -1.043502    1.279576
     16          6           0       -2.642834    0.625529   -1.605674
     17          1           0       -2.010765   -1.923898   -0.834367
     18          1           0       -3.215227    1.374564   -1.048932
     19          1           0       -3.303908   -0.203570   -1.872998
     20          1           0       -2.308047    1.125176   -2.520564
 ---------------------------------------------------------------------

 SCF Done:  E(UB3LYP) =  -573.660638289     A.U. after    2 cycles

 Alpha  occ. eigenvalues --  -18.97190 -18.94379 -18.94356 -10.12696 -10.09600
 Alpha  occ. eigenvalues --  -10.08769 -10.05467 -10.05077 -10.04631 -10.04400
 Alpha  occ. eigenvalues --  -10.04114 -10.03801  -0.90488  -0.87049  -0.86280
 Alpha  occ. eigenvalues --   -0.70233  -0.65798  -0.61424  -0.57766  -0.54242
 Alpha  occ. eigenvalues --   -0.49168  -0.43542  -0.39774  -0.35774  -0.34582
 Alpha  occ. eigenvalues --   -0.32963  -0.32258  -0.30380  -0.29757  -0.29355
 Alpha  occ. eigenvalues --   -0.27422  -0.26913  -0.26563  -0.26226  -0.24412
 Alpha  occ. eigenvalues --   -0.23964  -0.23377  -0.22370  -0.14993  -0.13241
 Alpha  occ. eigenvalues --   -0.12934  -0.10765  -0.09134  -0.03220
 Alpha virt. eigenvalues --    0.07755   0.08873   0.09167   0.11514   0.11958
 Alpha virt. eigenvalues --    0.12308   0.13253   0.13458   0.14619   0.15119
 Alpha virt. eigenvalues --    0.15238   0.16760   0.17209   0.17630   0.18762

  Beta  occ. eigenvalues --  -18.97083 -18.93764 -18.93586 -10.12690 -10.09550
  Beta  occ. eigenvalues --  -10.08691 -10.05469 -10.04962 -10.04640 -10.04279
  Beta  occ. eigenvalues --  -10.03848 -10.03785  -0.90287  -0.86055  -0.84905
  Beta  occ. eigenvalues --   -0.69681  -0.65556  -0.61257  -0.57484  -0.53411
  Beta  occ. eigenvalues --   -0.48837  -0.43197  -0.39528  -0.35572  -0.34369
  Beta  occ. eigenvalues --   -0.32707  -0.32061  -0.30009  -0.29637  -0.29102
  Beta  occ. eigenvalues --   -0.27330  -0.26457  -0.26114  -0.25063  -0.23650
  Beta  occ. eigenvalues --   -0.23403  -0.22321  -0.20838  -0.12908  -0.12186
  Beta  occ. eigenvalues --   -0.11576  -0.10042  -0.08659
  Beta virt. eigenvalues --    0.03792   0.08818   0.09041   0.09167   0.11530
  Beta virt. eigenvalues --    0.11987   0.12383   0.13386   0.13519   0.15147
  Beta virt. eigenvalues --    0.15235   0.15829   0.17215   0.17421   0.17700

 Mulliken charges and spin densities:
               1          2
     1  C   -1.710318  -0.025285
     2  C    1.485083   0.085117
     3  C   -0.427351   0.002583
     4  C   -0.609119   0.101195
     5  C   -0.618289   0.196830
     6  C    1.763319   0.087402
     7  O   -0.320038   0.222033
     8  O   -0.400902   0.282602
     9  C   -0.034027   0.014460
    10  C   -0.572774   0.003196
    11  O   -0.277338   0.038924
    12  H    0.131286  -0.000547
    13  H    0.145859   0.001226
    14  H    0.165461  -0.000393
    15  H    0.141791  -0.013918
    16  C   -0.414659  -0.000966
    17  H    0.123352  -0.003029
    18  H    0.154741   0.003891
    19  H    0.117105  -0.000330
    20  H    0.156817   0.005008
 Sum of Mulliken charges =  -1.00000   1.00000

 Dipole moment (field-independent basis, Debye):
    X=              0.1775    Y=             -2.0171    Z=             -1.1567  Tot=              2.3320
 Quadrupole moment (field-independent basis, Debye-Ang):
   XX=            -75.3445   YY=           -121.0129   ZZ=            -77.0314
   XY=             -2.0432   XZ=             -2.5605   YZ=              1.6533

  Exact polarizability: 145.282   9.960 180.262  40.806  -4.946 101.439
 Approx polarizability: 188.505  -0.228 324.969  45.991 -20.161 148.585

                      1                      2                      3
                      A                      A                      A
 Frequencies --     38.2594                67.9480               137.8812
 Red. masses --      4.5707                 5.6898                 1.1226
 Frc consts  --      0.0039                 0.0155                 0.0126
 IR Inten    --      6.0365                 4.5672                 0.0594

                      4                      5                      6
                      A                      A                      A
 Frequencies --    141.7363               146.9543               180.7776
 Red. masses --      1.1086                 4.3990                 5.0654
 Frc consts  --      0.0131                 0.0560                 0.0975
 IR Inten    --      0.4331                 6.3343                 4.2987

                      7                      8                      9
                      A                      A                      A
 Frequencies --    201.2181               291.1699               327.8933
 Red. masses --      3.0964                 3.3027                 5.4987
 Frc consts  --      0.0739                 0.1650                 0.3483
 IR Inten    --      0.0717                 0.3374                 3.1976

                     10                     11                     12
                      A                      A                      A
 Frequencies --    330.1351               386.9763               410.9488
 Red. masses --      5.7090                 4.6147                 7.0959
 Frc consts  --      0.3666                 0.4072                 0.7060
 IR Inten    --      2.6849                 2.2851                12.0550

                     13                     14                     15
                      A                      A                      A
 Frequencies --    448.1716               471.7353               520.5232
 Red. masses --      4.8474                 7.5490                 5.6243
 Frc consts  --      0.5737                 0.9898                 0.8978
 IR Inten    --      2.4797                 1.0973                 4.4260

                     16                     17                     18
                      A                      A                      A
 Frequencies --    573.2300               600.1125               647.9032
 Red. masses --      3.0013                 3.3778                 2.8079
 Frc consts  --      0.5811                 0.7167                 0.6945
 IR Inten    --      0.8248                10.6963                 0.2335

                     19                     20                     21
                      A                      A                      A
 Frequencies --    652.2647               774.3541               798.6114
 Red. masses --      4.1134                 5.5500                 5.0285
 Frc consts  --      1.0311                 1.9607                 1.8896
 IR Inten    --      5.3474                 5.6102                18.5748

                     22                     23                     24
                      A                      A                      A
 Frequencies --    851.0842               858.2217               890.8852
 Red. masses --      3.7198                 1.6596                 1.5635
 Frc consts  --      1.5875                 0.7202                 0.7311
 IR Inten    --     14.9326                 4.5703                28.8158

                     25                     26                     27
                      A                      A                      A
 Frequencies --    939.3784               986.0495              1020.6016
 Red. masses --      2.5328                 2.4804                 1.6180
 Frc consts  --      1.3168                 1.4209                 0.9930
 IR Inten    --     52.8038                38.2974                28.3561

                     28                     29                     30
                      A                      A                      A
 Frequencies --   1028.1142              1052.6641              1103.9293
 Red. masses --      1.8916                 1.5027                 2.5728
 Frc consts  --      1.1780                 0.9811                 1.8473
 IR Inten    --      1.3418                 0.9808                10.9795

                     31                     32                     33
                      A                      A                      A
 Frequencies --   1179.9644              1235.0019              1269.0764
 Red. masses --      3.0476                 1.9441                 2.5658
 Frc consts  --      2.5000                 1.7471                 2.4347
 IR Inten    --     61.8884               208.2553                 4.8629

                     34                     35                     36
                      A                      A                      A
 Frequencies --   1330.7676              1367.7698              1395.8810
 Red. masses --      2.2445                 1.3580                 1.5991
 Frc consts  --      2.3419                 1.4969                 1.8357
 IR Inten    --     51.5572                47.0778                15.9917

                     37                     38                     39
                      A                      A                      A
 Frequencies --   1408.0707              1463.5189              1470.7764
 Red. masses --      3.2510                 1.0492                 3.5015
 Frc consts  --      3.7977                 1.3240                 4.4627
 IR Inten    --      0.3239                 5.2734               236.6992

                     40                     41                     42
                      A                      A                      A
 Frequencies --   1474.0508              1478.8938              1479.5408
 Red. masses --      1.1872                 1.0849                 1.1954
 Frc consts  --      1.5199                 1.3980                 1.5418
 IR Inten    --      8.0991                 6.5457                28.5410

                     43                     44                     45
                      A                      A                      A
 Frequencies --   1528.7814              1560.6705              1642.3224
 Red. masses --      4.3867                 9.3859                 6.3649
 Frc consts  --      6.0406                13.4694                10.1149
 IR Inten    --    211.7020                84.6315                53.6701

                     46                     47                     48
                      A                      A                      A
 Frequencies --   1707.5172              3012.3878              3023.0838
 Red. masses --     10.6822                 1.0341                 1.0368
 Frc consts  --     18.3502                 5.5289                 5.5826
 IR Inten    --    402.5642                73.6909                17.4963

                     49                     50                     51
                      A                      A                      A
 Frequencies --   3058.1622              3082.5381              3084.1972
 Red. masses --      1.0987                 1.1029                 1.0973
 Frc consts  --      6.0542                 6.1745                 6.1500
 IR Inten    --     27.0699                24.5990                20.4295

                     52                     53                     54
                      A                      A                      A
 Frequencies --   3119.5760              3128.8477              3170.6782
 Red. masses --      1.1031                 1.0894                 1.0876
 Frc consts  --      6.3251                 6.2836                 6.4420
 IR Inten    --     26.5165                41.0319                12.9016

 - Thermochemistry -
 -------------------
 Temperature   298.150 Kelvin.  Pressure   1.00000 Atm.
 Atom     1 has atomic number  6 and mass  12.00000

 Molecular mass:   164.04734 amu.
 Principal axes and moments of inertia in atomic units:
                           1         2         3
     Eigenvalues --  1453.962782155.865893541.42304
           X            0.69880  -0.49524  -0.51616
           Y            0.61783   0.78153   0.08659
           Z            0.36051  -0.37941   0.85210
 This molecule is an asymmetric top.
 Rotational symmetry number  1.
 Warning -- assumption of classical behavior for rotation
           may cause significant error
 Rotational temperatures (Kelvin)      0.05957     0.04018     0.02446
 Rotational constants (GHZ):           1.24126     0.83713     0.50961
 Zero-point vibrational energy     386105.6 (Joules/Mol)
                                   92.28144 (Kcal/Mol)
 Warning -- explicit consideration of  17 degrees of freedom as
           vibrations may cause significant error
 Vibrational temperatures:     55.05    97.76   198.38   203.93   211.43
          (Kelvin)            260.10   289.51   418.93   471.77   474.99
                              556.77   591.26   644.82   678.72   748.92
                              824.75   863.43   932.19   938.46  1114.12
                             1149.02  1224.52  1234.79  1281.79  1351.56
                             1418.71  1468.42  1479.23  1514.55  1588.31
                             1697.71  1776.89  1825.92  1914.68  1967.92
                             2008.36  2025.90  2105.68  2116.12  2120.83
                             2127.80  2128.73  2199.58  2245.46  2362.94
                             2456.74  4334.15  4349.54  4400.01  4435.08
                             4437.47  4488.37  4501.71  4561.90

 Zero-point correction=                           0.147060 (Hartree/Particle)
 Thermal correction to Energy=                    0.158493
 Thermal correction to Enthalpy=                  0.159438
 Thermal correction to Gibbs Free Energy=         0.108514
 Sum of electronic and zero-point Energies=           -573.513578
 Sum of electronic and thermal Energies=              -573.502145
 Sum of electronic and thermal Enthalpies=            -573.501201
 Sum of electronic and thermal Free Energies=         -573.552124

                     E (Thermal)             CV                S
                      KCal/Mol        Cal/Mol-Kelvin    Cal/Mol-Kelvin
 Total                   99.456             41.859            107.177
 Electronic               0.000              0.000              1.377
 Translational            0.889              2.981             41.193
 Rotational               0.889              2.981             30.785
 Vibrational             97.679             35.897             33.821
 Vibration     1          0.594              1.982              5.347
 Vibration     2          0.598              1.969              4.212
 Vibration     3          0.614              1.915              2.833
 Vibration     4          0.615              1.912              2.780
 Vibration     5          0.617              1.906              2.711
 Vibration     6          0.630              1.866              2.320
 Vibration     7          0.638              1.838              2.122
 Vibration     8          0.687              1.690              1.467
 Vibration     9          0.711              1.620              1.270
 Vibration    10          0.713              1.615              1.259
 Vibration    11          0.755              1.498              1.012
 Vibration    12          0.775              1.446              0.923
 Vibration    13          0.807              1.365              0.801
 Vibration    14          0.829              1.313              0.733
 Vibration    15          0.876              1.205              0.609
 Vibration    16          0.929              1.089              0.498
 Vibration    17          0.958              1.032              0.449

                           ! Non-Optimized Parameters !
 Normal termination of Gaussian 16 at Sun Dec 17 22:21:50 2023.
