 Gaussian 16, Revision A.03,
 Gaussian 16:  ES64L-G16RevA.03 25-Dec-2016

 ----------------------------------------------------------------
 #P UB3LYP/6-311++G(d,p) SCRF=(PCM,Solvent=n,n-DiMethylFormamide)
 ----------------------------------------------------------------

 -------
 Reduced
 -------
 Symbolic Z-matrix:
 Charge = -2 Multiplicity = 1

                         Standard orientation:
 ---------------------------------------------------------------------
 Center     Atomic      Atomic             Coordinates (Angstroms)
 Number     Number       Type             X           Y           Z
 ---------------------------------------------------------------------
      1          6           0        5.022720    0.810369   -0.638922
      2          6           0        5.728509   -0.368416   -0.551887
      3          6           0        5.120543   -1.515159    0.015757
      4          6           0        3.695928    0.908500   -0.173011
      5          6           0        3.080626   -0.252368    0.399598
      6          6           0        3.824983   -1.446681    0.476556
      7          6           0        2.991830    2.180617   -0.281616
      8          6           0        1.641576    2.179824    0.220522
      9          6           0        1.041705    1.043039    0.790809
     10          6           0        1.712848   -0.225012    0.901076
     11          8           0        3.554295    3.211607   -0.788315
     12          8           0        1.160407   -1.261408    1.406629
     13          6           0        0.895641    3.490950    0.113932
     14          6           0       -0.370672    1.080802    1.332323
     15          6           0       -1.436324    0.578572    0.336228
     16          6           0       -2.855277    0.583405    0.918573
     17          6           0       -3.939078    0.102306   -0.055121
     18          6           0       -5.354561    0.118971    0.536644
     19          6           0       -6.449165   -0.343538   -0.433783
     20          6           0       -7.860305   -0.316088    0.167318
     21          6           0       -8.961723   -0.768909   -0.799642
     22          6           0      -10.369954   -0.732760   -0.191913
     23          6           0      -11.471003   -1.180768   -1.157623
     24         17           0        6.008308   -3.051771    0.146146
     25         17           0        7.400226   -0.425519   -1.160063
     26          1           0        5.467659    1.700211   -1.068176
     27          1           0        3.338569   -2.310976    0.913130
     28          1           0        1.490093    4.178570   -0.490271
     29          1           0        0.737327    3.959132    1.096818
     30          1           0       -0.094315    3.373734   -0.343903
     31          1           0       -0.636505    2.093974    1.656013
     32          1           0       -0.406991    0.426388    2.210536
     33          1           0       -1.162154   -0.437545    0.034997
     34          1           0       -1.411266    1.198592   -0.569414
     35          1           0       -3.105644    1.599533    1.256638
     36          1           0       -2.873190   -0.047935    1.817116
     37          1           0       -3.697230   -0.915245   -0.388630
     38          1           0       -3.918135    0.729063   -0.956890
     39          1           0       -5.587957    1.135696    0.881261
     40          1           0       -5.377009   -0.515288    1.433016
     41          1           0       -6.221797   -1.361382   -0.777193
     42          1           0       -6.426981    0.289294   -1.331004
     43          1           0       -8.083557    0.701684    0.514713
     44          1           0       -7.883134   -0.951968    1.062476
     45          1           0       -8.745146   -1.788005   -1.145944
     46          1           0       -8.940976   -0.135104   -1.695942
     47          1           0      -10.585535    0.285646    0.156223
     48          1           0      -10.392259   -1.367173    0.703485
     49          1           0      -11.506756   -0.542206   -2.047735
     50          1           0      -12.460847   -1.141255   -0.690022
     51          1           0      -11.312042   -2.211023   -1.496144
 ---------------------------------------------------------------------

 SCF Done:  E(UB3LYP) =  -1887.32237063     A.U. after   22 cycles

 The electronic state is 1-A.
 Alpha  occ. eigenvalues -- -101.54673-101.54669 -19.01237 -19.01216 -10.21932
 Alpha  occ. eigenvalues --  -10.21887 -10.16611 -10.16531 -10.16019 -10.16016
 Alpha  occ. eigenvalues --  -10.16000 -10.15746 -10.15713 -10.15648 -10.15556
 Alpha  occ. eigenvalues --  -10.15409 -10.15384 -10.15067 -10.14438 -10.13897
 Alpha  occ. eigenvalues --  -10.13854 -10.13654 -10.13300 -10.12578 -10.12238
 Alpha  occ. eigenvalues --   -9.46120  -9.46115  -7.22553  -7.22549  -7.21617
 Alpha  occ. eigenvalues --   -7.21613  -7.21590  -7.21585  -0.93704  -0.93340
 Alpha  occ. eigenvalues --   -0.88874  -0.84132  -0.81336  -0.80710  -0.79197
 Alpha  occ. eigenvalues --   -0.77729  -0.75699  -0.72850  -0.72759  -0.71360
 Alpha  occ. eigenvalues --   -0.69188  -0.66204  -0.63666  -0.62036  -0.60183
 Alpha  occ. eigenvalues --   -0.58438  -0.57339  -0.56997  -0.56416  -0.54776
 Alpha  occ. eigenvalues --   -0.51999  -0.48611  -0.47958  -0.46445  -0.46136
 Alpha  occ. eigenvalues --   -0.45287  -0.44226  -0.43017  -0.42833  -0.41722
 Alpha  occ. eigenvalues --   -0.41601  -0.40913  -0.40379  -0.39981  -0.39188
 Alpha  occ. eigenvalues --   -0.38931  -0.38657  -0.38148  -0.37543  -0.36531
 Alpha  occ. eigenvalues --   -0.35735  -0.35452  -0.35107  -0.34808  -0.34619
 Alpha  occ. eigenvalues --   -0.33926  -0.33843  -0.33228  -0.33008  -0.32289
 Alpha  occ. eigenvalues --   -0.32145  -0.31878  -0.31681  -0.31651  -0.31428
 Alpha  occ. eigenvalues --   -0.31143  -0.30858  -0.30325  -0.30002  -0.29289
 Alpha  occ. eigenvalues --   -0.28703  -0.23426  -0.22127  -0.20199  -0.19752
 Alpha  occ. eigenvalues --   -0.18773  -0.10484
 Alpha virt. eigenvalues --   -0.01500  -0.00348  -0.00247   0.00133   0.00699
 Alpha virt. eigenvalues --    0.00834   0.01004   0.01044   0.01667   0.01797
 Alpha virt. eigenvalues --    0.02260   0.02740   0.02993   0.03495   0.04041

  Beta  occ. eigenvalues -- -101.54673-101.54669 -19.01237 -19.01216 -10.21932
  Beta  occ. eigenvalues --  -10.21887 -10.16611 -10.16531 -10.16019 -10.16016
  Beta  occ. eigenvalues --  -10.16000 -10.15746 -10.15713 -10.15648 -10.15556
  Beta  occ. eigenvalues --  -10.15409 -10.15384 -10.15067 -10.14438 -10.13897
  Beta  occ. eigenvalues --  -10.13854 -10.13654 -10.13300 -10.12578 -10.12238
  Beta  occ. eigenvalues --   -9.46120  -9.46115  -7.22553  -7.22549  -7.21617
  Beta  occ. eigenvalues --   -7.21613  -7.21590  -7.21585  -0.93704  -0.93340
  Beta  occ. eigenvalues --   -0.88874  -0.84132  -0.81336  -0.80710  -0.79197
  Beta  occ. eigenvalues --   -0.77729  -0.75699  -0.72850  -0.72759  -0.71360
  Beta  occ. eigenvalues --   -0.69188  -0.66204  -0.63666  -0.62036  -0.60183
  Beta  occ. eigenvalues --   -0.58438  -0.57339  -0.56997  -0.56416  -0.54776
  Beta  occ. eigenvalues --   -0.51999  -0.48611  -0.47958  -0.46445  -0.46136
  Beta  occ. eigenvalues --   -0.45287  -0.44226  -0.43017  -0.42833  -0.41722
  Beta  occ. eigenvalues --   -0.41601  -0.40913  -0.40379  -0.39981  -0.39188
  Beta  occ. eigenvalues --   -0.38931  -0.38657  -0.38148  -0.37543  -0.36531
  Beta  occ. eigenvalues --   -0.35735  -0.35452  -0.35107  -0.34808  -0.34619
  Beta  occ. eigenvalues --   -0.33926  -0.33843  -0.33228  -0.33008  -0.32289
  Beta  occ. eigenvalues --   -0.32145  -0.31878  -0.31681  -0.31651  -0.31428
  Beta  occ. eigenvalues --   -0.31143  -0.30858  -0.30325  -0.30002  -0.29289
  Beta  occ. eigenvalues --   -0.28703  -0.23426  -0.22127  -0.20199  -0.19752
  Beta  occ. eigenvalues --   -0.18773  -0.10484
  Beta virt. eigenvalues --   -0.01500  -0.00348  -0.00247   0.00133   0.00699
  Beta virt. eigenvalues --    0.00834   0.01004   0.01044   0.01667   0.01797
  Beta virt. eigenvalues --    0.02260   0.02740   0.02993   0.03495   0.04041

 Mulliken charges and spin densities:
               1          2
     1  C   -0.488332   0.000000
     2  C    0.388025  -0.000000
     3  C    0.289635  -0.000000
     4  C   -0.512357  -0.000000
     5  C   -0.473674   0.000000
     6  C   -0.461690   0.000000
     7  C   -0.648639  -0.000000
     8  C    0.533562  -0.000000
     9  C    0.581625   0.000000
    10  C   -0.828271   0.000000
    11  O   -0.677967   0.000000
    12  O   -0.643960  -0.000000
    13  C   -0.415162  -0.000000
    14  C   -0.327869   0.000000
    15  C   -0.991046  -0.000000
    16  C   -0.257116  -0.000000
    17  C   -0.014981   0.000000
    18  C    0.078567   0.000000
    19  C   -0.027508   0.000000
    20  C   -0.224786   0.000000
    21  C   -0.446106  -0.000000
    22  C   -0.274601  -0.000000
    23  C   -0.697757  -0.000000
    24  Cl   0.445668  -0.000000
    25  Cl   0.439616   0.000000
    26  H    0.184023   0.000000
    27  H    0.179606  -0.000000
    28  H    0.167399   0.000000
    29  H    0.150316  -0.000000
    30  H    0.139218  -0.000000
    31  H    0.158486   0.000000
    32  H    0.186696  -0.000000
    33  H    0.199425   0.000000
    34  H    0.117486  -0.000000
    35  H    0.103446   0.000000
    36  H    0.115058  -0.000000
    37  H    0.122326  -0.000000
    38  H    0.126009   0.000000
    39  H    0.127604  -0.000000
    40  H    0.129744   0.000000
    41  H    0.130504   0.000000
    42  H    0.128733   0.000000
    43  H    0.125509  -0.000000
    44  H    0.125821  -0.000000
    45  H    0.124416   0.000000
    46  H    0.123493  -0.000000
    47  H    0.130865   0.000000
    48  H    0.131190   0.000000
    49  H    0.140317   0.000000
    50  H    0.147139   0.000000
    51  H    0.140295   0.000000
 Sum of Mulliken charges =  -2.00000  -0.00000

 Dipole moment (field-independent basis, Debye):
    X=            -29.4636    Y=             -5.0201    Z=             -1.5475  Tot=             29.9283
 Quadrupole moment (field-independent basis, Debye-Ang):
   XX=           -312.6671   YY=           -228.1817   ZZ=           -189.9243
   XY=            -18.6819   XZ=              9.2659   YZ=             13.3107

 Normal termination of Gaussian 16 at Sun Jan 21 09:05:25 2024.
