 Q-Chem 5.4, Q-Chem, Inc., Pleasanton, CA (2021)
 Q-Chem 5.4.0 for Intel X86 EM64T Linux

User input:
--------------------------------------------------------------
$molecule
0 1
C                  2.6587340000      1.4080970000      0.9043670000
C                  2.3854050000      0.5201810000     -0.3303020000
C                  3.6533730000     -0.2288960000     -0.7564730000
C                  1.2020780000     -0.3872910000     -0.0672130000
C                  1.2966880000     -1.6889320000      0.2548120000
C                  0.1109190000     -2.5198300000      0.5442590000
O                  0.2223730000     -3.7015340000      0.8410270000
C                 -1.2155880000     -1.8745680000      0.4686280000
C                 -1.3803580000     -0.5809910000      0.1391660000
C                 -2.7583640000      0.0502520000      0.0649790000
C                 -2.9377660000      1.1961460000      1.0803730000
C                 -3.1246430000      0.4976200000     -1.3643280000
C                 -0.1624600000      0.2429440000     -0.1710790000
O                 -0.2688420000      1.4092700000     -0.5157630000
H                  3.4711970000      2.1073590000      0.6889990000
H                  2.9553830000      0.7967340000      1.7619670000
H                  1.7785280000      1.9908870000      1.1801110000
H                  2.0854250000      1.1887120000     -1.1432330000
H                  4.4326390000      0.4886290000     -1.0253760000
H                  3.4728400000     -0.8698950000     -1.6233460000
H                  4.0516370000     -0.8514280000      0.0503890000
H                  2.2478750000     -2.2038710000      0.3253330000
H                 -2.0600520000     -2.5177600000      0.6961600000
H                 -3.4577220000     -0.7454020000      0.3456850000
H                 -2.3031840000      2.0475150000      0.8321230000
H                 -3.9787350000      1.5314510000      1.0751050000
H                 -2.6981090000      0.8672580000      2.0953560000
H                 -4.1663020000      0.8300750000     -1.3890170000
H                 -3.0197000000     -0.3260510000     -2.0757990000
H                 -2.4932690000      1.3233170000     -1.6937660000
$end
$rem
MAX_SCF_CYCLES=200
BASIS  =  6-311++G(d,p)
GUI  =  2
JOB_TYPE  =  SP
METHOD  =  B3LYP
SOLVENT_METHOD = COSMO
$end
$solvent
dielectric 37.219
opticaldielectric 1.43
$end

--------------------------------------------------------------

             Standard Nuclear Orientation (Angstroms)
    I     Atom           X                Y                Z
 ----------------------------------------------------------------
    1      C      -2.5322748274    -1.7818409820     1.1119591860
    2      C      -2.3272831865    -1.0728289131    -0.2455353511
    3      C      -3.6495145730    -0.4986934231    -0.7676019385
    4      C      -1.2198117201    -0.0460961488    -0.1345812006
    5      C      -1.4175178361     1.2778748686    -0.0123785723
    6      C      -0.3016244242     2.2333468954     0.1361955611
    7      O      -0.5066044338     3.4339911669     0.2517555560
    8      C       1.0718212083     1.6899727889     0.1459727243
    9      C       1.3388475794     0.3783140872     0.0145033940
   10      C       2.7625221827    -0.1469945024     0.0230755329
   11      C       3.0296656635    -1.1080013391     1.1983981832
   12      C       3.1659533709    -0.7759103021    -1.3255997901
   13      C       0.1904194917    -0.5759680861    -0.1553637413
   14      O       0.3892300911    -1.7691253074    -0.3205627690
   15      H      -3.2865701775    -2.5671364178     1.0129821696
   16      H      -2.8780380856    -1.0726018605     1.8700295948
   17      H      -1.6094027878    -2.2453158392     1.4640100281
   18      H      -1.9737814846    -1.8313605426    -0.9508330350
   19      H      -4.3691632636    -1.3075041946    -0.9170587743
   20      H      -3.5183140638     0.0155465166    -1.7232610781
   21      H      -4.0973509004     0.2058964958    -0.0603662904
   22      H      -2.4065197801     1.7214578420    -0.0111976782
   23      H       1.8624169215     2.4243725284     0.2651433914
   24      H       3.3963220912     0.7343305972     0.1731638510
   25      H       2.4647683467    -2.0342275621     1.0881822279
   26      H       4.0938572501    -1.3576578286     1.2336339329
   27      H       2.7626782673    -0.6487553233     2.1542245857
   28      H       4.2306485517    -1.0256504048    -1.3099985315
   29      H       2.9978281708    -0.0804656682    -2.1524786274
   30      H       2.6023981106    -1.6889048743    -1.5199819886
 ----------------------------------------------------------------

    9    -617.5181490693      3.53e-06  Convergence criterion met
 Total energy in the final basis set =     -617.5181490693
    4    -617.5298600331      8.41e-06  Convergence criterion met
 Total energy in the final basis set =     -617.5298600331

                    Orbital Energies (a.u.)
 --------------------------------------------------------------

 Alpha MOs
 -- Occupied --
-19.1415 -19.1383 -10.2868 -10.2817 -10.2146 -10.2143 -10.1997 -10.1986
-10.1896 -10.1885 -10.1620 -10.1603 -10.1586 -10.1586  -1.0740  -1.0678
 -0.8674  -0.8336  -0.7906  -0.7552  -0.7023  -0.6881  -0.6863  -0.6466
 -0.6234  -0.5736  -0.5633  -0.5282  -0.5045  -0.4784  -0.4670  -0.4555
 -0.4506  -0.4468  -0.4397  -0.4264  -0.4226  -0.4140  -0.4127  -0.4010
 -0.3854  -0.3815  -0.3612  -0.3576  -0.3511  -0.3490  -0.3428  -0.3395
 -0.3017  -0.2873  -0.2824  -0.2727

          Ground-State Mulliken Net Atomic Charges

     Atom                 Charge (a.u.)
  ----------------------------------------
      1 C                    -0.722697
      2 C                     0.164408
      3 C                    -0.559755
      4 C                     1.052908
      5 C                    -0.125655
      6 C                    -0.337691
      7 O                    -0.336767
      8 C                    -0.401575
      9 C                     0.875297
     10 C                     0.233567
     11 C                    -0.703487
     12 C                    -0.690864
     13 C                    -1.111502
     14 O                    -0.237285
     15 H                     0.161626
     16 H                     0.162367
     17 H                     0.179126
     18 H                     0.220173
     19 H                     0.185202
     20 H                     0.148679
     21 H                     0.153256
     22 H                     0.240892
     23 H                     0.247041
     24 H                     0.208843
     25 H                     0.184093
     26 H                     0.166592
     27 H                     0.144273
     28 H                     0.166895
     29 H                     0.144203
     30 H                     0.187840
  ----------------------------------------
  Sum of atomic charges =     0.000000

                    Cartesian Multipole Moments
 -----------------------------------------------------------------
    Charge (ESU x 10^10)
                 0.0000
    Dipole Moment (Debye)
         X       0.3429      Y      -2.0852      Z      -0.0226
       Tot       2.1133
    Quadrupole Moments (Debye-Ang)
        XX     -72.8822     XY       6.4572     YY    -107.6041
        XZ       1.1217     YZ      -2.1333     ZZ     -85.5405

 Total job time:  45.56s(wall), 345.57s(cpu)
        *  Thank you very much for using Q-Chem.  Have a nice day.  *
