 Q-Chem 5.4, Q-Chem, Inc., Pleasanton, CA (2021)
 Q-Chem 5.4.0 for Intel X86 EM64T Linux

User input:
--------------------------------------------------------------
$molecule
0 1
C                 -1.6481450000      3.4030620000     -0.3207740000
C                 -2.6517800000      3.4351720000      0.6421260000
C                 -2.6514290000      2.5024890000      1.6811920000
C                 -0.6438830000      2.4351290000     -0.2407900000
C                 -0.6401810000      1.4961290000      0.8021110000
C                 -1.6503560000      1.5363760000      1.7619860000
C                  0.4269190000      2.3840690000     -1.2496560000
C                  1.4786850000      1.3337450000     -1.1180540000
C                  1.5100650000      0.4118970000     -0.1211920000
C                  0.4348040000      0.4495650000      0.9004070000
O                  0.5112070000      3.1562870000     -2.1988370000
O                  0.4072820000     -0.3553110000      1.8208860000
O                  2.4018270000      1.3842120000     -2.0932640000
C                  2.5794080000     -0.6466200000      0.0106470000
C                  2.5756060000     -1.6547180000     -1.1764640000
C                  3.9970190000     -0.0683140000      0.2029010000
C                  4.9858710000     -1.1841990000      0.6046550000
C                  4.6851600000     -2.5602270000     -0.0555130000
C                  3.9526650000     -2.3193960000     -1.3872560000
C                  5.9613040000     -3.4291300000     -0.1859980000
C                  5.6863170000     -4.8181910000     -0.7989190000
C                  6.6762610000     -3.6049610000      1.1710810000
C                  7.9444430000     -4.4648750000      1.0706520000
C                  7.6536250000     -5.8362430000      0.4508650000
C                  6.9518310000     -5.6829180000     -0.9031530000
H                 -1.6263380000      4.1153050000     -1.1364610000
H                 -3.4331520000      4.1841020000      0.5848990000
H                 -3.4343140000      2.5290000000      2.4306790000
H                 -1.6356220000      0.8059800000      2.5611870000
H                  2.1413460000      2.1294250000     -2.6690960000
H                  2.3326910000     -1.1972090000      0.9207500000
H                  2.2783660000     -1.1533970000     -2.1000510000
H                  1.8211540000     -2.4221820000     -0.9750220000
H                  3.9866130000      0.7080500000      0.9738120000
H                  4.3198230000      0.4158350000     -0.7217320000
H                  4.9817970000     -1.2943670000      1.6928210000
H                  5.9985110000     -0.8655660000      0.3307270000
H                  3.9946310000     -3.1097070000      0.6011990000
H                  3.8056670000     -3.2515800000     -1.9359410000
H                  4.5794840000     -1.6839490000     -2.0251040000
H                  6.6517190000     -2.8972090000     -0.8601470000
H                  5.2423170000     -4.7195160000     -1.7926070000
H                  4.9440760000     -5.3374810000     -0.1762620000
H                  5.9766090000     -4.0758630000      1.8762970000
H                  6.9342200000     -2.6316300000      1.5960870000
H                  8.3934050000     -4.5819820000      2.0628120000
H                  8.6871930000     -3.9409740000      0.4544840000
H                  7.0099220000     -6.4112400000      1.1296150000
H                  8.5797200000     -6.4099910000      0.3384910000
H                  6.6963300000     -6.6656280000     -1.3138050000
H                  7.6453990000     -5.2198670000     -1.6175110000
$end
$rem
MAX_SCF_CYCLES=200
BASIS  =  6-311++G(d,p)
GUI  =  2
JOB_TYPE  =  SP
METHOD  =  B3LYP
SCF_ALGORITHM = DIIS_GDM
THRESH = 14
SOLVENT_METHOD = PCM
$end
$pcm
theory = CPCM
$end
$solvent
dielectric 37.219
opticaldielectric 1.43
$end

--------------------------------------------------------------

             Standard Nuclear Orientation (Angstroms)
    I     Atom           X                Y                Z
 ----------------------------------------------------------------
    1      C      -1.6481450000     3.4030620000    -0.3207740000
    2      C      -2.6517800000     3.4351720000     0.6421260000
    3      C      -2.6514290000     2.5024890000     1.6811920000
    4      C      -0.6438830000     2.4351290000    -0.2407900000
    5      C      -0.6401810000     1.4961290000     0.8021110000
    6      C      -1.6503560000     1.5363760000     1.7619860000
    7      C       0.4269190000     2.3840690000    -1.2496560000
    8      C       1.4786850000     1.3337450000    -1.1180540000
    9      C       1.5100650000     0.4118970000    -0.1211920000
   10      C       0.4348040000     0.4495650000     0.9004070000
   11      O       0.5112070000     3.1562870000    -2.1988370000
   12      O       0.4072820000    -0.3553110000     1.8208860000
   13      O       2.4018270000     1.3842120000    -2.0932640000
   14      C       2.5794080000    -0.6466200000     0.0106470000
   15      C       2.5756060000    -1.6547180000    -1.1764640000
   16      C       3.9970190000    -0.0683140000     0.2029010000
   17      C       4.9858710000    -1.1841990000     0.6046550000
   18      C       4.6851600000    -2.5602270000    -0.0555130000
   19      C       3.9526650000    -2.3193960000    -1.3872560000
   20      C       5.9613040000    -3.4291300000    -0.1859980000
   21      C       5.6863170000    -4.8181910000    -0.7989190000
   22      C       6.6762610000    -3.6049610000     1.1710810000
   23      C       7.9444430000    -4.4648750000     1.0706520000
   24      C       7.6536250000    -5.8362430000     0.4508650000
   25      C       6.9518310000    -5.6829180000    -0.9031530000
   26      H      -1.6263380000     4.1153050000    -1.1364610000
   27      H      -3.4331520000     4.1841020000     0.5848990000
   28      H      -3.4343140000     2.5290000000     2.4306790000
   29      H      -1.6356220000     0.8059800000     2.5611870000
   30      H       2.1413460000     2.1294250000    -2.6690960000
   31      H       2.3326910000    -1.1972090000     0.9207500000
   32      H       2.2783660000    -1.1533970000    -2.1000510000
   33      H       1.8211540000    -2.4221820000    -0.9750220000
   34      H       3.9866130000     0.7080500000     0.9738120000
   35      H       4.3198230000     0.4158350000    -0.7217320000
   36      H       4.9817970000    -1.2943670000     1.6928210000
   37      H       5.9985110000    -0.8655660000     0.3307270000
   38      H       3.9946310000    -3.1097070000     0.6011990000
   39      H       3.8056670000    -3.2515800000    -1.9359410000
   40      H       4.5794840000    -1.6839490000    -2.0251040000
   41      H       6.6517190000    -2.8972090000    -0.8601470000
   42      H       5.2423170000    -4.7195160000    -1.7926070000
   43      H       4.9440760000    -5.3374810000    -0.1762620000
   44      H       5.9766090000    -4.0758630000     1.8762970000
   45      H       6.9342200000    -2.6316300000     1.5960870000
   46      H       8.3934050000    -4.5819820000     2.0628120000
   47      H       8.6871930000    -3.9409740000     0.4544840000
   48      H       7.0099220000    -6.4112400000     1.1296150000
   49      H       8.5797200000    -6.4099910000     0.3384910000
   50      H       6.6963300000    -6.6656280000    -1.3138050000
   51      H       7.6453990000    -5.2198670000    -1.6175110000
 ----------------------------------------------------------------

   17   -1079.9973400219      7.08e-06  Convergence criterion met
 Total energy in the final basis set =    -1079.9973400219

                    Orbital Energies (a.u.)
 --------------------------------------------------------------

 Alpha MOs
 -- Occupied --
-19.1758 -19.1490 -19.1297 -10.2926 -10.2814 -10.2662 -10.2099 -10.2090
-10.2023 -10.2002 -10.1982 -10.1966 -10.1965 -10.1772 -10.1627 -10.1618
-10.1612 -10.1600 -10.1562 -10.1553 -10.1551 -10.1551 -10.1546 -10.1531
-10.1529  -1.1074  -1.0657  -1.0638  -0.8921  -0.8497  -0.8328  -0.8140
 -0.7829  -0.7790  -0.7530  -0.7376  -0.7295  -0.7142  -0.6900  -0.6551
 -0.6448  -0.6178  -0.6116  -0.6038  -0.5924  -0.5824  -0.5701  -0.5461
 -0.5417  -0.5332  -0.5102  -0.4955  -0.4828  -0.4798  -0.4700  -0.4674
 -0.4671  -0.4551  -0.4519  -0.4421  -0.4362  -0.4314  -0.4285  -0.4232
 -0.4153  -0.4099  -0.4091  -0.3914  -0.3860  -0.3846  -0.3772  -0.3751
 -0.3718  -0.3676  -0.3639  -0.3597  -0.3500  -0.3422  -0.3338  -0.3276
 -0.3215  -0.3103  -0.3082  -0.3037  -0.2957  -0.2893  -0.2852  -0.2799
 -0.2797  -0.2754  -0.2534

          Ground-State Mulliken Net Atomic Charges

     Atom                 Charge (a.u.)
  ----------------------------------------
      1 C                     0.115265
      2 C                    -0.419543
      3 C                    -0.489168
      4 C                     0.484814
      5 C                     0.217008
      6 C                     0.096581
      7 C                    -0.497360
      8 C                    -0.405164
      9 C                     0.898008
     10 C                    -0.566279
     11 O                    -0.318986
     12 O                    -0.284055
     13 O                    -0.196321
     14 C                     0.853074
     15 C                    -0.926461
     16 C                    -1.178332
     17 C                    -0.348076
     18 C                     0.515859
     19 C                    -0.636267
     20 C                     0.162492
     21 C                    -0.326412
     22 C                    -0.271193
     23 C                    -0.388151
     24 C                    -0.408522
     25 C                    -0.488567
     26 H                     0.205194
     27 H                     0.221396
     28 H                     0.227840
     29 H                     0.204714
     30 H                     0.320806
     31 H                     0.268580
     32 H                     0.194555
     33 H                     0.195956
     34 H                     0.205488
     35 H                     0.188659
     36 H                     0.154984
     37 H                     0.175340
     38 H                     0.172196
     39 H                     0.144745
     40 H                     0.180113
     41 H                     0.165346
     42 H                     0.143501
     43 H                     0.167533
     44 H                     0.169208
     45 H                     0.163696
     46 H                     0.174636
     47 H                     0.144108
     48 H                     0.126928
     49 H                     0.176826
     50 H                     0.175326
     51 H                     0.138082
  ----------------------------------------
  Sum of atomic charges =     0.000000

                    Cartesian Multipole Moments
 -----------------------------------------------------------------
    Charge (ESU x 10^10)
                 0.0000
    Dipole Moment (Debye)
         X      -2.1181      Y       1.9987      Z      -0.0700
       Tot       2.9131
    Quadrupole Moments (Debye-Ang)
        XX    -140.8743     XY      -9.0110     YY    -147.6596
        XZ      -5.5722     YZ       7.2463     ZZ    -155.6290

 Total job time:  597.30s(wall), 4104.27s(cpu)
        *  Thank you very much for using Q-Chem.  Have a nice day.  *
