 Gaussian 16, Revision A.03,
 Gaussian 16:  ES64L-G16RevA.03 25-Dec-2016

 --------------------------------------
 #P UB3LYP/6-311++G(d,p) nosym opt freq
 --------------------------------------

 -------
 Reduced
 -------
 Symbolic Z-matrix:
 Charge = -4 Multiplicity = 1

 SCF Done:  E(UB3LYP) =  -1935.24693832     A.U. after   70 cycles
 Optimization completed.
    -- Stationary point found.
 Normal termination of Gaussian 16 at Wed Jan 10 06:11:20 2024.

 ----------------------------------------------------------------------
 #P Geom=AllCheck Guess=TCheck SCRF=Check GenChk UB3LYP/6-311++G(d,p) F
 req
 ----------------------------------------------------------------------

 Structure from the checkpoint file:  "224-an.chk"
 -------
 Reduced
 -------
 Charge = -4 Multiplicity = 1

                          Input orientation:
 ---------------------------------------------------------------------
 Center     Atomic      Atomic             Coordinates (Angstroms)
 Number     Number       Type             X           Y           Z
 ---------------------------------------------------------------------
      1          6           0        5.586465   -4.796938    0.798303
      2          6           0        6.636003   -4.662127   -0.087351
      3          6           0        6.596900   -3.626675   -1.039276
      4          6           0        4.478853   -3.927777    0.762077
      5          6           0        4.403109   -2.904430   -0.239503
      6          6           0        5.518456   -2.757280   -1.135894
      7          6           0        3.435390   -4.172282    1.803193
      8          6           0        2.274482   -3.269158    1.833926
      9          6           0        2.161982   -2.297307    0.785628
     10          6           0        3.179401   -2.089253   -0.288669
     11          6           0        1.238038   -3.305817    2.830704
     12          6           0        0.151352   -2.447992    2.723836
     13          6           0        0.024161   -1.535995    1.659908
     14          6           0        1.025563   -1.468553    0.712927
     15          8           0        3.567236   -5.121922    2.592770
     16          8           0        2.963452   -1.257327   -1.185272
     17         16           0        1.145148   -4.389009    4.367571
     18          8           0       -0.069853   -3.866981    5.088228
     19          8           0        2.380540   -4.145249    5.158410
     20          8           0        0.931796   -5.790909    3.915951
     21         16           0        5.760793   -1.465106   -2.483337
     22          8           0        7.164269   -1.723246   -2.964725
     23          8           0        4.771417   -1.747648   -3.558539
     24          8           0        5.654227   -0.128073   -1.841438
     25          1           0        5.577757   -5.566014    1.560598
     26          1           0        7.489123   -5.345119   -0.053758
     27          1           0        7.421096   -3.482866   -1.724524
     28          1           0       -0.605716   -2.497722    3.494518
     29          1           0       -0.856356   -0.891436    1.591518
     30          1           0        0.983214   -0.770859   -0.114160
 ---------------------------------------------------------------------

 SCF Done:  E(UB3LYP) =  -1935.24693832     A.U. after   10 cycles

 Alpha  occ. eigenvalues --  -88.65150 -88.65149 -18.69528 -18.69527 -18.69255
 Alpha  occ. eigenvalues --  -18.69254 -18.69237 -18.69237 -18.69234 -18.69234
 Alpha  occ. eigenvalues --   -9.85505  -9.85504  -9.82743  -9.82742  -9.81340
 Alpha  occ. eigenvalues --   -9.81338  -9.80826  -9.80825  -9.80594  -9.80594
 Alpha  occ. eigenvalues --   -9.80321  -9.80321  -9.80242  -9.80241  -7.70947
 Alpha  occ. eigenvalues --   -7.70946  -5.67216  -5.67216  -5.67193  -5.67193
 Alpha  occ. eigenvalues --   -5.67159  -5.67159  -0.70682  -0.70681  -0.62765
 Alpha  occ. eigenvalues --   -0.62515  -0.57346  -0.57346  -0.56699  -0.56698
 Alpha  occ. eigenvalues --   -0.48962  -0.48236  -0.41176  -0.38445  -0.38425
 Alpha  occ. eigenvalues --   -0.36983  -0.29186  -0.27571  -0.24602  -0.24471
 Alpha  occ. eigenvalues --   -0.22081  -0.18026  -0.16494  -0.15527  -0.14299
 Alpha  occ. eigenvalues --   -0.10438  -0.09634  -0.09520  -0.08717  -0.07992
 Alpha  occ. eigenvalues --   -0.07694  -0.05403  -0.05331  -0.05229  -0.05086
 Alpha  occ. eigenvalues --   -0.04074  -0.04042  -0.03041  -0.02762  -0.00618
 Alpha  occ. eigenvalues --    0.00188   0.00271   0.00645   0.01587   0.02483
 Alpha  occ. eigenvalues --    0.03497   0.06314   0.06353   0.06930   0.07020
 Alpha  occ. eigenvalues --    0.08593   0.09261   0.09619   0.09875   0.10782
 Alpha  occ. eigenvalues --    0.10878   0.11584   0.12146   0.12672   0.12787
 Alpha  occ. eigenvalues --    0.14376   0.14600   0.14676   0.14834   0.26074
 Alpha virt. eigenvalues --    0.27207   0.27615   0.31586   0.31613   0.31696
 Alpha virt. eigenvalues --    0.33542   0.33917   0.35009   0.35575   0.36883
 Alpha virt. eigenvalues --    0.37179   0.37812   0.38062   0.39134   0.39637

  Beta  occ. eigenvalues --  -88.65150 -88.65149 -18.69528 -18.69527 -18.69255
  Beta  occ. eigenvalues --  -18.69254 -18.69237 -18.69237 -18.69234 -18.69234
  Beta  occ. eigenvalues --   -9.85505  -9.85504  -9.82743  -9.82742  -9.81340
  Beta  occ. eigenvalues --   -9.81338  -9.80826  -9.80825  -9.80594  -9.80594
  Beta  occ. eigenvalues --   -9.80321  -9.80321  -9.80242  -9.80241  -7.70947
  Beta  occ. eigenvalues --   -7.70946  -5.67216  -5.67216  -5.67193  -5.67193
  Beta  occ. eigenvalues --   -5.67159  -5.67159  -0.70682  -0.70681  -0.62765
  Beta  occ. eigenvalues --   -0.62515  -0.57346  -0.57346  -0.56699  -0.56698
  Beta  occ. eigenvalues --   -0.48962  -0.48236  -0.41176  -0.38445  -0.38425
  Beta  occ. eigenvalues --   -0.36983  -0.29186  -0.27571  -0.24602  -0.24471
  Beta  occ. eigenvalues --   -0.22081  -0.18026  -0.16494  -0.15527  -0.14299
  Beta  occ. eigenvalues --   -0.10438  -0.09634  -0.09520  -0.08717  -0.07992
  Beta  occ. eigenvalues --   -0.07694  -0.05403  -0.05331  -0.05229  -0.05086
  Beta  occ. eigenvalues --   -0.04074  -0.04042  -0.03041  -0.02762  -0.00618
  Beta  occ. eigenvalues --    0.00188   0.00271   0.00645   0.01587   0.02483
  Beta  occ. eigenvalues --    0.03497   0.06314   0.06353   0.06930   0.07020
  Beta  occ. eigenvalues --    0.08593   0.09261   0.09619   0.09875   0.10782
  Beta  occ. eigenvalues --    0.10878   0.11584   0.12146   0.12672   0.12787
  Beta  occ. eigenvalues --    0.14376   0.14600   0.14676   0.14834   0.26074
  Beta virt. eigenvalues --    0.27207   0.27615   0.31586   0.31613   0.31696
  Beta virt. eigenvalues --    0.33542   0.33917   0.35009   0.35575   0.36883
  Beta virt. eigenvalues --    0.37179   0.37812   0.38062   0.39134   0.39637

 Mulliken charges and spin densities:
               1          2
     1  C   -1.072526  -0.000000
     2  C    2.206633   0.000000
     3  C    1.576363  -0.000000
     4  C    2.205289  -0.000000
     5  C    0.099094   0.000000
     6  C   -1.385908   0.000000
     7  C   -1.705001   0.000000
     8  C    0.095435   0.000000
     9  C    2.206573  -0.000000
    10  C   -1.694499  -0.000000
    11  C   -1.388196   0.000000
    12  C    1.586089  -0.000000
    13  C    2.199607  -0.000000
    14  C   -1.062786   0.000000
    15  O   -0.222016   0.000000
    16  O   -0.222051  -0.000000
    17  S    0.583601   0.000000
    18  O   -0.381524   0.000000
    19  O   -0.357215   0.000000
    20  O   -0.347555   0.000000
    21  S    0.583205   0.000000
    22  O   -0.381363   0.000000
    23  O   -0.347714  -0.000000
    24  O   -0.357005  -0.000000
    25  H    0.392188   0.000000
    26  H   -3.896149  -0.000000
    27  H    0.296794  -0.000000
    28  H    0.296159  -0.000000
    29  H   -3.897647   0.000000
    30  H    0.392126   0.000000
 Sum of Mulliken charges =  -4.00000  -0.00000

 Dipole moment (field-independent basis, Debye):
    X=            -64.6080    Y=             58.6552    Z=            -15.9068  Tot=             88.6998
 Quadrupole moment (field-independent basis, Debye-Ang):
   XX=           -669.5712   YY=           -481.9507   ZZ=           -377.3261
   XY=            261.9779   XZ=             69.1345   YZ=            105.2081

  Exact polarizability:3286.417********1368.996-596.927  66.407 657.826
 Approx polarizability:****************9378.793********1951.8871263.584

                      1                      2                      3
                      A                      A                      A
 Frequencies --     11.6706                33.8050                36.8472
 Red. masses --     14.5127                11.1406                 8.9367
 Frc consts  --      0.0012                 0.0075                 0.0071
 IR Inten    --      0.1141                 1.6876                11.0610

                      4                      5                      6
                      A                      A                      A
 Frequencies --     83.5243                93.0469               103.8706
 Red. masses --     12.6779                 9.9506                11.4467
 Frc consts  --      0.0521                 0.0508                 0.0728
 IR Inten    --      1.2068                32.3823                16.2692

                      7                      8                      9
                      A                      A                      A
 Frequencies --    120.7949               155.3423               173.6996
 Red. masses --     15.6697                 6.6096                 7.8499
 Frc consts  --      0.1347                 0.0940                 0.1395
 IR Inten    --      1.1548                 1.2726                 2.0970

                     10                     11                     12
                      A                      A                      A
 Frequencies --    181.5296               209.7912               237.3614
 Red. masses --      8.5065                13.3637                13.5174
 Frc consts  --      0.1652                 0.3465                 0.4487
 IR Inten    --     75.2534                 9.9268                 0.3153

                     13                     14                     15
                      A                      A                      A
 Frequencies --    252.3480               265.5797               286.9932
 Red. masses --      5.4688                11.9322                 6.8758
 Frc consts  --      0.2052                 0.4959                 0.3337
 IR Inten    --      6.1931                 0.3899                 3.8213

                     16                     17                     18
                      A                      A                      A
 Frequencies --    296.2034               328.5206               345.8864
 Red. masses --     12.3094                 8.5737                 6.3029
 Frc consts  --      0.6363                 0.5452                 0.4443
 IR Inten    --      7.0672                 2.7509                 1.6747

                     19                     20                     21
                      A                      A                      A
 Frequencies --    357.8405               391.8220               394.1571
 Red. masses --      6.7148                10.0248                11.9364
 Frc consts  --      0.5066                 0.9068                 1.0926
 IR Inten    --     29.2329                 4.1196                53.5826

                     22                     23                     24
                      A                      A                      A
 Frequencies --    425.5146               456.2042               476.0538
 Red. masses --      6.2545                 9.2780                 9.5920
 Frc consts  --      0.6672                 1.1377                 1.2808
 IR Inten    --     10.5388                 7.1062                85.2801

                     25                     26                     27
                      A                      A                      A
 Frequencies --    483.2808               496.8719               504.7018
 Red. masses --     11.7238                11.5702                15.8622
 Frc consts  --      1.6133                 1.6830                 2.3806
 IR Inten    --     12.7411                 0.9106                27.3134

                     28                     29                     30
                      A                      A                      A
 Frequencies --    507.9904               520.2266               556.3102
 Red. masses --      4.2275                12.1221                 9.5687
 Frc consts  --      0.6428                 1.9329                 1.7448
 IR Inten    --    248.6032                 1.1231                 1.6375

                     31                     32                     33
                      A                      A                      A
 Frequencies --    568.6631               593.7626               605.0346
 Red. masses --      5.6707                15.2794                17.6521
 Frc consts  --      1.0804                 3.1738                 3.8072
 IR Inten    --      1.5089               407.4757                 2.8484

                     34                     35                     36
                      A                      A                      A
 Frequencies --    619.6418               647.0934               695.3707
 Red. masses --      6.4120                 6.2120                 6.9598
 Frc consts  --      1.4505                 1.5326                 1.9828
 IR Inten    --     28.7303                 1.2013                32.2411

                     37                     38                     39
                      A                      A                      A
 Frequencies --    697.4162               714.6094               756.3142
 Red. masses --      9.1006                 5.3158                 9.7901
 Frc consts  --      2.6080                 1.5994                 3.2994
 IR Inten    --    116.8190                31.5175                 2.3855

                     40                     41                     42
                      A                      A                      A
 Frequencies --    762.8485               810.3872               813.1074
 Red. masses --      8.9301                 6.3524                 6.7591
 Frc consts  --      3.0618                 2.4579                 2.6329
 IR Inten    --      4.6862                82.5985               112.7658

                     43                     44                     45
                      A                      A                      A
 Frequencies --    887.4562               889.1905               918.5377
 Red. masses --      1.2837                 1.3195                 7.1320
 Frc consts  --      0.5957                 0.6147                 3.5453
 IR Inten    --     11.1508                 7.7947                 9.1667

                     46                     47                     48
                      A                      A                      A
 Frequencies --    939.0420               949.2063               949.5365
 Red. masses --     10.1104                 1.3414                 1.3723
 Frc consts  --      5.2528                 0.7121                 0.7290
 IR Inten    --     47.7638                 4.2391                 3.0573

                     49                     50                     51
                      A                      A                      A
 Frequencies --    957.4046               962.3076              1063.0932
 Red. masses --     10.0333                11.2046                 3.5403
 Frc consts  --      5.4185                 6.1133                 2.3574
 IR Inten    --     19.0042               484.5740                 1.0512

                     52                     53                     54
                      A                      A                      A
 Frequencies --   1072.7531              1098.8251              1104.3704
 Red. masses --      3.1067                 9.8937                 3.7824
 Frc consts  --      2.1065                 7.0383                 2.7180
 IR Inten    --     48.5080                 7.0512                36.3366

                     55                     56                     57
                      A                      A                      A
 Frequencies --   1107.9928              1112.4052              1156.3959
 Red. masses --      2.5218                 2.9356                19.5452
 Frc consts  --      1.8240                 2.1403                15.3994
 IR Inten    --    287.6354                26.1146                10.5695

                     58                     59                     60
                      A                      A                      A
 Frequencies --   1157.0148              1159.4834              1174.2160
 Red. masses --     12.1063                 2.2069                 2.1269
 Frc consts  --      9.5486                 1.7481                 1.7278
 IR Inten    --    469.7858               113.0452                 5.2577

                     61                     62                     63
                      A                      A                      A
 Frequencies --   1182.7340              1192.3445              1225.9193
 Red. masses --      1.5117                 2.9473                 2.3048
 Frc consts  --      1.2459                 2.4688                 2.0409
 IR Inten    --     50.9286                 7.1440               225.9151

                     64                     65                     66
                      A                      A                      A
 Frequencies --   1294.7858              1303.7341              1330.1003
 Red. masses --      3.2779                 9.1480                 6.1011
 Frc consts  --      3.2377                 9.1612                 6.3595
 IR Inten    --     75.1323                14.3971                 5.0741

                     67                     68                     69
                      A                      A                      A
 Frequencies --   1373.8206              1408.4957              1417.8778
 Red. masses --      3.4129                 2.0565                 1.8803
 Frc consts  --      3.7952                 2.4037                 2.2272
 IR Inten    --    246.7772              2773.2825              2950.4559

                     70                     71                     72
                      A                      A                      A
 Frequencies --   1426.6801              1438.8522              1457.6552
 Red. masses --      2.0440                 1.3262                 2.3698
 Frc consts  --      2.4512                 1.6176                 2.9667
 IR Inten    --    467.8338               131.9446                17.1546

                     73                     74                     75
                      A                      A                      A
 Frequencies --   1540.4241              1549.7650              1552.9103
 Red. masses --      5.3708                 6.0520                 6.0744
 Frc consts  --      7.5088                 8.5640                 8.6307
 IR Inten    --    473.5007               102.4673                54.8807

                     76                     77                     78
                      A                      A                      A
 Frequencies --   1576.6787              1596.1921              1627.0185
 Red. masses --      6.5661                 5.4664                 8.8528
 Frc consts  --      9.6172                 8.2058                13.8076
 IR Inten    --     13.9697                 7.1849               234.8741

                     79                     80                     81
                      A                      A                      A
 Frequencies --   3080.2678              3098.8640              3184.7424
 Red. masses --      1.0901                 1.0893                 1.0906
 Frc consts  --      6.0941                 6.1632                 6.5175
 IR Inten    --    222.3345              1014.9645                43.7301

                     82                     83                     84
                      A                      A                      A
 Frequencies --   3185.8825              3195.3148              3196.5858
 Red. masses --      1.0900                 1.0893                 1.0894
 Frc consts  --      6.5182                 6.5530                 6.5586
 IR Inten    --     72.2710                91.3202                 8.1176

 - Thermochemistry -
 -------------------
 Temperature   298.150 Kelvin.  Pressure   1.00000 Atm.
 Atom     1 has atomic number  6 and mass  12.00000

 Molecular mass:   365.95041 amu.
 Principal axes and moments of inertia in atomic units:
                           1         2         3
     Eigenvalues --  3603.58426********************
           X           -0.59020  -0.65852   0.46692
           Y           -0.26958   0.70598   0.65492
           Z            0.76091  -0.26066   0.59419
 This molecule is an asymmetric top.
 Rotational symmetry number  1.
 Warning -- assumption of classical behavior for rotation
           may cause significant error
 Rotational temperatures (Kelvin)      0.02404     0.00564     0.00476
 Rotational constants (GHZ):           0.50082     0.11749     0.09927
 Zero-point vibrational energy     479516.6 (Joules/Mol)
                                  114.60722 (Kcal/Mol)
 Warning -- explicit consideration of  34 degrees of freedom as
           vibrations may cause significant error
 Vibrational temperatures:     16.79    48.64    53.01   120.17   133.87
          (Kelvin)            149.45   173.80   223.50   249.91   261.18
                              301.84   341.51   363.07   382.11   412.92
                              426.17   472.67   497.65   514.85   563.74
                              567.10   612.22   656.38   684.94   695.33
                              714.89   726.15   730.88   748.49   800.41
                              818.18   854.29   870.51   891.53   931.02
                             1000.48  1003.43  1028.16  1088.17  1097.57
                             1165.97  1169.88  1276.85  1279.35  1321.57
                             1351.07  1365.70  1366.17  1377.49  1384.55
                             1529.55  1543.45  1580.96  1588.94  1594.15
                             1600.50  1663.80  1664.69  1668.24  1689.43
                             1701.69  1715.52  1763.82  1862.91  1875.78
                             1913.72  1976.62  2026.51  2040.01  2052.67
                             2070.19  2097.24  2216.33  2229.77  2234.29
                             2268.49  2296.56  2340.92  4431.82  4458.57
                             4582.13  4583.77  4597.35  4599.17

 Zero-point correction=                           0.182638 (Hartree/Particle)
 Thermal correction to Energy=                    0.201780
 Thermal correction to Enthalpy=                  0.202724
 Thermal correction to Gibbs Free Energy=         0.133103
 Sum of electronic and zero-point Energies=          -1935.064300
 Sum of electronic and thermal Energies=             -1935.045158
 Sum of electronic and thermal Enthalpies=           -1935.044214
 Sum of electronic and thermal Free Energies=        -1935.113835

                     E (Thermal)             CV                S
                      KCal/Mol        Cal/Mol-Kelvin    Cal/Mol-Kelvin
 Total                  126.619             73.540            146.529
 Electronic               0.000              0.000              0.000
 Translational            0.889              2.981             43.585
 Rotational               0.889              2.981             35.263
 Vibrational            124.841             67.579             67.681
 Vibration     1          0.593              1.987              7.704
 Vibration     2          0.594              1.983              5.593
 Vibration     3          0.594              1.982              5.422
 Vibration     4          0.600              1.961              3.806
 Vibration     5          0.602              1.954              3.595
 Vibration     6          0.605              1.946              3.380
 Vibration     7          0.609              1.932              3.088
 Vibration     8          0.620              1.897              2.606
 Vibration     9          0.627              1.875              2.395
 Vibration    10          0.630              1.865              2.313
 Vibration    11          0.642              1.826              2.045
 Vibration    12          0.656              1.783              1.823
 Vibration    13          0.664              1.759              1.714
 Vibration    14          0.671              1.736              1.625
 Vibration    15          0.684              1.698              1.492
 Vibration    16          0.690              1.681              1.438
 Vibration    17          0.712              1.619              1.267
 Vibration    18          0.724              1.584              1.185
 Vibration    19          0.733              1.559              1.131
 Vibration    20          0.759              1.488              0.993
 Vibration    21          0.761              1.483              0.984
 Vibration    22          0.787              1.415              0.873
 Vibration    23          0.814              1.347              0.777
 Vibration    24          0.833              1.303              0.721
 Vibration    25          0.839              1.287              0.701
 Vibration    26          0.852              1.257              0.666
 Vibration    27          0.860              1.240              0.646
 Vibration    28          0.863              1.232              0.638
 Vibration    29          0.875              1.205              0.609
 Vibration    30          0.912              1.126              0.531
 Vibration    31          0.925              1.099              0.507
 Vibration    32          0.951              1.045              0.461
 Vibration    33          0.964              1.021              0.441
 Vibration    34          0.980              0.990              0.417

                           ! Non-Optimized Parameters !
 Normal termination of Gaussian 16 at Wed Jan 10 07:25:56 2024.
