 Gaussian 16, Revision A.03,
 Gaussian 16:  ES64L-G16RevA.03 25-Dec-2016

 ----------------------------------------------------------------
 #P UB3LYP/6-311++G(d,p) SCRF=(PCM,Solvent=n,n-DiMethylFormamide)
 ----------------------------------------------------------------

 -------
 Reduced
 -------
 Symbolic Z-matrix:
 Charge = -2 Multiplicity = 1

                         Standard orientation:
 ---------------------------------------------------------------------
 Center     Atomic      Atomic             Coordinates (Angstroms)
 Number     Number       Type             X           Y           Z
 ---------------------------------------------------------------------
      1          6           0       -0.317711   -0.877931    0.000452
      2          6           0        0.601920    0.223384    0.000175
      3          6           0        0.316838    1.587110    0.000053
      4          6           0       -1.030325    2.078108    0.000245
      5          6           0       -2.002297    1.025514    0.000064
      6          6           0       -1.642929   -0.320078    0.000161
      7          8           0       -1.335206    3.339115   -0.000187
      8          1           0        1.122055    2.313854   -0.000180
      9          8           0       -0.022598   -2.123583    0.000054
     10         17           0       -3.005657   -1.522513   -0.000166
     11         35           0        2.523875   -0.278694   -0.000076
     12          1           0       -3.052039    1.302258   -0.000161
 ---------------------------------------------------------------------

 SCF Done:  E(UB3LYP) =  -3415.01290799     A.U. after   17 cycles

 The electronic state is 1-A.
 Alpha  occ. eigenvalues -- -482.80494-101.52844 -62.45770 -56.27770 -56.27442
 Alpha  occ. eigenvalues --  -56.27423 -19.02856 -19.02226 -10.19621 -10.19553
 Alpha  occ. eigenvalues --  -10.19126 -10.18451 -10.13825 -10.13787  -9.44263
 Alpha  occ. eigenvalues --   -8.66712  -7.20653  -7.19800  -7.19755  -6.49727
 Alpha  occ. eigenvalues --   -6.48642  -6.48589  -2.60838  -2.60538  -2.60499
 Alpha  occ. eigenvalues --   -2.59636  -2.59636  -0.94999  -0.93377  -0.83701
 Alpha  occ. eigenvalues --   -0.80115  -0.75315  -0.68763  -0.66378  -0.55785
 Alpha  occ. eigenvalues --   -0.53803  -0.45350  -0.44497  -0.41026  -0.38357
 Alpha  occ. eigenvalues --   -0.37966  -0.37194  -0.34752  -0.33313  -0.32862
 Alpha  occ. eigenvalues --   -0.32083  -0.29469  -0.28703  -0.27216  -0.23376
 Alpha  occ. eigenvalues --   -0.21666  -0.21142  -0.20285  -0.13172
 Alpha virt. eigenvalues --   -0.01155   0.00653   0.00703   0.01975   0.02514
 Alpha virt. eigenvalues --    0.03140   0.04596   0.04947   0.05924   0.06400
 Alpha virt. eigenvalues --    0.07181   0.07459   0.08018   0.08522   0.09048

  Beta  occ. eigenvalues -- -482.80494-101.52844 -62.45770 -56.27770 -56.27442
  Beta  occ. eigenvalues --  -56.27423 -19.02856 -19.02226 -10.19621 -10.19553
  Beta  occ. eigenvalues --  -10.19126 -10.18451 -10.13825 -10.13787  -9.44263
  Beta  occ. eigenvalues --   -8.66712  -7.20653  -7.19800  -7.19755  -6.49727
  Beta  occ. eigenvalues --   -6.48642  -6.48589  -2.60838  -2.60538  -2.60499
  Beta  occ. eigenvalues --   -2.59636  -2.59636  -0.94999  -0.93377  -0.83701
  Beta  occ. eigenvalues --   -0.80115  -0.75315  -0.68763  -0.66378  -0.55785
  Beta  occ. eigenvalues --   -0.53803  -0.45350  -0.44497  -0.41026  -0.38357
  Beta  occ. eigenvalues --   -0.37966  -0.37194  -0.34752  -0.33313  -0.32862
  Beta  occ. eigenvalues --   -0.32083  -0.29469  -0.28703  -0.27216  -0.23376
  Beta  occ. eigenvalues --   -0.21666  -0.21142  -0.20285  -0.13172
  Beta virt. eigenvalues --   -0.01155   0.00653   0.00703   0.01975   0.02514
  Beta virt. eigenvalues --    0.03140   0.04596   0.04947   0.05924   0.06400
  Beta virt. eigenvalues --    0.07181   0.07459   0.08018   0.08522   0.09048

 Mulliken charges and spin densities:
               1          2
     1  C   -1.307502  -0.000000
     2  C    0.586019  -0.000000
     3  C   -0.157264   0.000000
     4  C   -0.624773   0.000000
     5  C   -0.613495  -0.000000
     6  C    1.251918   0.000000
     7  O   -0.714851  -0.000000
     8  H    0.188572  -0.000000
     9  O   -0.606991  -0.000000
    10  Cl   0.115517   0.000000
    11  Br  -0.264710  -0.000000
    12  H    0.147561   0.000000
 Sum of Mulliken charges =  -2.00000   0.00000

 Dipole moment (field-independent basis, Debye):
    X=              5.5058    Y=             -3.2480    Z=              0.0002  Tot=              6.3925
 Quadrupole moment (field-independent basis, Debye-Ang):
   XX=           -108.1424   YY=           -146.3951   ZZ=            -85.5906
   XY=             12.5341   XZ=             -0.0008   YZ=              0.0018

 Normal termination of Gaussian 16 at Sun Jan 21 07:32:24 2024.
