 Q-Chem 5.4, Q-Chem, Inc., Pleasanton, CA (2021)
 Q-Chem 5.4.0 for Intel X86 EM64T Linux

User input:
--------------------------------------------------------------
$molecule
0 1
C                 -0.2466350000     -0.4117830000      2.1660550000
C                 -0.6516940000     -1.0479170000      0.8876050000
C                 -0.2826770000     -0.5271680000     -0.2892180000
C                  0.5354380000      0.7076230000     -0.3718070000
C                  0.9398910000      1.3587210000      0.9108280000
C                  0.5886310000      0.8112050000      2.0859820000
O                 -0.5860720000     -0.8767740000      3.2413190000
O                  0.8791730000      1.1624390000     -1.4504050000
H                 -1.2504810000     -1.9481620000      0.9699150000
H                 -0.5534250000     -0.9730800000     -1.2400100000
C                  1.8352250000      2.5869210000      0.8604930000
C                  1.2822000000      3.9543300000      0.4075150000
C                 -0.2331020000      3.9387490000      0.1450340000
C                  1.6022200000      4.9601700000      1.5369050000
C                  2.0413820000      4.3592160000     -0.8767550000
O                  2.9817560000      2.4593230000      1.2271390000
H                 -0.4969090000      3.2918540000     -0.6935820000
H                 -0.5660030000      4.9491650000     -0.1070440000
H                 -0.7976680000      3.6198140000      1.0258660000
H                  1.0658830000      4.7126780000      2.4581800000
H                  1.2945000000      5.9633830000      1.2298350000
H                  2.6708180000      4.9730820000      1.7544050000
H                  1.8455200000      3.6556880000     -1.6881140000
H                  3.1171000000      4.3885870000     -0.6936600000
H                  1.7152460000      5.3542770000     -1.1929860000
H                  0.8953030000      1.2362800000      3.0358450000
$end
$rem
MAX_SCF_CYCLES=200
BASIS  =  6-311++G(d,p)
GUI  =  2
JOB_TYPE  =  SP
METHOD  =  B3LYP
SOLVENT_METHOD = PCM
$end
$pcm
theory = CPCM
$end
$solvent
dielectric 37.219
opticaldielectric 1.43
$end

--------------------------------------------------------------

             Standard Nuclear Orientation (Angstroms)
    I     Atom           X                Y                Z
 ----------------------------------------------------------------
    1      C      -0.2466350000    -0.4117830000     2.1660550000
    2      C      -0.6516940000    -1.0479170000     0.8876050000
    3      C      -0.2826770000    -0.5271680000    -0.2892180000
    4      C       0.5354380000     0.7076230000    -0.3718070000
    5      C       0.9398910000     1.3587210000     0.9108280000
    6      C       0.5886310000     0.8112050000     2.0859820000
    7      O      -0.5860720000    -0.8767740000     3.2413190000
    8      O       0.8791730000     1.1624390000    -1.4504050000
    9      H      -1.2504810000    -1.9481620000     0.9699150000
   10      H      -0.5534250000    -0.9730800000    -1.2400100000
   11      C       1.8352250000     2.5869210000     0.8604930000
   12      C       1.2822000000     3.9543300000     0.4075150000
   13      C      -0.2331020000     3.9387490000     0.1450340000
   14      C       1.6022200000     4.9601700000     1.5369050000
   15      C       2.0413820000     4.3592160000    -0.8767550000
   16      O       2.9817560000     2.4593230000     1.2271390000
   17      H      -0.4969090000     3.2918540000    -0.6935820000
   18      H      -0.5660030000     4.9491650000    -0.1070440000
   19      H      -0.7976680000     3.6198140000     1.0258660000
   20      H       1.0658830000     4.7126780000     2.4581800000
   21      H       1.2945000000     5.9633830000     1.2298350000
   22      H       2.6708180000     4.9730820000     1.7544050000
   23      H       1.8455200000     3.6556880000    -1.6881140000
   24      H       3.1171000000     4.3885870000    -0.6936600000
   25      H       1.7152460000     5.3542770000    -1.1929860000
   26      H       0.8953030000     1.2362800000     3.0358450000
 ----------------------------------------------------------------

    9    -652.2290753591      3.35e-06  Convergence criterion met
 Total energy in the final basis set =     -652.2290753591

                    Orbital Energies (a.u.)
 --------------------------------------------------------------

 Alpha MOs
 -- Occupied --
-19.1525 -19.1505 -19.1425 -10.2996 -10.2944 -10.2887 -10.2297 -10.2205
-10.2167 -10.2157 -10.2021 -10.1625 -10.1621 -10.1610  -1.0856  -1.0799
 -1.0772  -0.8742  -0.8287  -0.8051  -0.7240  -0.6922  -0.6913  -0.6719
 -0.6315  -0.6090  -0.5421  -0.5347  -0.5139  -0.4935  -0.4866  -0.4752
 -0.4590  -0.4557  -0.4526  -0.4413  -0.4338  -0.4294  -0.4180  -0.4154
 -0.3882  -0.3834  -0.3773  -0.3701  -0.3389  -0.3370  -0.3194  -0.3088
 -0.3007  -0.2977  -0.2689

          Ground-State Mulliken Net Atomic Charges

     Atom                 Charge (a.u.)
  ----------------------------------------
      1 C                    -0.501624
      2 C                     0.216027
      3 C                    -0.021085
      4 C                    -0.861476
      5 C                     1.379224
      6 C                    -0.019531
      7 O                    -0.284373
      8 O                    -0.232925
      9 H                     0.268240
     10 H                     0.268400
     11 C                    -0.628485
     12 C                     0.675786
     13 C                    -0.694326
     14 C                    -0.572407
     15 C                    -0.572439
     16 O                    -0.244471
     17 H                     0.152881
     18 H                     0.177074
     19 H                     0.157468
     20 H                     0.165216
     21 H                     0.169816
     22 H                     0.179215
     23 H                     0.177797
     24 H                     0.168326
     25 H                     0.173354
     26 H                     0.304317
  ----------------------------------------
  Sum of atomic charges =     0.000000

                    Cartesian Multipole Moments
 -----------------------------------------------------------------
    Charge (ESU x 10^10)
                -0.0000
    Dipole Moment (Debye)
         X      -3.3964      Y       0.9740      Z      -1.2866
       Tot       3.7603
    Quadrupole Moments (Debye-Ang)
        XX     -96.3701     XY      -5.2617     YY     -71.2538
        XZ       1.3562     YZ       7.6694     ZZ     -97.7081

 Total job time:  32.03s(wall), 234.64s(cpu)
        *  Thank you very much for using Q-Chem.  Have a nice day.  *
