 Q-Chem 5.4, Q-Chem, Inc., Pleasanton, CA (2021)
 Q-Chem 5.4.0 for Intel X86 EM64T Linux

User input:
--------------------------------------------------------------
$molecule
0 1
O                  1.4223280000      2.2446740000     -0.0220020000
C                  0.7909100000      1.2022170000     -0.0977720000
C                 -0.6828800000      1.2382940000     -0.1616670000
C                 -1.4680860000      0.1421810000     -0.2217890000
C                 -0.7908070000     -1.2022080000     -0.2249090000
O                 -1.4221590000     -2.2446120000     -0.3017790000
C                  0.6829600000     -1.2382910000     -0.1604120000
C                  1.4681420000     -0.1421730000     -0.1001560000
C                  2.9413550000     -0.2319210000     -0.0175220000
C                  3.5355100000     -1.2290110000      0.7730950000
C                  4.9187610000     -1.3602280000      0.8346220000
C                  5.7349590000     -0.4987590000      0.1030170000
C                  5.1575720000      0.4979230000     -0.6820330000
C                  3.7744440000      0.6393500000     -0.7375130000
C                 -2.9413490000      0.2319260000     -0.3036680000
C                 -3.5359600000      1.2294530000     -1.0934000000
C                 -4.9192470000      1.3606610000     -1.1541120000
C                 -5.7350290000      0.4987540000     -0.4225720000
C                 -5.1572020000     -0.4983690000      0.3615830000
C                 -3.7740410000     -0.6397920000      0.4162390000
H                 -1.1042960000      2.2367730000     -0.1267910000
H                  1.1044100000     -2.2367680000     -0.1951060000
H                  2.9081850000     -1.8881330000      1.3622730000
H                  5.3588300000     -2.1291540000      1.4593750000
H                  6.8133850000     -0.5993450000      0.1498920000
H                  5.7864450000      1.1722610000     -1.2521180000
H                  3.3393740000      1.4219880000     -1.3429510000
H                 -2.9089740000      1.8889080000     -1.6825490000
H                 -5.3596680000      2.1299280000     -1.7781970000
H                 -6.8134840000      0.5993430000     -0.4688080000
H                 -5.7857430000     -1.1730730000      0.9316010000
H                 -3.3386460000     -1.4227960000      1.0209730000
$end

$rem
BASIS  =  6-311++G(d,p)
GUI  =  2
JOB_TYPE  =  SP
METHOD  =  B3LYP
SCF_CONVERGENCE  = 8
SOLVENT_METHOD = sm12
$end

$smx
solvent dimethylformamide
charges CM5
$end

--------------------------------------------------------------

             Standard Nuclear Orientation (Angstroms)
    I     Atom           X                Y                Z
 ----------------------------------------------------------------
    1      O       1.4223280000     2.2446740000    -0.0220020000
    2      C       0.7909100000     1.2022170000    -0.0977720000
    3      C      -0.6828800000     1.2382940000    -0.1616670000
    4      C      -1.4680860000     0.1421810000    -0.2217890000
    5      C      -0.7908070000    -1.2022080000    -0.2249090000
    6      O      -1.4221590000    -2.2446120000    -0.3017790000
    7      C       0.6829600000    -1.2382910000    -0.1604120000
    8      C       1.4681420000    -0.1421730000    -0.1001560000
    9      C       2.9413550000    -0.2319210000    -0.0175220000
   10      C       3.5355100000    -1.2290110000     0.7730950000
   11      C       4.9187610000    -1.3602280000     0.8346220000
   12      C       5.7349590000    -0.4987590000     0.1030170000
   13      C       5.1575720000     0.4979230000    -0.6820330000
   14      C       3.7744440000     0.6393500000    -0.7375130000
   15      C      -2.9413490000     0.2319260000    -0.3036680000
   16      C      -3.5359600000     1.2294530000    -1.0934000000
   17      C      -4.9192470000     1.3606610000    -1.1541120000
   18      C      -5.7350290000     0.4987540000    -0.4225720000
   19      C      -5.1572020000    -0.4983690000     0.3615830000
   20      C      -3.7740410000    -0.6397920000     0.4162390000
   21      H      -1.1042960000     2.2367730000    -0.1267910000
   22      H       1.1044100000    -2.2367680000    -0.1951060000
   23      H       2.9081850000    -1.8881330000     1.3622730000
   24      H       5.3588300000    -2.1291540000     1.4593750000
   25      H       6.8133850000    -0.5993450000     0.1498920000
   26      H       5.7864450000     1.1722610000    -1.2521180000
   27      H       3.3393740000     1.4219880000    -1.3429510000
   28      H      -2.9089740000     1.8889080000    -1.6825490000
   29      H      -5.3596680000     2.1299280000    -1.7781970000
   30      H      -6.8134840000     0.5993430000    -0.4688080000
   31      H      -5.7857430000    -1.1730730000     0.9316010000
   32      H      -3.3386460000    -1.4227960000     1.0209730000
 ----------------------------------------------------------------

   14    -843.7840913802      7.18e-09  Convergence criterion met
 Total energy in the final basis set =     -843.8081550191

                    Orbital Energies (a.u.)
 --------------------------------------------------------------

 Alpha MOs
 -- Occupied --
-19.1382 -19.1382 -10.2862 -10.2862 -10.2246 -10.2245 -10.2065 -10.2065
-10.2036 -10.2036 -10.1895 -10.1895 -10.1881 -10.1881 -10.1868 -10.1868
-10.1854 -10.1854 -10.1848 -10.1848  -1.0708  -1.0688  -0.8857  -0.8777
 -0.8560  -0.8178  -0.7684  -0.7610  -0.7608  -0.7461  -0.7055  -0.6585
 -0.6348  -0.6212  -0.6117  -0.6052  -0.5821  -0.5366  -0.5304  -0.5262
 -0.4961  -0.4862  -0.4715  -0.4687  -0.4670  -0.4606  -0.4498  -0.4449
 -0.4363  -0.4352  -0.4304  -0.4282  -0.4197  -0.4071  -0.3849  -0.3831
 -0.3680  -0.3666  -0.3592  -0.3579  -0.3174  -0.3166  -0.2901  -0.2783
 -0.2676  -0.2674  -0.2626  -0.2531

          Ground-State Mulliken Net Atomic Charges

     Atom                 Charge (a.u.)
  ----------------------------------------
      1 O                    -0.297366
      2 C                    -1.280101
      3 C                     0.004747
      4 C                     1.362306
      5 C                    -1.279875
      6 O                    -0.297383
      7 C                     0.005219
      8 C                     1.363048
      9 C                     0.979566
     10 C                    -0.585925
     11 C                     0.006950
     12 C                    -0.438338
     13 C                    -0.035536
     14 C                    -1.257337
     15 C                     0.980023
     16 C                    -0.584840
     17 C                     0.006462
     18 C                    -0.438107
     19 C                    -0.035817
     20 C                    -1.257270
     21 H                     0.313606
     22 H                     0.313700
     23 H                     0.274443
     24 H                     0.276088
     25 H                     0.263009
     26 H                     0.267476
     27 H                     0.145095
     28 H                     0.274465
     29 H                     0.276079
     30 H                     0.263015
     31 H                     0.267481
     32 H                     0.145116
  ----------------------------------------
  Sum of atomic charges =     0.000000

                    Cartesian Multipole Moments
 -----------------------------------------------------------------
    Charge (ESU x 10^10)
                 0.0000
    Dipole Moment (Debye)
         X      -0.0008      Y      -0.0001      Z       0.0030
       Tot       0.0031
    Quadrupole Moments (Debye-Ang)
        XX     -90.8313     XY     -12.3110     YY    -122.6133
        XZ       0.4424     YZ      -9.7622     ZZ    -114.5956

 Total job time:  814.39s(wall), 6258.71s(cpu)
        *  Thank you very much for using Q-Chem.  Have a nice day.  *
