 Gaussian 16, Revision A.03,
 Gaussian 16:  ES64L-G16RevA.03 25-Dec-2016

 ----------------------------------------------------------------
 #P UB3LYP/6-311++G(d,p) SCRF=(PCM,Solvent=n,n-DiMethylFormamide)
 ----------------------------------------------------------------

 -------
 Reduced
 -------
 Symbolic Z-matrix:
 Charge = -2 Multiplicity = 1

                         Standard orientation:
 ---------------------------------------------------------------------
 Center     Atomic      Atomic             Coordinates (Angstroms)
 Number     Number       Type             X           Y           Z
 ---------------------------------------------------------------------
      1          6           0       -1.097567   -1.053905   -0.068163
      2          6           0       -2.244042   -0.289823   -0.112810
      3          6           0       -2.167020    1.124458   -0.107886
      4          6           0       -0.913303    1.723452   -0.067100
      5          6           0        0.280593    0.989815   -0.029514
      6          6           0        0.190917   -0.455850   -0.034302
      7          6           0        1.373379   -1.261434   -0.008458
      8          6           0        2.604722   -0.542848    0.034908
      9          6           0        2.719344    0.841665    0.048924
     10          6           0        1.573219    1.694144    0.018919
     11          8           0        1.429416   -2.566594   -0.009996
     12          8           0        1.650670    2.970284    0.028366
     13          8           0        3.708145   -1.368067    0.067705
     14          8           0       -3.458806   -0.970761   -0.221607
     15          6           0       -4.610012   -0.339402    0.305571
     16          1           0       -1.165281   -2.135914   -0.071550
     17          1           0       -3.062995    1.733554   -0.135830
     18          1           0       -0.820678    2.805441   -0.064434
     19          1           0        3.702298    1.304176    0.084185
     20          1           0        3.249265   -2.246669    0.054603
     21          1           0       -5.417069   -1.076159    0.286006
     22          1           0       -4.927170    0.524441   -0.293609
     23          1           0       -4.455159   -0.009401    1.344353
 ---------------------------------------------------------------------

 SCF Done:  E(UB3LYP) =  -725.326163212     A.U. after   17 cycles

 The electronic state is 1-A.
 Alpha  occ. eigenvalues --  -19.13621 -19.11079 -19.02280 -19.02015 -10.21060
 Alpha  occ. eigenvalues --  -10.20846 -10.17786 -10.17745 -10.15832 -10.14969
 Alpha  occ. eigenvalues --  -10.14663 -10.14019 -10.13952 -10.13264 -10.11613
 Alpha  occ. eigenvalues --   -1.04505  -1.02350  -0.94004  -0.92548  -0.82566
 Alpha  occ. eigenvalues --   -0.76243  -0.73343  -0.70700  -0.67595  -0.63396
 Alpha  occ. eigenvalues --   -0.59201  -0.57049  -0.53828  -0.51293  -0.49319
 Alpha  occ. eigenvalues --   -0.45749  -0.45501  -0.44895  -0.44153  -0.41187
 Alpha  occ. eigenvalues --   -0.40187  -0.39404  -0.38726  -0.37160  -0.36363
 Alpha  occ. eigenvalues --   -0.35613  -0.35242  -0.33634  -0.32902  -0.31593
 Alpha  occ. eigenvalues --   -0.30677  -0.30108  -0.28025  -0.22814  -0.21334
 Alpha  occ. eigenvalues --   -0.21207  -0.19817  -0.19475  -0.10765
 Alpha virt. eigenvalues --   -0.00467  -0.00032   0.00935   0.01564   0.02198
 Alpha virt. eigenvalues --    0.02671   0.02905   0.03699   0.04563   0.05327
 Alpha virt. eigenvalues --    0.05879   0.06463   0.06874   0.07024   0.08147

  Beta  occ. eigenvalues --  -19.13621 -19.11079 -19.02280 -19.02015 -10.21060
  Beta  occ. eigenvalues --  -10.20846 -10.17786 -10.17745 -10.15832 -10.14969
  Beta  occ. eigenvalues --  -10.14663 -10.14019 -10.13952 -10.13264 -10.11613
  Beta  occ. eigenvalues --   -1.04505  -1.02350  -0.94004  -0.92548  -0.82566
  Beta  occ. eigenvalues --   -0.76243  -0.73343  -0.70700  -0.67595  -0.63396
  Beta  occ. eigenvalues --   -0.59201  -0.57049  -0.53828  -0.51293  -0.49319
  Beta  occ. eigenvalues --   -0.45749  -0.45501  -0.44895  -0.44153  -0.41187
  Beta  occ. eigenvalues --   -0.40187  -0.39404  -0.38726  -0.37160  -0.36363
  Beta  occ. eigenvalues --   -0.35613  -0.35242  -0.33634  -0.32902  -0.31593
  Beta  occ. eigenvalues --   -0.30677  -0.30108  -0.28025  -0.22814  -0.21334
  Beta  occ. eigenvalues --   -0.21207  -0.19817  -0.19475  -0.10765
  Beta virt. eigenvalues --   -0.00467  -0.00032   0.00935   0.01564   0.02198
  Beta virt. eigenvalues --    0.02671   0.02905   0.03699   0.04563   0.05327
  Beta virt. eigenvalues --    0.05879   0.06463   0.06874   0.07024   0.08147

 Mulliken charges and spin densities:
               1          2
     1  C   -0.353894   0.000000
     2  C   -0.481186  -0.000000
     3  C    0.180511  -0.000000
     4  C   -0.056657   0.000000
     5  C    0.376828  -0.000000
     6  C    0.447916   0.000000
     7  C   -0.923035   0.000000
     8  C   -0.206168  -0.000000
     9  C    0.491396   0.000000
    10  C   -0.539981   0.000000
    11  O   -0.731971  -0.000000
    12  O   -0.673133   0.000000
    13  O   -0.357186  -0.000000
    14  O   -0.216052   0.000000
    15  C   -0.311428  -0.000000
    16  H    0.162660  -0.000000
    17  H    0.177393   0.000000
    18  H    0.142270  -0.000000
    19  H    0.140609  -0.000000
    20  H    0.274707  -0.000000
    21  H    0.160748  -0.000000
    22  H    0.140398  -0.000000
    23  H    0.155256  -0.000000
 Sum of Mulliken charges =  -2.00000   0.00000

 Dipole moment (field-independent basis, Debye):
    X=            -14.4132    Y=             -0.5544    Z=              0.6813  Tot=             14.4399
 Quadrupole moment (field-independent basis, Debye-Ang):
   XX=           -127.5395   YY=           -150.3381   ZZ=            -97.8059
   XY=             -8.2172   XZ=             -3.5778   YZ=             -1.1413

 Normal termination of Gaussian 16 at Thu Jan 25 05:46:21 2024.
