 Gaussian 16, Revision A.03,
 Gaussian 16:  ES64L-G16RevA.03 25-Dec-2016

 --------------------------------------
 #P UB3LYP/6-311++G(d,p) nosym opt freq
 --------------------------------------

 -------
 Reduced
 -------
 Symbolic Z-matrix:
 Charge = -2 Multiplicity = 1

 SCF Done:  E(UB3LYP) =  -725.057224589     A.U. after   52 cycles
 Optimization completed.
    -- Stationary point found.
 Normal termination of Gaussian 16 at Mon Jan  8 21:30:19 2024.

 ----------------------------------------------------------------------
 #P Geom=AllCheck Guess=TCheck SCRF=Check GenChk UB3LYP/6-311++G(d,p) F
 req
 ----------------------------------------------------------------------

 Structure from the checkpoint file:  "304-an.chk"
 -------
 Reduced
 -------
 Charge = -2 Multiplicity = 1

                          Input orientation:
 ---------------------------------------------------------------------
 Center     Atomic      Atomic             Coordinates (Angstroms)
 Number     Number       Type             X           Y           Z
 ---------------------------------------------------------------------
      1          6           0       -4.172483    3.518703    1.529255
      2          6           0       -4.689219    3.666147    0.259820
      3          6           0       -4.087932    3.010917   -0.842575
      4          6           0       -2.974445    2.210349   -0.615641
      5          6           0       -2.417917    2.022522    0.657160
      6          6           0       -3.039878    2.697439    1.777724
      7          6           0       -2.526196    2.537446    3.103764
      8          6           0       -1.380272    1.696231    3.220675
      9          6           0       -0.759130    1.044152    2.162758
     10          6           0       -1.232456    1.163768    0.820045
     11          8           0       -2.992319    3.086878    4.193461
     12          8           0       -0.681364    0.572813   -0.170758
     13          8           0       -0.923896    1.586087    4.516512
     14          8           0       -5.849818    4.432551    0.130206
     15          6           0       -6.066753    5.083686   -1.107036
     16          1           0       -4.638275    4.024267    2.367576
     17          1           0       -4.482845    3.126248   -1.845218
     18          1           0       -2.492075    1.692953   -1.439600
     19          1           0        0.113167    0.422167    2.346033
     20          1           0       -1.584676    2.171516    4.967430
     21          1           0       -6.914862    5.759199   -0.969457
     22          1           0       -6.321532    4.381925   -1.912299
     23          1           0       -5.190074    5.672625   -1.417734
 ---------------------------------------------------------------------

 SCF Done:  E(UB3LYP) =  -725.057224589     A.U. after    4 cycles

 Alpha  occ. eigenvalues --  -18.92844 -18.89023 -18.80482 -18.79666 -10.01756
 Alpha  occ. eigenvalues --   -9.99173  -9.96129  -9.95778  -9.94463  -9.93222
 Alpha  occ. eigenvalues --   -9.93066  -9.92218  -9.92013  -9.91276  -9.89725
 Alpha  occ. eigenvalues --   -0.83722  -0.80246  -0.71308  -0.70387  -0.60677
 Alpha  occ. eigenvalues --   -0.54480  -0.52023  -0.49122  -0.46601  -0.41635
 Alpha  occ. eigenvalues --   -0.37408  -0.35592  -0.31906  -0.30126  -0.27568
 Alpha  occ. eigenvalues --   -0.25617  -0.24831  -0.23275  -0.22040  -0.20056
 Alpha  occ. eigenvalues --   -0.18251  -0.17754  -0.16452  -0.15399  -0.14080
 Alpha  occ. eigenvalues --   -0.13932  -0.13019  -0.12056  -0.10910  -0.09532
 Alpha  occ. eigenvalues --   -0.08485  -0.08148  -0.06249  -0.00507   0.01078
 Alpha  occ. eigenvalues --    0.01211   0.02740   0.03066   0.12184
 Alpha virt. eigenvalues --    0.13660   0.16834   0.18326   0.19022   0.19610
 Alpha virt. eigenvalues --    0.20041   0.20990   0.21656   0.22516   0.23418
 Alpha virt. eigenvalues --    0.24064   0.25863   0.26501   0.26847   0.27046

  Beta  occ. eigenvalues --  -18.92844 -18.89023 -18.80482 -18.79666 -10.01756
  Beta  occ. eigenvalues --   -9.99173  -9.96129  -9.95778  -9.94463  -9.93222
  Beta  occ. eigenvalues --   -9.93066  -9.92218  -9.92013  -9.91276  -9.89725
  Beta  occ. eigenvalues --   -0.83722  -0.80246  -0.71308  -0.70387  -0.60677
  Beta  occ. eigenvalues --   -0.54480  -0.52023  -0.49122  -0.46601  -0.41635
  Beta  occ. eigenvalues --   -0.37408  -0.35592  -0.31906  -0.30126  -0.27568
  Beta  occ. eigenvalues --   -0.25617  -0.24831  -0.23275  -0.22040  -0.20056
  Beta  occ. eigenvalues --   -0.18251  -0.17754  -0.16452  -0.15399  -0.14080
  Beta  occ. eigenvalues --   -0.13932  -0.13019  -0.12056  -0.10910  -0.09532
  Beta  occ. eigenvalues --   -0.08485  -0.08148  -0.06249  -0.00507   0.01078
  Beta  occ. eigenvalues --    0.01211   0.02740   0.03066   0.12184
  Beta virt. eigenvalues --    0.13660   0.16834   0.18326   0.19022   0.19610
  Beta virt. eigenvalues --    0.20041   0.20990   0.21656   0.22516   0.23418
  Beta virt. eigenvalues --    0.24064   0.25863   0.26501   0.26847   0.27046

 Mulliken charges and spin densities:
               1          2
     1  C   -0.783929  -0.000000
     2  C   -0.976783  -0.000000
     3  C    0.760977   0.000000
     4  C    0.383732   0.000000
     5  C    0.902553   0.000000
     6  C    0.359457  -0.000000
     7  C   -1.354687  -0.000000
     8  C   -0.212340   0.000000
     9  C    0.762142  -0.000000
    10  C   -0.800271   0.000000
    11  O   -0.560308   0.000000
    12  O   -0.504095   0.000000
    13  O   -0.316988  -0.000000
    14  O   -0.231842  -0.000000
    15  C    1.294872   0.000000
    16  H    0.185434   0.000000
    17  H    0.157819   0.000000
    18  H    0.092184  -0.000000
    19  H    0.103873   0.000000
    20  H    0.240824   0.000000
    21  H   -0.976335  -0.000000
    22  H   -0.516559  -0.000000
    23  H   -0.009731   0.000000
 Sum of Mulliken charges =  -2.00000  -0.00000

 Dipole moment (field-independent basis, Debye):
    X=             29.8175    Y=            -25.8510    Z=            -11.6213  Tot=             41.1390
 Quadrupole moment (field-independent basis, Debye-Ang):
   XX=           -260.5051   YY=           -210.3265   ZZ=           -171.2771
   XY=            127.8014   XZ=             11.5431   YZ=            -21.2283

  Exact polarizability: 987.517-547.427 735.823 440.052-218.119 747.539
 Approx polarizability:4771.913********2767.2923308.527********3033.974

                      1                      2                      3
                      A                      A                      A
 Frequencies --     40.2651                89.8366               105.7536
 Red. masses --      2.9699                 6.2851                 5.0936
 Frc consts  --      0.0028                 0.0299                 0.0336
 IR Inten    --      8.3028                 2.0763                 6.9713

                      4                      5                      6
                      A                      A                      A
 Frequencies --    163.1817               176.0745               215.3456
 Red. masses --      6.1515                 6.5437                 1.5169
 Frc consts  --      0.0965                 0.1195                 0.0414
 IR Inten    --      4.4032                 2.6887                27.4953

                      7                      8                      9
                      A                      A                      A
 Frequencies --    247.7544               276.6305               314.6860
 Red. masses --      3.3633                 3.2757                 7.8082
 Frc consts  --      0.1216                 0.1477                 0.4556
 IR Inten    --      9.3465                13.4993                 4.9899

                     10                     11                     12
                      A                      A                      A
 Frequencies --    326.8457               337.0689               370.8911
 Red. masses --      5.8139                 5.7640                 6.3301
 Frc consts  --      0.3659                 0.3858                 0.5130
 IR Inten    --     31.1131                 7.3036                 6.8266

                     13                     14                     15
                      A                      A                      A
 Frequencies --    401.4901               426.7832               463.1131
 Red. masses --      8.2387                 8.2193                 3.3448
 Frc consts  --      0.7825                 0.8821                 0.4227
 IR Inten    --     93.4967               134.6088                 8.3426

                     16                     17                     18
                      A                      A                      A
 Frequencies --    489.3233               524.2015               585.0577
 Red. masses --     10.4385                 4.8036                 4.1002
 Frc consts  --      1.4726                 0.7777                 0.8269
 IR Inten    --    515.4821                14.8508                 7.0643

                     19                     20                     21
                      A                      A                      A
 Frequencies --    641.7533               658.4258               680.2549
 Red. masses --      6.0533                 2.1320                 6.3818
 Frc consts  --      1.4688                 0.5446                 1.7400
 IR Inten    --     18.0013                 2.3641                30.9292

                     22                     23                     24
                      A                      A                      A
 Frequencies --    700.3903               719.4885               724.1126
 Red. masses --      4.9480                 9.5887                 2.3544
 Frc consts  --      1.4301                 2.9246                 0.7273
 IR Inten    --     15.3922                 8.1403                 5.0052

                     25                     26                     27
                      A                      A                      A
 Frequencies --    756.8742               762.0211               788.7588
 Red. masses --      6.0526                 1.8600                 1.2449
 Frc consts  --      2.0429                 0.6364                 0.4563
 IR Inten    --     98.8174                 2.0272                49.7152

                     28                     29                     30
                      A                      A                      A
 Frequencies --    804.1324               880.1178               886.9763
 Red. masses --      1.8489                 4.6968                 1.4643
 Frc consts  --      0.7044                 2.1435                 0.6787
 IR Inten    --     57.3698                19.1857                17.3121

                     31                     32                     33
                      A                      A                      A
 Frequencies --    957.6143              1016.6699              1038.8202
 Red. masses --      1.3192                 3.3965                 3.8487
 Frc consts  --      0.7128                 2.0685                 2.4471
 IR Inten    --      3.3076                32.1677               303.4193

                     34                     35                     36
                      A                      A                      A
 Frequencies --   1088.8940              1134.0322              1146.2488
 Red. masses --      2.7638                 2.2486                 2.2224
 Frc consts  --      1.9308                 1.7038                 1.7204
 IR Inten    --     27.4709               423.7232               124.5304

                     37                     38                     39
                      A                      A                      A
 Frequencies --   1163.4602              1177.0269              1193.1412
 Red. masses --      1.3122                 2.1014                 2.6320
 Frc consts  --      1.0465                 1.7153                 2.2076
 IR Inten    --     45.4742               209.9778               107.2880

                     40                     41                     42
                      A                      A                      A
 Frequencies --   1202.1283              1233.6256              1251.4639
 Red. masses --      1.6777                 4.0968                 1.8554
 Frc consts  --      1.4285                 3.6734                 1.7120
 IR Inten    --    405.6150               547.7617                80.8095

                     43                     44                     45
                      A                      A                      A
 Frequencies --   1324.4089              1338.5929              1420.4969
 Red. masses --      2.8089                 4.3337                 3.6409
 Frc consts  --      2.9029                 4.5752                 4.3285
 IR Inten    --   1027.3410               469.0813              2580.0081

                     46                     47                     48
                      A                      A                      A
 Frequencies --   1423.2289              1438.9795              1455.8681
 Red. masses --      4.8809                 3.2631                 1.4231
 Frc consts  --      5.8251                 3.9809                 1.7771
 IR Inten    --   2034.1331               715.7159               291.4143

                     49                     50                     51
                      A                      A                      A
 Frequencies --   1478.5432              1484.8099              1503.6300
 Red. masses --      1.2141                 2.3681                 1.0898
 Frc consts  --      1.5638                 3.0760                 1.4517
 IR Inten    --     77.9363               670.2414               182.1360

                     52                     53                     54
                      A                      A                      A
 Frequencies --   1520.6489              1554.1220              1593.1129
 Red. masses --      4.9066                 3.2882                 4.4033
 Frc consts  --      6.6848                 4.6793                 6.5844
 IR Inten    --    190.3083               152.3736               974.6448

                     55                     56                     57
                      A                      A                      A
 Frequencies --   1601.7852              2947.5843              3004.2776
 Red. masses --      6.4600                 1.0376                 1.1012
 Frc consts  --      9.7654                 5.3116                 5.8557
 IR Inten    --   2220.7230                57.6978                38.6743

                     58                     59                     60
                      A                      A                      A
 Frequencies --   3070.1135              3136.8750              3150.0680
 Red. masses --      1.0971                 1.0883                 1.0856
 Frc consts  --      6.0927                 6.3098                 6.3467
 IR Inten    --     88.4141               239.1220                 3.5025

                     61                     62                     63
                      A                      A                      A
 Frequencies --   3171.3076              3179.0931              3329.5579
 Red. masses --      1.0918                 1.0890                 1.0635
 Frc consts  --      6.4696                 6.4848                 6.9464
 IR Inten    --     30.2446                10.8618               323.7057

 - Thermochemistry -
 -------------------
 Temperature   298.150 Kelvin.  Pressure   1.00000 Atm.
 Atom     1 has atomic number  6 and mass  12.00000

 Molecular mass:   204.04226 amu.
 Principal axes and moments of inertia in atomic units:
                           1         2         3
     Eigenvalues --  1664.454834361.730945994.27159
           X            0.68848  -0.38279   0.61601
           Y           -0.45217   0.43752   0.77725
           Z            0.56704   0.81367  -0.12813
 This molecule is an asymmetric top.
 Rotational symmetry number  1.
 Warning -- assumption of classical behavior for rotation
           may cause significant error
 Rotational temperatures (Kelvin)      0.05204     0.01986     0.01445
 Rotational constants (GHZ):           1.08428     0.41377     0.30108
 Zero-point vibrational energy     432377.3 (Joules/Mol)
                                  103.34065 (Kcal/Mol)
 Warning -- explicit consideration of  18 degrees of freedom as
           vibrations may cause significant error
 Vibrational temperatures:     57.93   129.25   152.16   234.78   253.33
          (Kelvin)            309.83   356.46   398.01   452.76   470.26
                              484.97   533.63   577.65   614.05   666.32
                              704.03   754.21   841.77   923.34   947.33
                              978.74  1007.71  1035.18  1041.84  1088.97
                             1096.38  1134.85  1156.97  1266.29  1276.16
                             1377.79  1462.76  1494.63  1566.68  1631.62
                             1649.20  1673.96  1693.48  1716.66  1729.59
                             1774.91  1800.58  1905.53  1925.94  2043.78
                             2047.71  2070.37  2094.67  2127.29  2136.31
                             2163.39  2187.87  2236.03  2292.13  2304.61
                             4240.92  4322.49  4417.21  4513.26  4532.25
                             4562.80  4574.01  4790.49

 Zero-point correction=                           0.164684 (Hartree/Particle)
 Thermal correction to Energy=                    0.177024
 Thermal correction to Enthalpy=                  0.177968
 Thermal correction to Gibbs Free Energy=         0.125842
 Sum of electronic and zero-point Energies=           -724.892541
 Sum of electronic and thermal Energies=              -724.880201
 Sum of electronic and thermal Enthalpies=            -724.879257
 Sum of electronic and thermal Free Energies=         -724.931382

                     E (Thermal)             CV                S
                      KCal/Mol        Cal/Mol-Kelvin    Cal/Mol-Kelvin
 Total                  111.084             48.219            109.708
 Electronic               0.000              0.000              0.000
 Translational            0.889              2.981             41.844
 Rotational               0.889              2.981             32.143
 Vibrational            109.307             42.257             35.721
 Vibration     1          0.594              1.981              5.246
 Vibration     2          0.602              1.956              3.664
 Vibration     3          0.605              1.945              3.345
 Vibration     4          0.623              1.888              2.513
 Vibration     5          0.628              1.872              2.370
 Vibration     6          0.645              1.818              1.998
 Vibration     7          0.661              1.766              1.747
 Vibration     8          0.678              1.717              1.554
 Vibration     9          0.702              1.646              1.338
 Vibration    10          0.711              1.622              1.276
 Vibration    11          0.718              1.601              1.226
 Vibration    12          0.743              1.532              1.076
 Vibration    13          0.767              1.467              0.957
 Vibration    14          0.788              1.412              0.869
 Vibration    15          0.821              1.332              0.757
 Vibration    16          0.845              1.274              0.685
 Vibration    17          0.879              1.196              0.600
 Vibration    18          0.942              1.064              0.476

 Optimization completed.
    -- Stationary point found.
 Normal termination of Gaussian 16 at Mon Jan  8 21:57:57 2024.
