 Gaussian 16, Revision A.03,
 Gaussian 16:  ES64L-G16RevA.03 25-Dec-2016

 ----------------------------------------------------------------
 #P UB3LYP/6-311++G(d,p) SCRF=(PCM,Solvent=n,n-DiMethylFormamide)
 ----------------------------------------------------------------

 ------------------
 Quinone PCM in DMF
 ------------------
 Symbolic Z-matrix:
 Charge = -1 Multiplicity = 1

                         Standard orientation:
 ---------------------------------------------------------------------
 Center     Atomic      Atomic             Coordinates (Angstroms)
 Number     Number       Type             X           Y           Z
 ---------------------------------------------------------------------
      1          6           0       -2.241401    0.240779   -0.029471
      2          6           0       -1.940264    1.604267   -0.027231
      3          6           0       -0.616580    2.028392   -0.018820
      4          6           0        1.825321    1.585116    0.000792
      5          8           0        2.107296    2.777529    0.006928
      6          6           0        2.914010    0.555631    0.004025
      7          6           0        4.248373    0.975288    0.012074
      8          6           0        5.276760    0.040787    0.014649
      9          6           0        4.980322   -1.325689    0.008719
     10          6           0        3.657175   -1.750291    0.000414
     11          6           0        2.616532   -0.815957   -0.001601
     12          6           0        1.198364   -1.305874   -0.011062
     13          8           0        0.965806   -2.504959   -0.015650
     14          6           0        0.121883   -0.282771   -0.014935
     15          6           0       -1.211097   -0.698240   -0.025849
     16          1           0       -2.761430    2.310911   -0.044173
     17          1           0       -0.367850    3.082878   -0.019500
     18          1           0        4.450278    2.039490    0.016308
     19          1           0        6.309726    0.371938    0.021047
     20          1           0        5.783117   -2.055192    0.010508
     21          1           0        3.399817   -2.802471   -0.004262
     22          1           0       -1.440194   -1.756259   -0.040762
     23          6           0        0.428428    1.098917   -0.010957
     24         16           0       -3.989103   -0.313185    0.010296
     25          8           0       -4.753582    0.901103   -0.364198
     26          8           0       -4.034564   -1.411707   -0.982371
     27          8           0       -4.171803   -0.747274    1.416744
 ---------------------------------------------------------------------

 SCF Done:  E(UB3LYP) =  -1312.42854550     A.U. after   15 cycles

 The electronic state is 1-A.
 Alpha  occ. eigenvalues --  -89.05054 -19.13258 -19.13203 -19.09591 -19.09587
 Alpha  occ. eigenvalues --  -19.09529 -10.28482 -10.28439 -10.21573 -10.21373
 Alpha  occ. eigenvalues --  -10.21221 -10.20856 -10.20804 -10.20410 -10.20196
 Alpha  occ. eigenvalues --  -10.20140 -10.19867 -10.19817 -10.19712 -10.19706
 Alpha  occ. eigenvalues --   -8.10938  -6.07201  -6.07194  -6.07132  -1.11647
 Alpha  occ. eigenvalues --   -1.06683  -1.06392  -0.98110  -0.97943  -0.89689
 Alpha  occ. eigenvalues --   -0.88408  -0.81621  -0.78469  -0.77744  -0.77374
 Alpha  occ. eigenvalues --   -0.69550  -0.67649  -0.65051  -0.62210  -0.60245
 Alpha  occ. eigenvalues --   -0.58713  -0.56172  -0.54529  -0.51068  -0.49910
 Alpha  occ. eigenvalues --   -0.49191  -0.48734  -0.46045  -0.45927  -0.45734
 Alpha  occ. eigenvalues --   -0.45535  -0.45464  -0.45161  -0.44961  -0.44064
 Alpha  occ. eigenvalues --   -0.42015  -0.41826  -0.39616  -0.38520  -0.37677
 Alpha  occ. eigenvalues --   -0.37277  -0.36698  -0.34026  -0.33965  -0.31745
 Alpha  occ. eigenvalues --   -0.30351  -0.29648  -0.28850  -0.28833  -0.28066
 Alpha  occ. eigenvalues --   -0.27784  -0.27619  -0.26991  -0.26107
 Alpha virt. eigenvalues --   -0.12050  -0.07727  -0.03980  -0.02912  -0.00513
 Alpha virt. eigenvalues --    0.00423   0.01230   0.02035   0.02404   0.02795
 Alpha virt. eigenvalues --    0.03316   0.03890   0.04300   0.04478   0.04509

  Beta  occ. eigenvalues --  -89.05054 -19.13258 -19.13203 -19.09591 -19.09587
  Beta  occ. eigenvalues --  -19.09529 -10.28482 -10.28439 -10.21573 -10.21373
  Beta  occ. eigenvalues --  -10.21221 -10.20856 -10.20804 -10.20410 -10.20196
  Beta  occ. eigenvalues --  -10.20140 -10.19867 -10.19817 -10.19712 -10.19706
  Beta  occ. eigenvalues --   -8.10938  -6.07201  -6.07194  -6.07132  -1.11647
  Beta  occ. eigenvalues --   -1.06683  -1.06392  -0.98110  -0.97943  -0.89689
  Beta  occ. eigenvalues --   -0.88408  -0.81621  -0.78469  -0.77744  -0.77374
  Beta  occ. eigenvalues --   -0.69550  -0.67649  -0.65051  -0.62210  -0.60245
  Beta  occ. eigenvalues --   -0.58713  -0.56172  -0.54529  -0.51068  -0.49910
  Beta  occ. eigenvalues --   -0.49191  -0.48734  -0.46045  -0.45927  -0.45734
  Beta  occ. eigenvalues --   -0.45535  -0.45464  -0.45161  -0.44961  -0.44064
  Beta  occ. eigenvalues --   -0.42015  -0.41826  -0.39616  -0.38520  -0.37677
  Beta  occ. eigenvalues --   -0.37277  -0.36698  -0.34026  -0.33965  -0.31745
  Beta  occ. eigenvalues --   -0.30351  -0.29648  -0.28850  -0.28833  -0.28066
  Beta  occ. eigenvalues --   -0.27784  -0.27619  -0.26991  -0.26107
  Beta virt. eigenvalues --   -0.12050  -0.07727  -0.03980  -0.02912  -0.00513
  Beta virt. eigenvalues --    0.00423   0.01230   0.02035   0.02404   0.02795
  Beta virt. eigenvalues --    0.03316   0.03890   0.04300   0.04478   0.04509

 Mulliken charges and spin densities:
               1          2
     1  C   -0.949022   0.000000
     2  C   -0.119286   0.000000
     3  C    0.215207  -0.000000
     4  C   -0.581321   0.000000
     5  O   -0.271089  -0.000000
     6  C    0.237989   0.000000
     7  C    0.176936  -0.000000
     8  C   -0.435393   0.000000
     9  C   -0.401097   0.000000
    10  C    0.119633   0.000000
    11  C    0.413598   0.000000
    12  C   -0.715966  -0.000000
    13  O   -0.264584  -0.000000
    14  C    0.332871  -0.000000
    15  C   -0.161802  -0.000000
    16  H    0.242382  -0.000000
    17  H    0.191470   0.000000
    18  H    0.186352   0.000000
    19  H    0.207384   0.000000
    20  H    0.208742   0.000000
    21  H    0.183107   0.000000
    22  H    0.202937   0.000000
    23  C    0.340566  -0.000000
    24  S    0.742153  -0.000000
    25  O   -0.387336  -0.000000
    26  O   -0.371111  -0.000000
    27  O   -0.343321  -0.000000
 Sum of Mulliken charges =  -1.00000   0.00000

 Dipole moment (field-independent basis, Debye):
    X=             22.3323    Y=              2.6943    Z=             -0.2068  Tot=             22.4952
 Quadrupole moment (field-independent basis, Debye-Ang):
   XX=           -196.9363   YY=           -141.9236   ZZ=           -133.4228
   XY=            -18.3942   XZ=              0.6800   YZ=             -0.1032

 Normal termination of Gaussian 16 at Tue Jan 16 16:53:11 2024.
