 Gaussian 16, Revision A.03,
 Gaussian 16:  ES64L-G16RevA.03 25-Dec-2016

 --------------------------------------
 #P UB3LYP/6-311++G(d,p) nosym opt freq
 --------------------------------------

 -------
 Reduced
 -------
 Symbolic Z-matrix:
 Charge = -2 Multiplicity = 1

 SCF Done:  E(UB3LYP) =  -798.719562785     A.U. after   32 cycles
 SCF Done:  E(UB3LYP) =  -798.719610014     A.U. after   39 cycles
 SCF Done:  E(UB3LYP) =  -798.719659797     A.U. after   30 cycles
 SCF Done:  E(UB3LYP) =  -798.719756157     A.U. after   31 cycles
 SCF Done:  E(UB3LYP) =  -798.719772745     A.U. after   23 cycles
 SCF Done:  E(UB3LYP) =  -798.719775475     A.U. after   26 cycles
 SCF Done:  E(UB3LYP) =  -798.719776174     A.U. after   22 cycles
 SCF Done:  E(UB3LYP) =  -798.719776291     A.U. after   18 cycles
 SCF Done:  E(UB3LYP) =  -798.719776406     A.U. after   20 cycles
 Optimization completed.
    -- Stationary point found.
 Normal termination of Gaussian 16 at Mon Jan  8 18:00:49 2024.

 ----------------------------------------------------------------------
 #P Geom=AllCheck Guess=TCheck SCRF=Check GenChk UB3LYP/6-311++G(d,p) F
 req
 ----------------------------------------------------------------------

 Structure from the checkpoint file:  "271-an.chk"
 -------
 Reduced
 -------
 Charge = -2 Multiplicity = 1

                          Input orientation:
 ---------------------------------------------------------------------
 Center     Atomic      Atomic             Coordinates (Angstroms)
 Number     Number       Type             X           Y           Z
 ---------------------------------------------------------------------
      1          6           0       -0.983814    3.916065    0.012400
      2          6           0       -2.156363    3.199084    0.147464
      3          6           0       -2.123493    1.774745    0.128496
      4          6           0        0.279290    3.286231   -0.145232
      5          6           0        0.309625    1.830367   -0.154348
      6          6           0       -0.911009    1.126490   -0.020223
      7          6           0        1.466163    4.082898   -0.302575
      8          6           0        2.685689    3.354534   -0.463909
      9          6           0        2.715186    1.946562   -0.397552
     10          6           0        1.549213    1.123732   -0.290517
     11          8           0        1.472161    5.386372   -0.317647
     12          8           0        1.663807   -0.179019   -0.337959
     13          7           0        3.825905    4.131523   -0.751992
     14          1           0       -0.983040    5.002193    0.018056
     15          1           0       -3.105873    3.720094    0.265985
     16          1           0       -3.044719    1.203384    0.232272
     17          1           0       -0.852878    0.041774   -0.035862
     18          1           0        3.581016    5.096411   -0.533701
     19          1           0        4.669458    3.796508   -0.294650
     20          7           0        3.860720    1.115946   -0.569463
     21          6           0        5.157029    1.209406   -0.239916
     22          6           0        5.962880   -0.063313   -0.516363
     23          1           0        3.466532    0.169812   -0.701781
     24          1           0        5.345172   -0.907535   -0.833844
     25          1           0        6.511168   -0.335363    0.391540
     26          1           0        6.704419    0.145633   -1.295349
     27          8           0        5.753232    2.194703    0.234201
 ---------------------------------------------------------------------

 SCF Done:  E(UB3LYP) =  -798.719776406     A.U. after    2 cycles

 Alpha  occ. eigenvalues --  -18.85692 -18.78436 -18.76327 -14.10041 -14.03362
 Alpha  occ. eigenvalues --  -10.04326  -9.97454  -9.93339  -9.92669  -9.92020
 Alpha  occ. eigenvalues --   -9.91900  -9.91860  -9.91727  -9.91283  -9.90896
 Alpha  occ. eigenvalues --   -9.89490  -9.89337  -0.79923  -0.71195  -0.68036
 Alpha  occ. eigenvalues --   -0.67046  -0.61964  -0.58547  -0.53641  -0.51255
 Alpha  occ. eigenvalues --   -0.48544  -0.45955  -0.40779  -0.37684  -0.34720
 Alpha  occ. eigenvalues --   -0.31606  -0.29810  -0.27698  -0.25671  -0.24688
 Alpha  occ. eigenvalues --   -0.23786  -0.23394  -0.20421  -0.19555  -0.18284
 Alpha  occ. eigenvalues --   -0.17223  -0.16623  -0.16256  -0.15906  -0.14693
 Alpha  occ. eigenvalues --   -0.12733  -0.11512  -0.10283  -0.09509  -0.08879
 Alpha  occ. eigenvalues --   -0.07711  -0.06183  -0.04535  -0.03447  -0.02557
 Alpha  occ. eigenvalues --    0.01024   0.02357   0.03140   0.05412   0.06282
 Alpha  occ. eigenvalues --    0.13663
 Alpha virt. eigenvalues --    0.15039   0.16546   0.18219   0.18336   0.19265
 Alpha virt. eigenvalues --    0.20501   0.21320   0.21855   0.22449   0.22959
 Alpha virt. eigenvalues --    0.24017   0.24905   0.25748   0.26336   0.26419

  Beta  occ. eigenvalues --  -18.85692 -18.78436 -18.76327 -14.10041 -14.03362
  Beta  occ. eigenvalues --  -10.04326  -9.97454  -9.93339  -9.92669  -9.92020
  Beta  occ. eigenvalues --   -9.91900  -9.91860  -9.91727  -9.91283  -9.90896
  Beta  occ. eigenvalues --   -9.89490  -9.89337  -0.79923  -0.71195  -0.68036
  Beta  occ. eigenvalues --   -0.67046  -0.61964  -0.58547  -0.53641  -0.51255
  Beta  occ. eigenvalues --   -0.48544  -0.45955  -0.40779  -0.37684  -0.34720
  Beta  occ. eigenvalues --   -0.31606  -0.29810  -0.27698  -0.25671  -0.24688
  Beta  occ. eigenvalues --   -0.23786  -0.23394  -0.20421  -0.19555  -0.18284
  Beta  occ. eigenvalues --   -0.17223  -0.16623  -0.16256  -0.15906  -0.14693
  Beta  occ. eigenvalues --   -0.12733  -0.11512  -0.10283  -0.09509  -0.08879
  Beta  occ. eigenvalues --   -0.07711  -0.06183  -0.04535  -0.03447  -0.02557
  Beta  occ. eigenvalues --    0.01024   0.02357   0.03140   0.05412   0.06282
  Beta  occ. eigenvalues --    0.13663
  Beta virt. eigenvalues --    0.15039   0.16546   0.18219   0.18336   0.19265
  Beta virt. eigenvalues --    0.20501   0.21320   0.21855   0.22449   0.22959
  Beta virt. eigenvalues --    0.24017   0.24905   0.25748   0.26336   0.26419

 Mulliken charges and spin densities:
               1          2
     1  C   -0.039689   0.000000
     2  C   -0.246680   0.000000
     3  C   -0.347731  -0.000000
     4  C    0.765758  -0.000000
     5  C    0.188637  -0.000000
     6  C   -0.080694   0.000000
     7  C   -1.151752  -0.000000
     8  C    0.377051   0.000000
     9  C    0.681584   0.000000
    10  C   -1.272494   0.000000
    11  O   -0.571370   0.000000
    12  O   -0.544182  -0.000000
    13  N   -0.455772   0.000000
    14  H    0.120681  -0.000000
    15  H    0.065321   0.000000
    16  H    0.067564  -0.000000
    17  H    0.117670   0.000000
    18  H    0.251043   0.000000
    19  H    0.264447   0.000000
    20  N   -0.002404   0.000000
    21  C    0.169006   0.000000
    22  C   -0.551339   0.000000
    23  H    0.315289  -0.000000
    24  H    0.096184  -0.000000
    25  H    0.107940  -0.000000
    26  H    0.136537   0.000000
    27  O   -0.460604   0.000000
 Sum of Mulliken charges =  -2.00000  -0.00000

 Dipole moment (field-independent basis, Debye):
    X=            -16.0126    Y=            -26.2078    Z=              2.1602  Tot=             30.7883
 Quadrupole moment (field-independent basis, Debye-Ang):
   XX=           -194.5198   YY=           -226.9201   ZZ=           -114.9863
   XY=            -43.6641   XZ=              3.8002   YZ=              8.1368

  Exact polarizability: 252.411 136.162  79.218 -56.555  48.819 126.217
 Approx polarizability: 668.238 -22.372 429.146 -19.321  -0.355 199.525

                      1                      2                      3
                      A                      A                      A
 Frequencies --     53.8306                69.5469               107.9291
 Red. masses --      5.9986                 4.0157                 5.6609
 Frc consts  --      0.0102                 0.0114                 0.0389
 IR Inten    --      0.9349                 4.1659                 4.4790

                      4                      5                      6
                      A                      A                      A
 Frequencies --    120.6819               144.7505               146.4036
 Red. masses --      1.8727                 2.6321                 2.7161
 Frc consts  --      0.0161                 0.0325                 0.0343
 IR Inten    --      2.0967                 3.8513                15.2946

                      7                      8                      9
                      A                      A                      A
 Frequencies --    187.3106               212.2262               257.2063
 Red. masses --      6.9755                 5.2710                 6.2937
 Frc consts  --      0.1442                 0.1399                 0.2453
 IR Inten    --      3.7018                 4.3447                13.0187

                     10                     11                     12
                      A                      A                      A
 Frequencies --    281.5881               304.6280               338.0568
 Red. masses --      5.2895                 4.8711                 5.0270
 Frc consts  --      0.2471                 0.2663                 0.3385
 IR Inten    --     13.4450                 0.9517                 4.5481

                     13                     14                     15
                      A                      A                      A
 Frequencies --    353.1356               370.1516               391.6128
 Red. masses --      4.3788                 7.2054                 8.2352
 Frc consts  --      0.3217                 0.5817                 0.7441
 IR Inten    --      5.4359                 4.9994                63.8028

                     16                     17                     18
                      A                      A                      A
 Frequencies --    430.5576               460.5052               484.2162
 Red. masses --      7.4844                 3.0782                 5.8331
 Frc consts  --      0.8175                 0.3846                 0.8058
 IR Inten    --      0.9755                 4.8719                51.4108

                     19                     20                     21
                      A                      A                      A
 Frequencies --    517.5815               528.5769               546.1837
 Red. masses --      6.3328                 2.8482                 1.4783
 Frc consts  --      0.9995                 0.4688                 0.2598
 IR Inten    --      4.8848               184.9500                26.6481

                     22                     23                     24
                      A                      A                      A
 Frequencies --    586.8987               612.1014               656.7477
 Red. masses --      4.8426                 3.2430                 6.2764
 Frc consts  --      0.9828                 0.7159                 1.5950
 IR Inten    --     51.0863                87.2311                15.4408

                     25                     26                     27
                      A                      A                      A
 Frequencies --    677.2773               681.0536               695.4684
 Red. masses --      4.8729                 1.8994                 4.4604
 Frc consts  --      1.3170                 0.5191                 1.2711
 IR Inten    --      3.4152                82.8121                11.5027

                     28                     29                     30
                      A                      A                      A
 Frequencies --    730.9204               737.8916               753.6125
 Red. masses --      5.1612                 2.5989                 1.8580
 Frc consts  --      1.6246                 0.8337                 0.6217
 IR Inten    --      7.9226                 9.5716                12.6541

                     31                     32                     33
                      A                      A                      A
 Frequencies --    797.6095               831.3983               853.7754
 Red. masses --      3.6757                 1.6778                 1.4406
 Frc consts  --      1.3778                 0.6833                 0.6187
 IR Inten    --      5.0426               191.3913               214.2912

                     34                     35                     36
                      A                      A                      A
 Frequencies --    871.5977               920.4725               937.9054
 Red. masses --      3.7105                 2.8312                 1.2757
 Frc consts  --      1.6608                 1.4133                 0.6612
 IR Inten    --     24.2357                16.5336                 1.2626

                     37                     38                     39
                      A                      A                      A
 Frequencies --    945.6691               987.1986              1006.9614
 Red. masses --      1.3117                 3.2849                 2.2526
 Frc consts  --      0.6911                 1.8862                 1.3457
 IR Inten    --      3.2031                40.4741                50.9596

                     40                     41                     42
                      A                      A                      A
 Frequencies --   1028.9102              1048.9223              1072.1015
 Red. masses --      2.0089                 1.6802                 3.4064
 Frc consts  --      1.2530                 1.0892                 2.3068
 IR Inten    --    137.8608               119.4615                78.5379

                     43                     44                     45
                      A                      A                      A
 Frequencies --   1100.8783              1125.1921              1153.1176
 Red. masses --      1.9378                 1.3244                 3.5797
 Frc consts  --      1.3837                 0.9880                 2.8044
 IR Inten    --     22.9137                75.4533                64.4702

                     46                     47                     48
                      A                      A                      A
 Frequencies --   1190.3711              1213.4397              1253.9027
 Red. masses --      2.1386                 2.2940                 2.9505
 Frc consts  --      1.7854                 1.9901                 2.7332
 IR Inten    --     35.5326               187.5488                61.1244

                     49                     50                     51
                      A                      A                      A
 Frequencies --   1303.6860              1313.0885              1328.7962
 Red. masses --      1.9802                 2.3712                 5.3879
 Frc consts  --      1.9829                 2.4089                 5.6052
 IR Inten    --     39.1206               220.2073               264.7228

                     52                     53                     54
                      A                      A                      A
 Frequencies --   1376.2318              1402.8560              1422.4097
 Red. masses --      1.3105                 6.3063                 2.7559
 Frc consts  --      1.4624                 7.3123                 3.2852
 IR Inten    --     69.2073               973.1826                88.3839

                     55                     56                     57
                      A                      A                      A
 Frequencies --   1442.9091              1461.6222              1470.0548
 Red. masses --      5.2516                 2.7392                 1.1038
 Frc consts  --      6.4420                 3.4478                 1.4054
 IR Inten    --     11.0637                24.5168                41.8197

                     58                     59                     60
                      A                      A                      A
 Frequencies --   1480.1124              1497.3788              1514.8432
 Red. masses --      1.1145                 5.2478                 4.7428
 Frc consts  --      1.4385                 6.9325                 6.4124
 IR Inten    --     58.8504               109.4372                68.4768

                     61                     62                     63
                      A                      A                      A
 Frequencies --   1558.1417              1577.6687              1586.4543
 Red. masses --      1.9983                 4.7860                 2.1601
 Frc consts  --      2.8584                 7.0187                 3.2032
 IR Inten    --    238.6032                 7.7742               262.8112

                     64                     65                     66
                      A                      A                      A
 Frequencies --   1609.1163              1670.9454              3003.5814
 Red. masses --      2.0165                 5.3986                 1.0336
 Frc consts  --      3.0762                 8.8808                 5.4938
 IR Inten    --     79.4219               754.6724               312.9110

                     67                     68                     69
                      A                      A                      A
 Frequencies --   3083.4513              3084.5398              3091.3858
 Red. masses --      1.0823                 1.1024                 1.0995
 Frc consts  --      6.0627                 6.1795                 6.1906
 IR Inten    --     58.9813               143.0227              2441.1847

                     70                     71                     72
                      A                      A                      A
 Frequencies --   3108.4731              3149.6306              3153.7653
 Red. masses --      1.0898                 1.0905                 1.0911
 Frc consts  --      6.2041                 6.3738                 6.3942
 IR Inten    --     74.7480                50.5925                26.7463

                     73                     74                     75
                      A                      A                      A
 Frequencies --   3239.8589              3426.9572              3533.5746
 Red. masses --      1.0764                 1.0462                 1.0985
 Frc consts  --      6.6569                 7.2389                 8.0814
 IR Inten    --    131.9883               162.0909               494.6202

 - Thermochemistry -
 -------------------
 Temperature   298.150 Kelvin.  Pressure   1.00000 Atm.
 Atom     1 has atomic number  6 and mass  12.00000

 Molecular mass:   230.06914 amu.
 Principal axes and moments of inertia in atomic units:
                           1         2         3
     Eigenvalues --  1973.618015541.652937412.10530
           X            0.96930   0.23956   0.05538
           Y           -0.24073   0.97047   0.01541
           Z           -0.05005  -0.02827   0.99835
 This molecule is an asymmetric top.
 Rotational symmetry number  1.
 Warning -- assumption of classical behavior for rotation
           may cause significant error
 Rotational temperatures (Kelvin)      0.04389     0.01563     0.01169
 Rotational constants (GHZ):           0.91443     0.32567     0.24349
 Zero-point vibrational energy     524380.7 (Joules/Mol)
                                  125.33000 (Kcal/Mol)
 Warning -- explicit consideration of  23 degrees of freedom as
           vibrations may cause significant error
 Vibrational temperatures:     77.45   100.06   155.29   173.63   208.26
          (Kelvin)            210.64   269.50   305.35   370.06   405.14
                              438.29   486.39   508.08   532.57   563.44
                              619.48   662.56   696.68   744.68   760.50
                              785.84   844.42   880.68   944.91   974.45
                              979.88  1000.62  1051.63  1061.66  1084.28
                             1147.58  1196.20  1228.39  1254.03  1324.35
                             1349.44  1360.61  1420.36  1448.79  1480.37
                             1509.17  1542.51  1583.92  1618.90  1659.08
                             1712.68  1745.87  1804.09  1875.71  1889.24
                             1911.84  1980.09  2018.40  2046.53  2076.02
                             2102.95  2115.08  2129.55  2154.39  2179.52
                             2241.82  2269.91  2282.55  2315.16  2404.12
                             4321.48  4436.40  4437.96  4447.81  4472.40
                             4531.62  4537.56  4661.43  4930.63  5084.03

 Zero-point correction=                           0.199726 (Hartree/Particle)
 Thermal correction to Energy=                    0.214023
 Thermal correction to Enthalpy=                  0.214967
 Thermal correction to Gibbs Free Energy=         0.158850
 Sum of electronic and zero-point Energies=           -798.520050
 Sum of electronic and thermal Energies=              -798.505753
 Sum of electronic and thermal Enthalpies=            -798.504809
 Sum of electronic and thermal Free Energies=         -798.560926

                     E (Thermal)             CV                S
                      KCal/Mol        Cal/Mol-Kelvin    Cal/Mol-Kelvin
 Total                  134.302             56.291            118.109
 Electronic               0.000              0.000              0.000
 Translational            0.889              2.981             42.202
 Rotational               0.889              2.981             32.761
 Vibrational            132.524             50.329             43.147
 Vibration     1          0.596              1.976              4.671
 Vibration     2          0.598              1.969              4.166
 Vibration     3          0.606              1.943              3.306
 Vibration     4          0.609              1.932              3.089
 Vibration     5          0.616              1.908              2.740
 Vibration     6          0.617              1.907              2.718
 Vibration     7          0.632              1.857              2.254
 Vibration     8          0.643              1.822              2.024
 Vibration     9          0.667              1.751              1.681
 Vibration    10          0.681              1.708              1.524
 Vibration    11          0.696              1.665              1.391
 Vibration    12          0.718              1.599              1.221
 Vibration    13          0.729              1.569              1.152
 Vibration    14          0.742              1.534              1.079
 Vibration    15          0.759              1.488              0.994
 Vibration    16          0.792              1.404              0.857
 Vibration    17          0.818              1.338              0.765
 Vibration    18          0.840              1.285              0.699
 Vibration    19          0.873              1.211              0.616
 Vibration    20          0.884              1.187              0.590
 Vibration    21          0.901              1.148              0.552
 Vibration    22          0.944              1.060              0.473
 Vibration    23          0.971              1.006              0.429

                           ! Non-Optimized Parameters !
 Normal termination of Gaussian 16 at Mon Jan  8 18:47:29 2024.
