 Gaussian 16, Revision A.03,
 Gaussian 16:  ES64L-G16RevA.03 25-Dec-2016

 ----------------------------------------------------------------
 #P UB3LYP/6-311++G(d,p) SCRF=(PCM,Solvent=n,n-DiMethylFormamide)
 ----------------------------------------------------------------

 -------
 Reduced
 -------
 Symbolic Z-matrix:
 Charge = -2 Multiplicity = 1

                         Standard orientation:
 ---------------------------------------------------------------------
 Center     Atomic      Atomic             Coordinates (Angstroms)
 Number     Number       Type             X           Y           Z
 ---------------------------------------------------------------------
      1          6           0       -3.230032    0.852190    0.105302
      2          6           0       -4.193668   -0.135383    0.162569
      3          6           0       -3.807738   -1.506495    0.126646
      4          6           0       -1.843695    0.558082    0.012895
      5          6           0       -1.452922   -0.844462   -0.013759
      6          6           0       -2.466271   -1.831183    0.039954
      7          6           0       -0.884779    1.626987   -0.064723
      8          6           0        0.484028    1.226780   -0.164662
      9          6           0        0.858121   -0.131633   -0.115390
     10          6           0       -0.071428   -1.219355   -0.087125
     11          8           0       -1.201344    2.891538   -0.062128
     12          8           0        0.364920   -2.451743   -0.145116
     13          7           0        1.409611    2.268669   -0.375756
     14          1           0       -3.498862    1.904347    0.125402
     15          1           0       -5.247605    0.131764    0.232689
     16          1           0       -4.562708   -2.290134    0.169196
     17          1           0       -2.140283   -2.867163    0.013325
     18          1           0        0.921945    3.136968   -0.159263
     19          1           0        2.284453    2.139869    0.125284
     20          7           0        2.181264   -0.648862   -0.231537
     21          6           0        3.394606   -0.247391    0.173893
     22          6           0        4.504307   -1.273863   -0.072182
     23          1           0        2.041529   -1.659048   -0.399048
     24          1           0        4.132890   -2.235449   -0.436148
     25          1           0        5.054065   -1.426800    0.862320
     26          1           0        5.211058   -0.867255   -0.803982
     27          8           0        3.701952    0.841282    0.694840
 ---------------------------------------------------------------------

 SCF Done:  E(UB3LYP) =  -798.984104340     A.U. after   19 cycles

 The electronic state is 1-A.
 Alpha  occ. eigenvalues --  -19.08188 -19.03003 -19.01781 -14.32688 -14.27556
 Alpha  occ. eigenvalues --  -10.26541 -10.17617 -10.16766 -10.16605 -10.16417
 Alpha  occ. eigenvalues --  -10.16378 -10.14816 -10.14685 -10.14626 -10.14393
 Alpha  occ. eigenvalues --  -10.13706 -10.13666  -1.02418  -0.95250  -0.93365
 Alpha  occ. eigenvalues --   -0.90562  -0.86381  -0.82294  -0.76108  -0.73077
 Alpha  occ. eigenvalues --   -0.72242  -0.68961  -0.64646  -0.60928  -0.58386
 Alpha  occ. eigenvalues --   -0.55186  -0.53266  -0.50547  -0.48555  -0.47022
 Alpha  occ. eigenvalues --   -0.46762  -0.44121  -0.43747  -0.41750  -0.41204
 Alpha  occ. eigenvalues --   -0.40057  -0.39518  -0.39358  -0.38442  -0.37961
 Alpha  occ. eigenvalues --   -0.36437  -0.35940  -0.34629  -0.33377  -0.32480
 Alpha  occ. eigenvalues --   -0.32335  -0.30353  -0.28233  -0.27148  -0.25582
 Alpha  occ. eigenvalues --   -0.22910  -0.22309  -0.21547  -0.20058  -0.17839
 Alpha  occ. eigenvalues --   -0.11180
 Alpha virt. eigenvalues --   -0.00967  -0.00235   0.00623   0.00752   0.01494
 Alpha virt. eigenvalues --    0.02283   0.02937   0.03370   0.04224   0.04466
 Alpha virt. eigenvalues --    0.04727   0.05405   0.05749   0.06367   0.06751

  Beta  occ. eigenvalues --  -19.08188 -19.03003 -19.01781 -14.32688 -14.27556
  Beta  occ. eigenvalues --  -10.26541 -10.17617 -10.16766 -10.16605 -10.16417
  Beta  occ. eigenvalues --  -10.16378 -10.14816 -10.14685 -10.14626 -10.14393
  Beta  occ. eigenvalues --  -10.13706 -10.13666  -1.02418  -0.95250  -0.93365
  Beta  occ. eigenvalues --   -0.90562  -0.86381  -0.82294  -0.76108  -0.73077
  Beta  occ. eigenvalues --   -0.72242  -0.68961  -0.64646  -0.60928  -0.58386
  Beta  occ. eigenvalues --   -0.55186  -0.53266  -0.50547  -0.48555  -0.47022
  Beta  occ. eigenvalues --   -0.46762  -0.44121  -0.43747  -0.41750  -0.41204
  Beta  occ. eigenvalues --   -0.40057  -0.39518  -0.39358  -0.38442  -0.37961
  Beta  occ. eigenvalues --   -0.36437  -0.35940  -0.34629  -0.33377  -0.32480
  Beta  occ. eigenvalues --   -0.32335  -0.30353  -0.28233  -0.27148  -0.25582
  Beta  occ. eigenvalues --   -0.22910  -0.22309  -0.21547  -0.20058  -0.17839
  Beta  occ. eigenvalues --   -0.11180
  Beta virt. eigenvalues --   -0.00967  -0.00235   0.00623   0.00752   0.01494
  Beta virt. eigenvalues --    0.02283   0.02937   0.03370   0.04224   0.04466
  Beta virt. eigenvalues --    0.04727   0.05405   0.05749   0.06367   0.06751

 Mulliken charges and spin densities:
               1          2
     1  C    0.016498  -0.000000
     2  C   -0.361809  -0.000000
     3  C   -0.447304  -0.000000
     4  C    0.477626  -0.000000
     5  C   -0.047544   0.000000
     6  C   -0.039587  -0.000000
     7  C   -0.754215   0.000000
     8  C    0.344666  -0.000000
     9  C    0.511494  -0.000000
    10  C   -0.934187   0.000000
    11  O   -0.709422  -0.000000
    12  O   -0.657183  -0.000000
    13  N   -0.510035  -0.000000
    14  H    0.142063   0.000000
    15  H    0.153280  -0.000000
    16  H    0.155000  -0.000000
    17  H    0.143739   0.000000
    18  H    0.277279  -0.000000
    19  H    0.277074  -0.000000
    20  N   -0.037623  -0.000000
    21  C    0.260407  -0.000000
    22  C   -0.570786   0.000000
    23  H    0.345904  -0.000000
    24  H    0.131936  -0.000000
    25  H    0.168444  -0.000000
    26  H    0.175791   0.000000
    27  O   -0.511507  -0.000000
 Sum of Mulliken charges =  -2.00000  -0.00000

 Dipole moment (field-independent basis, Debye):
    X=              3.3703    Y=             -5.5001    Z=              0.0919  Tot=              6.4512
 Quadrupole moment (field-independent basis, Debye-Ang):
   XX=           -140.6819   YY=           -157.0326   ZZ=           -113.6148
   XY=             -0.8342   XZ=             -4.2354   YZ=              1.2871

 Normal termination of Gaussian 16 at Sun Jan 21 08:59:13 2024.
