 Q-Chem 5.4, Q-Chem, Inc., Pleasanton, CA (2021)
 Q-Chem 5.4.0 for Intel X86 EM64T Linux

User input:
--------------------------------------------------------------
$molecule
-2 1
N                  3.0912990000     -1.2629260000      1.3279160000
C                  2.6444560000     -0.5391410000      0.2008040000
C                  3.5717450000     -0.0839310000     -0.7145480000
C                  3.1624520000      0.7073670000     -1.8217580000
C                  1.8514560000      1.0691950000     -1.9905910000
O                  1.5133760000      1.8596810000     -3.0895760000
C                  0.8281650000      0.6368640000     -1.0708140000
C                 -0.5288320000      0.9939520000     -1.2026850000
O                 -0.9248330000      1.8285070000     -2.2009210000
C                 -1.5101110000      0.4926340000     -0.2991660000
C                 -2.9071980000      0.9196180000     -0.4714140000
O                 -3.2511140000      1.7466950000     -1.4280710000
C                 -3.8451390000      0.3980320000      0.4262860000
C                 -3.4734040000     -0.5064420000      1.4396440000
C                 -2.1681740000     -0.9106950000      1.6383420000
N                 -1.8933260000     -1.8216910000      2.7194770000
C                 -1.1355410000     -0.4174700000      0.7582210000
C                  0.2546560000     -0.7994920000      0.9251590000
O                  0.5984430000     -1.6524130000      1.8619220000
C                  1.2364640000     -0.2335980000      0.0381630000
H                  3.8403540000     -1.9027450000      1.0968930000
H                  2.2720150000     -1.7058000000      1.7779050000
H                  4.6267120000     -0.2987290000     -0.5592240000
H                  3.9040960000      1.0416000000     -2.5490110000
H                  2.3522640000      2.1111640000     -3.4890480000
H                 -1.9398020000      1.9295890000     -2.0494910000
H                 -4.8825610000      0.6991740000      0.3020300000
H                 -4.2382940000     -0.9176530000      2.0988340000
H                 -0.8773840000     -1.9786380000      2.7233380000
H                 -2.1722390000     -1.4027080000      3.6013830000
$end
$rem
MAX_SCF_CYCLES=200
BASIS  =  6-311++G(d,p)
GUI  =  2
JOB_TYPE  =  SP
METHOD  =  B3LYP
SOLVENT_METHOD = COSMO
$end
$solvent
dielectric 37.219
opticaldielectric 1.43
$end

--------------------------------------------------------------

             Standard Nuclear Orientation (Angstroms)
    I     Atom           X                Y                Z
 ----------------------------------------------------------------
    1      N      -2.4733194717    -2.8720804694    -0.2296266243
    2      C      -2.4607203194    -1.4683079092    -0.0773810532
    3      C      -3.6607122264    -0.7878704251    -0.0329449078
    4      C      -3.6817561721     0.6307591036     0.0485086460
    5      C      -2.5213395487     1.3598457888     0.0478295880
    6      O      -2.6069858825     2.7509250934     0.1148915491
    7      C      -1.2307520247     0.7181635854    -0.0036688285
    8      C      -0.0147102831     1.4305109593    -0.0157667625
    9      O      -0.0163159803     2.7904406334    -0.0348102711
   10      C       1.2356059013     0.7469641925    -0.0088347554
   11      C       2.4719016160     1.5431759168    -0.0470000704
   12      O       2.4348992571     2.8524234634    -0.0920431800
   13      C       3.6807641460     0.8389807628    -0.0267236456
   14      C       3.7148402646    -0.5671495380     0.0424931030
   15      C       2.5722879575    -1.3422555390     0.0601466826
   16      N       2.7200627051    -2.7740841810     0.1084932139
   17      C       1.2814838131    -0.6960576848     0.0385184110
   18      C       0.0469773436    -1.4592143308     0.0450386626
   19      O       0.0794657655    -2.7692343856     0.1223730684
   20      C      -1.2028846174    -0.7491773860    -0.0230604379
   21      H      -3.2121385275    -3.3066037856     0.3081086848
   22      H      -1.5252689785    -3.2316178264    -0.0252081714
   23      H      -4.5934033974    -1.3430027452    -0.1045995211
   24      H      -4.6379511193     1.1533988382     0.1049300759
   25      H      -3.5445226267     2.9519087356     0.0301266777
   26      H       0.9844722992     3.0377093681    -0.0591347275
   27      H       4.6010269665     1.4179185498    -0.0445518229
   28      H       4.6763719424    -1.0788274421     0.0907135316
   29      H       1.7718475873    -3.1705068903     0.0856340479
   30      H       3.2379428397    -3.0938676640    -0.7043020241
 ----------------------------------------------------------------

   11    -950.1935388622      6.58e-06  Convergence criterion met
 Total energy in the final basis set =     -950.1935388622
    6    -950.4657599938      2.98e-06  Convergence criterion met
 Total energy in the final basis set =     -950.4657599938

                    Orbital Energies (a.u.)
 --------------------------------------------------------------

 Alpha MOs
 -- Occupied --
-19.1318 -19.0921 -19.0525 -19.0442 -14.2786 -14.2727 -10.2117 -10.2012
-10.1992 -10.1965 -10.1905 -10.1745 -10.1624 -10.1563 -10.1539 -10.1535
-10.1511 -10.1420 -10.1390 -10.1302  -1.0400  -1.0166  -0.9653  -0.9591
 -0.8852  -0.8714  -0.8239  -0.7969  -0.7595  -0.7190  -0.7116  -0.6864
 -0.6486  -0.6161  -0.6111  -0.5616  -0.5500  -0.5357  -0.5104  -0.4899
 -0.4840  -0.4712  -0.4657  -0.4467  -0.4373  -0.4266  -0.4236  -0.4102
 -0.4060  -0.3952  -0.3885  -0.3803  -0.3711  -0.3649  -0.3596  -0.3549
 -0.3491  -0.3425  -0.3362  -0.3293  -0.3173  -0.3051  -0.2787  -0.2583
 -0.2432  -0.2288  -0.2248  -0.2140  -0.1961  -0.1728  -0.1201

          Ground-State Mulliken Net Atomic Charges

     Atom                 Charge (a.u.)
  ----------------------------------------
      1 N                    -0.502919
      2 C                    -0.115053
      3 C                    -0.405006
      4 C                    -0.141360
      5 C                    -0.353985
      6 O                    -0.349163
      7 C                     0.371921
      8 C                    -0.211436
      9 O                    -0.579688
     10 C                     0.408118
     11 C                    -0.479024
     12 O                    -0.712102
     13 C                    -0.318867
     14 C                    -0.465520
     15 C                    -0.219769
     16 N                    -0.543455
     17 C                     0.557831
     18 C                    -0.418734
     19 O                    -0.618067
     20 C                     0.427617
     21 H                     0.264611
     22 H                     0.324919
     23 H                     0.177963
     24 H                     0.170849
     25 H                     0.308439
     26 H                     0.501492
     27 H                     0.165094
     28 H                     0.173910
     29 H                     0.319481
     30 H                     0.261905
  ----------------------------------------
  Sum of atomic charges =    -2.000000

                    Cartesian Multipole Moments
 -----------------------------------------------------------------
    Charge (ESU x 10^10)
                -9.6064
    Dipole Moment (Debye)
         X      -8.9896      Y      -3.3974      Z      -0.4686
       Tot       9.6216
    Quadrupole Moments (Debye-Ang)
        XX    -151.0949     XY     -16.5396     YY    -182.3944
        XZ      -8.6287     YZ       1.8343     ZZ    -129.7694

 Total job time:  97.66s(wall), 736.36s(cpu)
        *  Thank you very much for using Q-Chem.  Have a nice day.  *
