 Q-Chem 5.4, Q-Chem, Inc., Pleasanton, CA (2021)
 Q-Chem 5.4.0 for Intel X86 EM64T Linux

User input:
--------------------------------------------------------------
$molecule
0 1
C                 -1.7480460000     -3.7197970000      1.2984710000
C                 -0.3208420000     -3.9766060000      1.0488980000
C                  0.4573230000     -2.9906530000      0.5900680000
C                 -0.0783770000     -1.6202200000      0.3183040000
C                 -1.5079370000     -1.3418070000      0.5621360000
C                 -2.2826210000     -2.3500090000      1.0269190000
O                 -2.5201460000     -4.5719270000      1.7176000000
O                  0.6813050000     -0.7585130000     -0.1009210000
O                 -3.5933950000     -2.2105100000      1.2841470000
C                 -2.0207290000      0.0385370000      0.2827110000
H                  0.0391260000     -4.9779920000      1.2544530000
H                  1.5144140000     -3.1224850000      0.3884950000
H                 -1.4862750000      0.7756720000      0.8885110000
H                 -3.0864860000      0.1092210000      0.4942640000
H                 -1.8440470000      0.3084610000     -0.7621020000
H                 -3.9062990000     -3.0771430000      1.6031750000
$end

$rem
BASIS  =  6-311++G(d,p)
GUI  =  2
JOB_TYPE  =  SP
METHOD  =  B3LYP
SCF_CONVERGENCE  = 8
SOLVENT_METHOD = sm12
$end

$smx
solvent dimethylformamide
charges CM5
$end

--------------------------------------------------------------

             Standard Nuclear Orientation (Angstroms)
    I     Atom           X                Y                Z
 ----------------------------------------------------------------
    1      C      -1.7480460000    -3.7197970000     1.2984710000
    2      C      -0.3208420000    -3.9766060000     1.0488980000
    3      C       0.4573230000    -2.9906530000     0.5900680000
    4      C      -0.0783770000    -1.6202200000     0.3183040000
    5      C      -1.5079370000    -1.3418070000     0.5621360000
    6      C      -2.2826210000    -2.3500090000     1.0269190000
    7      O      -2.5201460000    -4.5719270000     1.7176000000
    8      O       0.6813050000    -0.7585130000    -0.1009210000
    9      O      -3.5933950000    -2.2105100000     1.2841470000
   10      C      -2.0207290000     0.0385370000     0.2827110000
   11      H       0.0391260000    -4.9779920000     1.2544530000
   12      H       1.5144140000    -3.1224850000     0.3884950000
   13      H      -1.4862750000     0.7756720000     0.8885110000
   14      H      -3.0864860000     0.1092210000     0.4942640000
   15      H      -1.8440470000     0.3084610000    -0.7621020000
   16      H      -3.9062990000    -3.0771430000     1.6031750000
 ----------------------------------------------------------------

   16    -496.1513614607      1.82e-09  Convergence criterion met
 Total energy in the final basis set =     -496.1672825326

                    Orbital Energies (a.u.)
 --------------------------------------------------------------

 Alpha MOs
 -- Occupied --
-19.1800 -19.1548 -19.1338 -10.2955 -10.2810 -10.2682 -10.2145 -10.2117
-10.2063 -10.1734  -1.1104  -1.0710  -1.0644  -0.8649  -0.8057  -0.7258
 -0.6951  -0.6371  -0.6163  -0.5569  -0.5313  -0.5024  -0.4760  -0.4749
 -0.4439  -0.4383  -0.4334  -0.4277  -0.4100  -0.3952  -0.3938  -0.3848
 -0.3131  -0.3046  -0.2809  -0.2618

          Ground-State Mulliken Net Atomic Charges

     Atom                 Charge (a.u.)
  ----------------------------------------
      1 C                    -0.129024
      2 C                     0.679763
      3 C                     0.841734
      4 C                    -1.712975
      5 C                     1.866057
      6 C                    -1.969959
      7 O                    -0.333252
      8 O                    -0.320671
      9 O                    -0.230777
     10 C                    -0.193155
     11 H                     0.358438
     12 H                     0.320789
     13 H                     0.178956
     14 H                     0.180802
     15 H                     0.177580
     16 H                     0.285693
  ----------------------------------------
  Sum of atomic charges =     0.000000

                    Cartesian Multipole Moments
 -----------------------------------------------------------------
    Charge (ESU x 10^10)
                -0.0000
    Dipole Moment (Debye)
         X       0.1534      Y      -1.4612      Z       0.3866
       Tot       1.5192
    Quadrupole Moments (Debye-Ang)
        XX     -60.1544     XY      -7.3941     YY     -54.5024
        XZ       2.6801     YZ       1.0370     ZZ     -58.5195

 Total job time:  142.00s(wall), 1081.48s(cpu)
        *  Thank you very much for using Q-Chem.  Have a nice day.  *
