 Gaussian 16, Revision A.03,
 Gaussian 16:  ES64L-G16RevA.03 25-Dec-2016

 --------------------------------------
 #P UB3LYP/6-311++G(d,p) nosym opt freq
 --------------------------------------

 --------
 Oxidized
 --------
 Symbolic Z-matrix:
 Charge =  0 Multiplicity = 1

 SCF Done:  E(UB3LYP) =  -496.151733568     A.U. after   16 cycles
 SCF Done:  E(UB3LYP) =  -496.151811077     A.U. after   12 cycles
 SCF Done:  E(UB3LYP) =  -496.151794014     A.U. after   11 cycles
 SCF Done:  E(UB3LYP) =  -496.151813373     A.U. after   11 cycles
 SCF Done:  E(UB3LYP) =  -496.151815566     A.U. after   10 cycles
 SCF Done:  E(UB3LYP) =  -496.151817435     A.U. after   10 cycles
 SCF Done:  E(UB3LYP) =  -496.151823314     A.U. after   11 cycles
 SCF Done:  E(UB3LYP) =  -496.151838431     A.U. after   12 cycles
 SCF Done:  E(UB3LYP) =  -496.151836993     A.U. after   13 cycles
 SCF Done:  E(UB3LYP) =  -496.151864289     A.U. after   12 cycles
 SCF Done:  E(UB3LYP) =  -496.151996897     A.U. after   13 cycles
 SCF Done:  E(UB3LYP) =  -496.152029691     A.U. after   12 cycles
 SCF Done:  E(UB3LYP) =  -496.151986079     A.U. after   12 cycles
 SCF Done:  E(UB3LYP) =  -496.152033932     A.U. after   12 cycles
 SCF Done:  E(UB3LYP) =  -496.152035863     A.U. after   10 cycles
 SCF Done:  E(UB3LYP) =  -496.152037090     A.U. after   10 cycles
 SCF Done:  E(UB3LYP) =  -496.152037313     A.U. after    9 cycles
 SCF Done:  E(UB3LYP) =  -496.152037399     A.U. after    9 cycles
 SCF Done:  E(UB3LYP) =  -496.152037402     A.U. after    8 cycles
 Optimization completed.
    -- Stationary point found.
 Normal termination of Gaussian 16 at Mon Jan 22 22:30:42 2024.

 ----------------------------------------------------------------------
 #P Geom=AllCheck Guess=TCheck SCRF=Check GenChk UB3LYP/6-311++G(d,p) F
 req
 ----------------------------------------------------------------------

 Structure from the checkpoint file:  "108.chk"
 --------
 Oxidized
 --------
 Charge =  0 Multiplicity = 1

                          Input orientation:
 ---------------------------------------------------------------------
 Center     Atomic      Atomic             Coordinates (Angstroms)
 Number     Number       Type             X           Y           Z
 ---------------------------------------------------------------------
      1          6           0       -1.748046   -3.719797    1.298471
      2          6           0       -0.320842   -3.976606    1.048898
      3          6           0        0.457323   -2.990653    0.590068
      4          6           0       -0.078377   -1.620220    0.318304
      5          6           0       -1.507937   -1.341807    0.562136
      6          6           0       -2.282621   -2.350009    1.026919
      7          8           0       -2.520146   -4.571927    1.717600
      8          8           0        0.681305   -0.758513   -0.100921
      9          8           0       -3.593395   -2.210510    1.284147
     10          6           0       -2.020729    0.038537    0.282711
     11          1           0        0.039126   -4.977992    1.254453
     12          1           0        1.514414   -3.122485    0.388495
     13          1           0       -1.486275    0.775672    0.888511
     14          1           0       -3.086486    0.109221    0.494264
     15          1           0       -1.844047    0.308461   -0.762102
     16          1           0       -3.906299   -3.077143    1.603175
 ---------------------------------------------------------------------

 SCF Done:  E(UB3LYP) =  -496.152037402     A.U. after    1 cycles

 Alpha  occ. eigenvalues --  -19.18446 -19.16140 -19.13878 -10.30267 -10.28629
 Alpha  occ. eigenvalues --  -10.27353 -10.22684 -10.22436 -10.21220 -10.17960
 Alpha  occ. eigenvalues --   -1.11574  -1.07679  -1.06884  -0.87326  -0.81401
 Alpha  occ. eigenvalues --   -0.73274  -0.70356  -0.64372  -0.62410  -0.56441
 Alpha  occ. eigenvalues --   -0.53714  -0.51353  -0.48443  -0.48076  -0.44986
 Alpha  occ. eigenvalues --   -0.44884  -0.43863  -0.43379  -0.41544  -0.40043
 Alpha  occ. eigenvalues --   -0.40000  -0.39116  -0.32329  -0.31062  -0.28488
 Alpha  occ. eigenvalues --   -0.26726
 Alpha virt. eigenvalues --   -0.14145  -0.02896  -0.01297  -0.00669  -0.00284
 Alpha virt. eigenvalues --    0.00936   0.02693   0.03243   0.03316   0.05000
 Alpha virt. eigenvalues --    0.05973   0.06660   0.07378   0.07681   0.08700

  Beta  occ. eigenvalues --  -19.18446 -19.16140 -19.13878 -10.30267 -10.28629
  Beta  occ. eigenvalues --  -10.27353 -10.22684 -10.22436 -10.21220 -10.17960
  Beta  occ. eigenvalues --   -1.11574  -1.07679  -1.06884  -0.87326  -0.81401
  Beta  occ. eigenvalues --   -0.73274  -0.70356  -0.64372  -0.62410  -0.56441
  Beta  occ. eigenvalues --   -0.53714  -0.51353  -0.48443  -0.48076  -0.44986
  Beta  occ. eigenvalues --   -0.44884  -0.43863  -0.43379  -0.41544  -0.40043
  Beta  occ. eigenvalues --   -0.40000  -0.39116  -0.32329  -0.31062  -0.28488
  Beta  occ. eigenvalues --   -0.26726
  Beta virt. eigenvalues --   -0.14145  -0.02896  -0.01297  -0.00669  -0.00284
  Beta virt. eigenvalues --    0.00936   0.02693   0.03243   0.03316   0.05000
  Beta virt. eigenvalues --    0.05973   0.06660   0.07378   0.07681   0.08700

 Mulliken charges and spin densities:
               1          2
     1  C   -0.116102  -0.000000
     2  C    0.103865   0.000000
     3  C    0.323121  -0.000000
     4  C   -1.084384   0.000000
     5  C    2.169578  -0.000000
     6  C   -1.768391  -0.000000
     7  O   -0.279296  -0.000000
     8  O   -0.214748  -0.000000
     9  O   -0.208391  -0.000000
    10  C   -0.204744  -0.000000
    11  H    0.223528  -0.000000
    12  H    0.224271   0.000000
    13  H    0.177836  -0.000000
    14  H    0.190521   0.000000
    15  H    0.177540  -0.000000
    16  H    0.285796  -0.000000
 Sum of Mulliken charges =  -0.00000   0.00000

 Dipole moment (field-independent basis, Debye):
    X=              0.0195    Y=             -1.0970    Z=              0.3109  Tot=              1.1404
 Quadrupole moment (field-independent basis, Debye-Ang):
   XX=            -59.8356   YY=            -56.3230   ZZ=            -58.5159
   XY=             -6.6551   XZ=              2.4273   YZ=              1.3407

  Exact polarizability: 105.789  18.387 113.459 -17.628 -21.980  61.543
 Approx polarizability: 186.086  72.906 196.325 -45.461 -50.498 102.451

                      1                      2                      3
                      A                      A                      A
 Frequencies --     42.1382                95.2977               115.6850
 Red. masses --      1.0364                 7.6236                 5.5008
 Frc consts  --      0.0011                 0.0408                 0.0434
 IR Inten    --      0.0578                 9.4323                 0.0485

                      4                      5                      6
                      A                      A                      A
 Frequencies --    248.1561               268.4606               279.2270
 Red. masses --      4.0765                 4.5328                 3.0664
 Frc consts  --      0.1479                 0.1925                 0.1409
 IR Inten    --      0.3399                 0.0102                 2.6327

                      7                      8                      9
                      A                      A                      A
 Frequencies --    332.6154               401.5641               449.9658
 Red. masses --      5.6604                10.3989                 7.5661
 Frc consts  --      0.3690                 0.9880                 0.9026
 IR Inten    --      7.7642                22.8610                 8.7526

                     10                     11                     12
                      A                      A                      A
 Frequencies --    471.2079               512.7473               604.1190
 Red. masses --     10.7472                 4.2936                 1.6749
 Frc consts  --      1.4060                 0.6651                 0.3601
 IR Inten    --      0.7675                 3.3589                64.4684

                     13                     14                     15
                      A                      A                      A
 Frequencies --    605.6637               638.0173               641.7226
 Red. masses --      4.0866                 1.3484                 6.3272
 Frc consts  --      0.8832                 0.3234                 1.5352
 IR Inten    --      2.8502                40.9592                 6.8554

                     16                     17                     18
                      A                      A                      A
 Frequencies --    747.3144               766.2685               849.3632
 Red. masses --      9.6158                 7.2799                 2.0492
 Frc consts  --      3.1640                 2.5185                 0.8710
 IR Inten    --      0.0384                 4.8597                51.8065

                     19                     20                     21
                      A                      A                      A
 Frequencies --    876.5689               996.2355              1019.3440
 Red. masses --      2.4553                 1.2269                 3.0133
 Frc consts  --      1.1115                 0.7175                 1.8448
 IR Inten    --     13.5703                 0.0148                11.3819

                     22                     23                     24
                      A                      A                      A
 Frequencies --   1048.7394              1094.4901              1151.6406
 Red. masses --      1.4679                 1.6873                 1.7167
 Frc consts  --      0.9512                 1.1909                 1.3415
 IR Inten    --      0.0873                76.8149                 4.8324

                     25                     26                     27
                      A                      A                      A
 Frequencies --   1221.3233              1288.3161              1337.2892
 Red. masses --      3.4296                 1.9728                 5.1060
 Frc consts  --      3.0141                 1.9292                 5.3800
 IR Inten    --    124.8069                52.4153                78.4335

                     28                     29                     30
                      A                      A                      A
 Frequencies --   1376.5206              1396.5815              1420.3968
 Red. masses --      1.6130                 2.0424                 1.5138
 Frc consts  --      1.8008                 2.3471                 1.7994
 IR Inten    --    120.7543               179.7787               103.1022

                     31                     32                     33
                      A                      A                      A
 Frequencies --   1478.4328              1482.3049              1651.8150
 Red. masses --      1.0428                 1.0638                 8.0253
 Frc consts  --      1.3429                 1.3772                12.9014
 IR Inten    --      9.8677                 9.0937                38.8931

                     34                     35                     36
                      A                      A                      A
 Frequencies --   1703.0128              1712.1188              1718.0201
 Red. masses --     10.9044                 7.9255                 9.2932
 Frc consts  --     18.6333                13.6882                16.1611
 IR Inten    --    306.7909               132.4303               122.9278

                     37                     38                     39
                      A                      A                      A
 Frequencies --   3037.8639              3083.9924              3139.3834
 Red. masses --      1.0378                 1.0993                 1.1004
 Frc consts  --      5.6431                 6.1603                 6.3896
 IR Inten    --      9.2037                 8.7804                 4.2356

                     40                     41                     42
                      A                      A                      A
 Frequencies --   3181.4201              3199.2622              3636.6345
 Red. masses --      1.0873                 1.0999                 1.0645
 Frc consts  --      6.4839                 6.6328                 8.2944
 IR Inten    --      0.8307                 1.6490               136.2559

 - Thermochemistry -
 -------------------
 Temperature   298.150 Kelvin.  Pressure   1.00000 Atm.
 Atom     1 has atomic number  6 and mass  12.00000

 Molecular mass:   138.03169 amu.
 Principal axes and moments of inertia in atomic units:
                           1         2         3
     Eigenvalues --   882.669871338.074472209.69246
           X            0.58252   0.78446   0.21280
           Y            0.73680  -0.62017   0.26929
           Z           -0.34322   0.00008   0.93926
 This molecule is an asymmetric top.
 Rotational symmetry number  1.
 Warning -- assumption of classical behavior for rotation
           may cause significant error
 Rotational temperatures (Kelvin)      0.09813     0.06473     0.03920
 Rotational constants (GHZ):           2.04464     1.34876     0.81674
 Zero-point vibrational energy     306969.2 (Joules/Mol)
                                   73.36740 (Kcal/Mol)
 Warning -- explicit consideration of  13 degrees of freedom as
           vibrations may cause significant error
 Vibrational temperatures:     60.63   137.11   166.44   357.04   386.25
          (Kelvin)            401.75   478.56   577.76   647.40   677.96
                              737.73   869.19   871.42   917.96   923.30
                             1075.22  1102.49  1222.04  1261.19  1433.36
                             1466.61  1508.90  1574.73  1656.95  1757.21
                             1853.60  1924.06  1980.51  2009.37  2043.63
                             2127.13  2132.71  2376.59  2450.26  2463.36
                             2471.85  4370.81  4437.18  4516.87  4577.35
                             4603.02  5232.31

 Zero-point correction=                           0.116918 (Hartree/Particle)
 Thermal correction to Energy=                    0.125989
 Thermal correction to Enthalpy=                  0.126934
 Thermal correction to Gibbs Free Energy=         0.082184
 Sum of electronic and zero-point Energies=           -496.035119
 Sum of electronic and thermal Energies=              -496.026048
 Sum of electronic and thermal Enthalpies=            -496.025104
 Sum of electronic and thermal Free Energies=         -496.069853

                     E (Thermal)             CV                S
                      KCal/Mol        Cal/Mol-Kelvin    Cal/Mol-Kelvin
 Total                   79.060             33.203             94.183
 Electronic               0.000              0.000              0.000
 Translational            0.889              2.981             40.679
 Rotational               0.889              2.981             29.347
 Vibrational             77.282             27.242             24.158
 Vibration     1          0.595              1.980              5.156
 Vibration     2          0.603              1.953              3.548
 Vibration     3          0.608              1.936              3.171
 Vibration     4          0.662              1.766              1.744
 Vibration     5          0.673              1.731              1.606
 Vibration     6          0.680              1.712              1.538
 Vibration     7          0.715              1.610              1.247
 Vibration     8          0.767              1.467              0.957
 Vibration     9          0.809              1.361              0.796
 Vibration    10          0.828              1.314              0.734
 Vibration    11          0.868              1.222              0.627
 Vibration    12          0.963              1.023              0.443
 Vibration    13          0.964              1.020              0.440

 Optimization completed.
    -- Stationary point found.
 Normal termination of Gaussian 16 at Mon Jan 22 22:36:53 2024.
