 Gaussian 16, Revision A.03,
 Gaussian 16:  ES64L-G16RevA.03 25-Dec-2016

 ----------------------------------------------------------------
 #P UB3LYP/6-311++G(d,p) SCRF=(PCM,Solvent=n,n-DiMethylFormamide)
 ----------------------------------------------------------------

 -------
 Reduced
 -------
 Symbolic Z-matrix:
 Charge = -2 Multiplicity = 1

                         Standard orientation:
 ---------------------------------------------------------------------
 Center     Atomic      Atomic             Coordinates (Angstroms)
 Number     Number       Type             X           Y           Z
 ---------------------------------------------------------------------
      1          6           0       12.592542    0.819586    1.420326
      2          6           0       13.165159    2.013906    1.024734
      3          6           0       12.536431    2.806907    0.041954
      4          6           0       11.377817    0.373999    0.853161
      5          6           0       10.740295    1.174910   -0.140651
      6          6           0       11.344223    2.385157   -0.524501
      7          6           0       10.781081   -0.875606    1.267626
      8          6           0        9.539347   -1.242136    0.630182
      9          6           0        8.898335   -0.496265   -0.338591
     10          6           0        9.468747    0.761282   -0.769524
     11          8           0       11.265795   -1.669734    2.143870
     12          8           0        8.915841    1.478526   -1.646232
     13          8           0        9.034101   -2.432212    1.071845
     14          6           0        7.604865   -0.957328   -0.960244
     15          6           0        6.349597   -0.401053   -0.259099
     16          6           0        5.043614   -0.858877   -0.918962
     17          6           0        3.778018   -0.326057   -0.235754
     18          6           0        2.476375   -0.791802   -0.900216
     19          6           0        1.204548   -0.266808   -0.222521
     20          6           0       -0.089899   -0.739203   -0.895828
     21          6           0       -1.367136   -0.221782   -0.222322
     22          6           0       -2.651795   -0.706118   -0.909251
     23          6           0       -3.921068   -0.189019   -0.230388
     24         16           0       -5.419085   -0.805573   -1.099886
     25          6           0       -6.729161   -0.034628   -0.063388
     26          6           0       -8.119127   -0.401873   -0.585202
     27          6           0       -9.246635    0.219864    0.251253
     28          6           0      -10.646998   -0.140484   -0.260283
     29          6           0      -11.780840    0.475149    0.568741
     30          6           0      -13.181157    0.114598    0.057931
     31          6           0      -14.314960    0.730002    0.887497
     32          6           0      -15.715677    0.370131    0.378192
     33          6           0      -16.848463    0.986280    1.209184
     34          6           0      -18.247014    0.626472    0.700425
     35          1           0       13.056624    0.192987    2.173919
     36          1           0       14.099557    2.343181    1.470984
     37          1           0       12.986113    3.745710   -0.268314
     38          1           0       10.837910    2.974461   -1.280923
     39          1           0        9.711887   -2.703046    1.730818
     40          1           0        7.563087   -2.051620   -0.947314
     41          1           0        7.592067   -0.624900   -2.003297
     42          1           0        6.402978    0.692930   -0.267355
     43          1           0        6.358502   -0.713923    0.791915
     44          1           0        5.009797   -1.957162   -0.929911
     45          1           0        5.043953   -0.544164   -1.971196
     46          1           0        3.807704    0.771337   -0.227145
     47          1           0        3.777699   -0.637429    0.817262
     48          1           0        2.450731   -1.889695   -0.911304
     49          1           0        2.478127   -0.479417   -1.952990
     50          1           0        1.227131    0.830805   -0.211653
     51          1           0        1.199926   -0.579825    0.829880
     52          1           0       -0.109526   -1.836868   -0.908720
     53          1           0       -0.084758   -0.424454   -1.947604
     54          1           0       -1.352335    0.875681   -0.211167
     55          1           0       -1.376009   -0.537487    0.828909
     56          1           0       -2.668491   -1.802061   -0.918399
     57          1           0       -2.646919   -0.385968   -1.957548
     58          1           0       -3.940180    0.905185   -0.237384
     59          1           0       -3.961211   -0.523356    0.810922
     60          1           0       -6.589959    1.050899   -0.078747
     61          1           0       -6.604495   -0.381077    0.967362
     62          1           0       -8.227758   -1.492564   -0.589453
     63          1           0       -8.213902   -0.072662   -1.626382
     64          1           0       -9.133441    1.311697    0.259755
     65          1           0       -9.146891   -0.105653    1.294838
     66          1           0      -10.758247   -1.232662   -0.269140
     67          1           0      -10.745157    0.185051   -1.304168
     68          1           0      -11.669439    1.567421    0.578422
     69          1           0      -11.682079    0.150609    1.612998
     70          1           0      -13.292722   -0.977747    0.048085
     71          1           0      -13.280385    0.439295   -0.986332
     72          1           0      -14.203205    1.822260    0.897383
     73          1           0      -14.215289    0.405489    1.931701
     74          1           0      -15.829610   -0.721722    0.368259
     75          1           0      -15.817663    0.694622   -0.665612
     76          1           0      -16.734787    2.077762    1.219749
     77          1           0      -16.746534    0.662714    2.252866
     78          1           0      -18.398815    0.971666   -0.328713
     79          1           0      -19.030278    1.082199    1.315867
     80          1           0      -18.410618   -0.457210    0.714319
 ---------------------------------------------------------------------

 SCF Done:  E(UB3LYP) =  -1795.46601564     A.U. after   22 cycles

 The electronic state is 1-A.
 Alpha  occ. eigenvalues --  -88.83583 -19.10939 -19.01944 -19.01239 -10.19450
 Alpha  occ. eigenvalues --  -10.19420 -10.16982 -10.16927 -10.16890 -10.16653
 Alpha  occ. eigenvalues --  -10.16389 -10.16303 -10.16099 -10.16062 -10.15931
 Alpha  occ. eigenvalues --  -10.15929 -10.15882 -10.15861 -10.15841 -10.15729
 Alpha  occ. eigenvalues --  -10.15566 -10.15526 -10.15485 -10.15364 -10.15018
 Alpha  occ. eigenvalues --  -10.14416 -10.14346 -10.14029 -10.13979 -10.13851
 Alpha  occ. eigenvalues --  -10.13757 -10.12740 -10.12410 -10.11607  -7.92208
 Alpha  occ. eigenvalues --   -5.88593  -5.88251  -5.87582  -1.02577  -0.94273
 Alpha  occ. eigenvalues --   -0.93506  -0.82320  -0.82084  -0.81244  -0.80503
 Alpha  occ. eigenvalues --   -0.79683  -0.78484  -0.77462  -0.76196  -0.74895
 Alpha  occ. eigenvalues --   -0.73465  -0.71812  -0.71656  -0.70206  -0.68427
 Alpha  occ. eigenvalues --   -0.66461  -0.64372  -0.62563  -0.61357  -0.59948
 Alpha  occ. eigenvalues --   -0.58559  -0.58170  -0.58036  -0.57754  -0.57323
 Alpha  occ. eigenvalues --   -0.57156  -0.56987  -0.56491  -0.54924  -0.53152
 Alpha  occ. eigenvalues --   -0.49902  -0.48804  -0.48485  -0.47546  -0.47039
 Alpha  occ. eigenvalues --   -0.46625  -0.45467  -0.44984  -0.44043  -0.43967
 Alpha  occ. eigenvalues --   -0.43207  -0.42788  -0.42597  -0.42462  -0.42124
 Alpha  occ. eigenvalues --   -0.41952  -0.41395  -0.40959  -0.40130  -0.39802
 Alpha  occ. eigenvalues --   -0.39593  -0.39412  -0.39322  -0.38458  -0.38149
 Alpha  occ. eigenvalues --   -0.37525  -0.36918  -0.36601  -0.36525  -0.36152
 Alpha  occ. eigenvalues --   -0.35849  -0.35073  -0.35029  -0.34731  -0.34415
 Alpha  occ. eigenvalues --   -0.34241  -0.34082  -0.33810  -0.33246  -0.33091
 Alpha  occ. eigenvalues --   -0.32871  -0.32727  -0.32530  -0.32259  -0.32180
 Alpha  occ. eigenvalues --   -0.32072  -0.31901  -0.31759  -0.31694  -0.31460
 Alpha  occ. eigenvalues --   -0.31089  -0.30861  -0.30581  -0.30084  -0.29655
 Alpha  occ. eigenvalues --   -0.29577  -0.28802  -0.22615  -0.22531  -0.22034
 Alpha  occ. eigenvalues --   -0.20776  -0.19033  -0.18752  -0.09572
 Alpha virt. eigenvalues --   -0.00494  -0.00244  -0.00113   0.00052   0.00250
 Alpha virt. eigenvalues --    0.00542   0.00821   0.00934   0.00983   0.01175
 Alpha virt. eigenvalues --    0.01248   0.01510   0.01644   0.01884   0.02258

  Beta  occ. eigenvalues --  -88.83583 -19.10939 -19.01944 -19.01239 -10.19450
  Beta  occ. eigenvalues --  -10.19420 -10.16982 -10.16927 -10.16890 -10.16653
  Beta  occ. eigenvalues --  -10.16389 -10.16303 -10.16099 -10.16062 -10.15931
  Beta  occ. eigenvalues --  -10.15929 -10.15882 -10.15861 -10.15841 -10.15729
  Beta  occ. eigenvalues --  -10.15566 -10.15526 -10.15485 -10.15364 -10.15018
  Beta  occ. eigenvalues --  -10.14416 -10.14346 -10.14029 -10.13979 -10.13851
  Beta  occ. eigenvalues --  -10.13757 -10.12740 -10.12410 -10.11607  -7.92208
  Beta  occ. eigenvalues --   -5.88593  -5.88251  -5.87582  -1.02577  -0.94273
  Beta  occ. eigenvalues --   -0.93506  -0.82320  -0.82084  -0.81244  -0.80503
  Beta  occ. eigenvalues --   -0.79683  -0.78484  -0.77462  -0.76196  -0.74895
  Beta  occ. eigenvalues --   -0.73465  -0.71812  -0.71656  -0.70206  -0.68427
  Beta  occ. eigenvalues --   -0.66461  -0.64372  -0.62563  -0.61357  -0.59948
  Beta  occ. eigenvalues --   -0.58559  -0.58170  -0.58036  -0.57754  -0.57323
  Beta  occ. eigenvalues --   -0.57156  -0.56987  -0.56491  -0.54924  -0.53152
  Beta  occ. eigenvalues --   -0.49902  -0.48804  -0.48485  -0.47546  -0.47039
  Beta  occ. eigenvalues --   -0.46625  -0.45467  -0.44984  -0.44043  -0.43967
  Beta  occ. eigenvalues --   -0.43207  -0.42788  -0.42597  -0.42462  -0.42124
  Beta  occ. eigenvalues --   -0.41952  -0.41395  -0.40959  -0.40130  -0.39802
  Beta  occ. eigenvalues --   -0.39593  -0.39412  -0.39322  -0.38458  -0.38149
  Beta  occ. eigenvalues --   -0.37525  -0.36918  -0.36601  -0.36525  -0.36152
  Beta  occ. eigenvalues --   -0.35849  -0.35073  -0.35029  -0.34731  -0.34415
  Beta  occ. eigenvalues --   -0.34241  -0.34082  -0.33810  -0.33246  -0.33091
  Beta  occ. eigenvalues --   -0.32871  -0.32727  -0.32530  -0.32259  -0.32180
  Beta  occ. eigenvalues --   -0.32072  -0.31901  -0.31759  -0.31694  -0.31460
  Beta  occ. eigenvalues --   -0.31089  -0.30861  -0.30581  -0.30084  -0.29655
  Beta  occ. eigenvalues --   -0.29577  -0.28802  -0.22615  -0.22531  -0.22034
  Beta  occ. eigenvalues --   -0.20776  -0.19033  -0.18752  -0.09572
  Beta virt. eigenvalues --   -0.00494  -0.00244  -0.00113   0.00052   0.00250
  Beta virt. eigenvalues --    0.00542   0.00821   0.00934   0.00983   0.01175
  Beta virt. eigenvalues --    0.01248   0.01510   0.01644   0.01884   0.02258

 Mulliken charges and spin densities:
               1          2
     1  C   -0.054463   0.000000
     2  C   -0.402197   0.000000
     3  C   -0.494486   0.000000
     4  C    0.432776  -0.000000
     5  C   -0.059440   0.000000
     6  C    0.025922  -0.000000
     7  C   -0.950429  -0.000000
     8  C   -0.627392   0.000000
     9  C    1.922041  -0.000000
    10  C   -0.788468  -0.000000
    11  O   -0.719855   0.000000
    12  O   -0.629611  -0.000000
    13  O   -0.332980  -0.000000
    14  C   -0.314019   0.000000
    15  C   -0.724376   0.000000
    16  C   -0.247641   0.000000
    17  C   -0.119081  -0.000000
    18  C   -0.081418  -0.000000
    19  C   -0.268045  -0.000000
    20  C   -0.097031  -0.000000
    21  C   -0.329557  -0.000000
    22  C   -0.194197  -0.000000
    23  C   -0.806626  -0.000000
    24  S   -0.420167   0.000000
    25  C   -0.708636   0.000000
    26  C   -0.003409   0.000000
    27  C    0.019573   0.000000
    28  C    0.018755   0.000000
    29  C    0.024820  -0.000000
    30  C   -0.000561  -0.000000
    31  C   -0.254823  -0.000000
    32  C   -0.448161  -0.000000
    33  C   -0.269527  -0.000000
    34  C   -0.694798  -0.000000
    35  H    0.138822  -0.000000
    36  H    0.151362  -0.000000
    37  H    0.145350   0.000000
    38  H    0.138512  -0.000000
    39  H    0.275793   0.000000
    40  H    0.199634  -0.000000
    41  H    0.173293   0.000000
    42  H    0.176401  -0.000000
    43  H    0.153710   0.000000
    44  H    0.103716  -0.000000
    45  H    0.108970   0.000000
    46  H    0.122444  -0.000000
    47  H    0.123276  -0.000000
    48  H    0.129505   0.000000
    49  H    0.130629   0.000000
    50  H    0.130786   0.000000
    51  H    0.130481   0.000000
    52  H    0.131312   0.000000
    53  H    0.131322  -0.000000
    54  H    0.140102   0.000000
    55  H    0.139491  -0.000000
    56  H    0.127934  -0.000000
    57  H    0.128174   0.000000
    58  H    0.183890  -0.000000
    59  H    0.183029  -0.000000
    60  H    0.191833  -0.000000
    61  H    0.191610  -0.000000
    62  H    0.132998  -0.000000
    63  H    0.133173  -0.000000
    64  H    0.138165   0.000000
    65  H    0.138059   0.000000
    66  H    0.132499   0.000000
    67  H    0.132589   0.000000
    68  H    0.128827  -0.000000
    69  H    0.128727  -0.000000
    70  H    0.128380  -0.000000
    71  H    0.128412  -0.000000
    72  H    0.127721   0.000000
    73  H    0.127693   0.000000
    74  H    0.124360   0.000000
    75  H    0.124378   0.000000
    76  H    0.131218  -0.000000
    77  H    0.131177  -0.000000
    78  H    0.140122   0.000000
    79  H    0.147511   0.000000
    80  H    0.140118   0.000000
 Sum of Mulliken charges =  -2.00000   0.00000

 Dipole moment (field-independent basis, Debye):
    X=            -97.7597    Y=              0.9816    Z=             -0.4914  Tot=             97.7659
 Quadrupole moment (field-independent basis, Debye-Ang):
   XX=          -1254.0140   YY=           -259.6719   ZZ=           -261.8691
   XY=             -9.8266   XZ=            -51.2203   YZ=             14.3821

 Normal termination of Gaussian 16 at Thu Jan 25 06:17:50 2024.
