 Gaussian 16, Revision A.03,
 Gaussian 16:  ES64L-G16RevA.03 25-Dec-2016

 ----------------------------------------------------------------
 #P UB3LYP/6-311++G(d,p) SCRF=(PCM,Solvent=n,n-DiMethylFormamide)
 ----------------------------------------------------------------

 -------
 Reduced
 -------
 Symbolic Z-matrix:
 Charge = -2 Multiplicity = 1

                         Standard orientation:
 ---------------------------------------------------------------------
 Center     Atomic      Atomic             Coordinates (Angstroms)
 Number     Number       Type             X           Y           Z
 ---------------------------------------------------------------------
      1          6           0        2.712515   -1.978501    0.505835
      2          6           0        4.015650   -2.227009    0.109768
      3          6           0        4.750271   -1.209784   -0.541552
      4          6           0        2.092636   -0.731239    0.281063
      5          6           0        2.832488    0.298880   -0.384788
      6          6           0        4.161018    0.018972   -0.778382
      7          6           0        0.704171   -0.541900    0.730284
      8          6           0        0.206298    0.767088    0.450348
      9          6           0        0.937577    1.789857   -0.226176
     10          6           0        2.262263    1.626419   -0.672694
     11          8           0        0.050794   -1.489348    1.282524
     12          8           0        2.956858    2.531139   -1.270158
     13         16           0       -1.458788    1.134414    0.924149
     14          8           0       -1.741117    0.868001    2.352712
     15          8           0       -1.818607    2.487633    0.421383
     16          6           0       -2.517303   -0.000419   -0.020828
     17          6           0       -2.685394   -1.328957    0.391084
     18          6           0       -3.151993    0.473167   -1.173314
     19          6           0       -3.499331   -2.172793   -0.363054
     20          6           0       -4.146530   -1.707644   -1.511291
     21          6           0       -3.966406   -0.379261   -1.914804
     22          1           0        2.117025   -2.734891    1.007155
     23          1           0        4.471551   -3.197098    0.298405
     24          1           0        5.776273   -1.395191   -0.855648
     25          1           0        4.691819    0.823747   -1.277584
     26          1           0        0.460129    2.748902   -0.384218
     27          1           0       -2.139778   -1.674085    1.258895
     28          1           0       -3.001024    1.506357   -1.462070
     29          1           0       -3.624902   -3.206582   -0.052940
     30          1           0       -4.778770   -2.374216   -2.091577
     31          1           0       -4.462712   -0.008226   -2.807474
 ---------------------------------------------------------------------

 SCF Done:  E(UB3LYP) =  -1315.28724719     A.U. after   18 cycles

 The electronic state is 1-A.
 Alpha  occ. eigenvalues --  -89.03065 -19.09912 -19.09762 -19.03648 -19.02083
 Alpha  occ. eigenvalues --  -10.20023 -10.19825 -10.18248 -10.18072 -10.18020
 Alpha  occ. eigenvalues --  -10.17946 -10.17813 -10.17681 -10.16262 -10.16101
 Alpha  occ. eigenvalues --  -10.15950 -10.15613 -10.15364 -10.15336 -10.15237
 Alpha  occ. eigenvalues --  -10.12931  -8.09422  -6.05739  -6.05606  -6.05472
 Alpha  occ. eigenvalues --   -1.08693  -0.98219  -0.95990  -0.93810  -0.86352
 Alpha  occ. eigenvalues --   -0.83746  -0.78909  -0.76437  -0.75218  -0.73243
 Alpha  occ. eigenvalues --   -0.72891  -0.67836  -0.64425  -0.61206  -0.60823
 Alpha  occ. eigenvalues --   -0.59332  -0.56892  -0.54272  -0.52472  -0.49350
 Alpha  occ. eigenvalues --   -0.48708  -0.46899  -0.46388  -0.45541  -0.44556
 Alpha  occ. eigenvalues --   -0.43838  -0.43426  -0.42633  -0.41345  -0.40737
 Alpha  occ. eigenvalues --   -0.39014  -0.38688  -0.37715  -0.37333  -0.36816
 Alpha  occ. eigenvalues --   -0.36369  -0.34669  -0.33683  -0.33267  -0.32555
 Alpha  occ. eigenvalues --   -0.32314  -0.31574  -0.30802  -0.29133  -0.28380
 Alpha  occ. eigenvalues --   -0.26536  -0.26073  -0.23940  -0.23619  -0.22950
 Alpha  occ. eigenvalues --   -0.21283  -0.20090  -0.12808
 Alpha virt. eigenvalues --   -0.03552  -0.01625  -0.01603  -0.00351  -0.00123
 Alpha virt. eigenvalues --    0.00559   0.01332   0.01924   0.02348   0.03081
 Alpha virt. eigenvalues --    0.03495   0.03859   0.04439   0.04970   0.05456

  Beta  occ. eigenvalues --  -89.03065 -19.09912 -19.09762 -19.03648 -19.02083
  Beta  occ. eigenvalues --  -10.20023 -10.19825 -10.18248 -10.18072 -10.18020
  Beta  occ. eigenvalues --  -10.17946 -10.17813 -10.17681 -10.16262 -10.16101
  Beta  occ. eigenvalues --  -10.15950 -10.15613 -10.15364 -10.15336 -10.15237
  Beta  occ. eigenvalues --  -10.12931  -8.09422  -6.05739  -6.05606  -6.05472
  Beta  occ. eigenvalues --   -1.08693  -0.98219  -0.95990  -0.93810  -0.86352
  Beta  occ. eigenvalues --   -0.83746  -0.78909  -0.76437  -0.75218  -0.73243
  Beta  occ. eigenvalues --   -0.72891  -0.67836  -0.64425  -0.61206  -0.60823
  Beta  occ. eigenvalues --   -0.59332  -0.56892  -0.54272  -0.52472  -0.49350
  Beta  occ. eigenvalues --   -0.48708  -0.46899  -0.46388  -0.45541  -0.44556
  Beta  occ. eigenvalues --   -0.43838  -0.43426  -0.42633  -0.41345  -0.40737
  Beta  occ. eigenvalues --   -0.39014  -0.38688  -0.37715  -0.37333  -0.36816
  Beta  occ. eigenvalues --   -0.36369  -0.34669  -0.33683  -0.33267  -0.32555
  Beta  occ. eigenvalues --   -0.32314  -0.31574  -0.30802  -0.29133  -0.28380
  Beta  occ. eigenvalues --   -0.26536  -0.26073  -0.23940  -0.23619  -0.22950
  Beta  occ. eigenvalues --   -0.21283  -0.20090  -0.12808
  Beta virt. eigenvalues --   -0.03552  -0.01625  -0.01603  -0.00351  -0.00123
  Beta virt. eigenvalues --    0.00559   0.01332   0.01924   0.02348   0.03081
  Beta virt. eigenvalues --    0.03495   0.03859   0.04439   0.04970   0.05456

 Mulliken charges and spin densities:
               1          2
     1  C    0.213784  -0.000000
     2  C   -0.442470  -0.000000
     3  C   -0.378255  -0.000000
     4  C    0.258304  -0.000000
     5  C    0.310864   0.000000
     6  C    0.006371  -0.000000
     7  C   -0.523120   0.000000
     8  C    0.021701  -0.000000
     9  C   -0.185187   0.000000
    10  C   -0.582404   0.000000
    11  O   -0.514292  -0.000000
    12  O   -0.682967  -0.000000
    13  S    0.220048   0.000000
    14  O   -0.250920   0.000000
    15  O   -0.296422  -0.000000
    16  C    0.083984   0.000000
    17  C   -0.220980  -0.000000
    18  C    0.248824  -0.000000
    19  C   -0.432367   0.000000
    20  C   -0.321225  -0.000000
    21  C   -0.488732   0.000000
    22  H    0.150626   0.000000
    23  H    0.168898  -0.000000
    24  H    0.172445   0.000000
    25  H    0.149010   0.000000
    26  H    0.206242   0.000000
    27  H    0.282128  -0.000000
    28  H    0.239877   0.000000
    29  H    0.204369   0.000000
    30  H    0.182626  -0.000000
    31  H    0.199242   0.000000
 Sum of Mulliken charges =  -2.00000  -0.00000

 Dipole moment (field-independent basis, Debye):
    X=             -8.8735    Y=            -10.9086    Z=             -4.1602  Tot=             14.6644
 Quadrupole moment (field-independent basis, Debye-Ang):
   XX=           -180.1321   YY=           -175.3171   ZZ=           -158.1146
   XY=            -12.2408   XZ=             26.0200   YZ=              9.5724

 Normal termination of Gaussian 16 at Sun Jan 21 09:01:17 2024.
