 Q-Chem 5.4, Q-Chem, Inc., Pleasanton, CA (2021)
 Q-Chem 5.4.0 for Intel X86 EM64T Linux

User input:
--------------------------------------------------------------
$molecule
-2 1
C                  1.7962500000      2.7807440000      1.5201570000
C                  0.4137820000      2.7455610000      1.2711710000
C                 -0.1738650000      1.6539570000      0.6145670000
C                  0.6014330000      0.5231770000      0.1792320000
C                  2.0275450000      0.5990720000      0.4108030000
C                  2.5909050000      1.6999080000      1.0771290000
O                  2.3291140000      3.8065970000      2.2880110000
O                  0.0712500000     -0.4981600000     -0.3984980000
C                 -0.4484310000      3.8974010000      1.7431010000
C                 -1.6586920000      1.6155210000      0.3449820000
C                  2.8324300000     -0.5676710000     -0.1022160000
S                  4.3612550000      1.6969170000      1.4633750000
C                  4.9660990000      3.2936420000      0.7314790000
C                  5.4533910000      4.3531440000      1.7336840000
C                  4.9715770000      5.7931960000      1.3745790000
O                  5.8250300000      6.7082480000      1.3709800000
O                  3.7295140000      5.8921900000      1.1452550000
H                  0.1523520000      4.6174400000      2.2980590000
H                 -1.2647080000      3.5488560000      2.3901990000
H                 -0.9202690000      4.4197950000      0.8997150000
H                 -2.0096650000      2.5019460000     -0.2037330000
H                 -2.2570300000      1.5657040000      1.2690070000
H                 -1.8723560000      0.7220830000     -0.2460900000
H                  2.3769860000     -0.9305550000     -1.0287570000
H                  2.8089550000     -1.4198240000      0.5950040000
H                  3.8786360000     -0.2992890000     -0.2615490000
H                  4.1323420000      3.6825940000      0.1494750000
H                  5.7639700000      3.0278990000      0.0316650000
H                  6.5437720000      4.3453370000      1.8194050000
H                  5.0357060000      4.1244970000      2.7187470000
H                  2.7683670000      4.5212610000      1.7588860000
$end
$rem
MAX_SCF_CYCLES=200
BASIS  =  6-311++G(d,p)
GUI  =  2
JOB_TYPE  =  SP
METHOD  =  B3LYP
SOLVENT_METHOD = COSMO
$end
$solvent
dielectric 37.219
opticaldielectric 1.43
$end

--------------------------------------------------------------

             Standard Nuclear Orientation (Angstroms)
    I     Atom           X                Y                Z
 ----------------------------------------------------------------
    1      C       0.3534945115     0.6105816445    -0.4666638532
    2      C       1.4498088385     1.4599377340    -0.2405250189
    3      C       2.7009965651     0.9416848390     0.1255355116
    4      C       2.9229550267    -0.4718071477     0.2740003366
    5      C       1.7707356962    -1.3238311254     0.0749365991
    6      C       0.5301155338    -0.7809820778    -0.2984013856
    7      O      -0.8329773281     1.1376592231    -0.9569617070
    8      O       4.0728433629    -0.9631736251     0.5811013511
    9      C       1.2730823780     2.9530961037    -0.4197187934
   10      C       3.8792607037     1.8530688469     0.3703567280
   11      C       2.0067077623    -2.7970477307     0.2900356542
   12      S      -0.8540787050    -1.8913257850    -0.6651127192
   13      C      -2.2121185543    -1.2684262156     0.4388631134
   14      C      -3.4252785374    -0.6444669644    -0.2705948146
   15      C      -3.9331981417     0.6548918849     0.4283580813
   16      O      -5.1591469399     0.7495532133     0.6603147920
   17      O      -3.0314057974     1.5116108065     0.6690094107
   18      H       0.2683293920     3.1750741035    -0.7782881187
   19      H       1.9992102169     3.3600308026    -1.1364266083
   20      H       1.4294157269     3.4937030043     0.5237485338
   21      H       3.6618075509     2.6300935687     1.1179971407
   22      H       4.2041397008     2.3813310578    -0.5405246969
   23      H       4.7126788161     1.2414180125     0.7232694377
   24      H       2.7348230775    -2.9237968138     1.0971137278
   25      H       2.4569175210    -3.2734114447    -0.5949617043
   26      H       1.0792822643    -3.3272289395     0.5153193171
   27      H      -1.7431701699    -0.5367026474     1.0944781543
   28      H      -2.5200858979    -2.1177253238     1.0559565013
   29      H      -4.2486287673    -1.3600549417    -0.3503946254
   30      H      -3.1302701575    -0.3549770090    -1.2836372349
   31      H      -1.5330670675     1.2680634378    -0.2666500426
 ----------------------------------------------------------------

   11   -1165.0916453384      5.11e-06  Convergence criterion met
 Total energy in the final basis set =    -1165.0916453384
    5   -1165.3493109283      8.01e-06  Convergence criterion met
 Total energy in the final basis set =    -1165.3493109283

                    Orbital Energies (a.u.)
 --------------------------------------------------------------

 Alpha MOs
 -- Occupied --
-88.8272 -19.1033 -19.0718 -19.0697 -19.0298 -10.2595 -10.1914 -10.1849
-10.1847 -10.1770 -10.1561 -10.1525 -10.1455 -10.1454 -10.1396 -10.1390
-10.1383  -7.9131  -5.8770  -5.8735  -5.8670  -1.0322  -1.0085  -0.9488
 -0.9462  -0.8218  -0.7888  -0.7616  -0.7175  -0.7057  -0.6884  -0.6397
 -0.6274  -0.5926  -0.5499  -0.5291  -0.5046  -0.4893  -0.4803  -0.4530
 -0.4424  -0.4226  -0.4163  -0.4116  -0.4036  -0.3954  -0.3926  -0.3912
 -0.3794  -0.3739  -0.3723  -0.3687  -0.3625  -0.3565  -0.3375  -0.3341
 -0.3269  -0.3253  -0.3043  -0.2791  -0.2714  -0.2647  -0.2499  -0.2471
 -0.2263  -0.2088  -0.1982  -0.1567

          Ground-State Mulliken Net Atomic Charges

     Atom                 Charge (a.u.)
  ----------------------------------------
      1 C                    -0.994050
      2 C                     1.011687
      3 C                     0.527920
      4 C                    -1.632351
      5 C                     0.165405
      6 C                     1.033786
      7 O                    -0.348471
      8 O                    -0.680379
      9 C                    -0.472707
     10 C                    -0.576217
     11 C                    -0.369357
     12 S                    -0.435302
     13 C                    -0.384709
     14 C                    -0.368578
     15 C                     0.093109
     16 O                    -0.560188
     17 O                    -0.574295
     18 H                     0.180354
     19 H                     0.143533
     20 H                     0.158046
     21 H                     0.143442
     22 H                     0.153062
     23 H                     0.172323
     24 H                     0.156063
     25 H                     0.167672
     26 H                     0.117511
     27 H                     0.204134
     28 H                     0.241763
     29 H                     0.192069
     30 H                     0.172614
     31 H                     0.362111
  ----------------------------------------
  Sum of atomic charges =    -2.000000

                    Cartesian Multipole Moments
 -----------------------------------------------------------------
    Charge (ESU x 10^10)
                -9.6064
    Dipole Moment (Debye)
         X       2.9132      Y      -1.6880      Z      -2.0733
       Tot       3.9541
    Quadrupole Moments (Debye-Ang)
        XX    -259.4543     XY      37.7827     YY    -134.1413
        XZ       3.1319     YZ      -3.6622     ZZ    -124.1103

 Total job time:  78.66s(wall), 605.35s(cpu)
        *  Thank you very much for using Q-Chem.  Have a nice day.  *
