 Gaussian 16, Revision A.03,
 Gaussian 16:  ES64L-G16RevA.03 25-Dec-2016

 --------------------------------------
 #P UB3LYP/6-311++G(d,p) nosym opt freq
 --------------------------------------

 -------
 Radical
 -------
 Symbolic Z-matrix:
 Charge = -1 Multiplicity = 2

 SCF Done:  E(UB3LYP) =  -1124.27357362     A.U. after   23 cycles
 Optimization completed.
    -- Stationary point found.
 Normal termination of Gaussian 16 at Tue Jan  9 20:34:32 2024.

 ----------------------------------------------------------------------
 #P Geom=AllCheck Guess=TCheck SCRF=Check GenChk UB3LYP/6-311++G(d,p) F
 req
 ----------------------------------------------------------------------

 Structure from the checkpoint file:  "339-rad.chk"
 -------
 Radical
 -------
 Charge = -1 Multiplicity = 2

                          Input orientation:
 ---------------------------------------------------------------------
 Center     Atomic      Atomic             Coordinates (Angstroms)
 Number     Number       Type             X           Y           Z
 ---------------------------------------------------------------------
      1          8           0       -0.018808   -2.487674   -0.574975
      2          6           0       -0.020097   -1.274883   -0.209337
      3          6           0        1.236202   -0.584695    0.081399
      4          6           0        2.436628   -1.339022    0.126600
      5          6           0        3.636480   -0.773128    0.512536
      6          6           0        3.709940    0.583631    0.881586
      7          6           0        2.559347    1.361193    0.824496
      8          6           0        1.354222    0.790675    0.417117
      9         16           0       -0.020650    1.882194    0.148103
     10          8           0       -0.013853    2.326908   -1.262065
     11          6           0       -1.398774    0.791660    0.404160
     12          6           0       -2.607271    1.363042    0.800178
     13          6           0       -3.758906    0.586302    0.846445
     14          6           0       -3.682941   -0.770517    0.478119
     15          6           0       -2.479916   -1.337270    0.103492
     16          6           0       -1.278581   -0.583799    0.069574
     17          1           0        2.362813   -2.386810   -0.138112
     18          1           0        4.532513   -1.386427    0.540849
     19          1           0        4.650069    1.021643    1.198262
     20          1           0        2.580860    2.412754    1.087405
     21          1           0       -2.630506    2.414621    1.062866
     22          1           0       -4.701660    1.024987    1.154258
     23          1           0       -4.579638   -1.383178    0.498006
     24          1           0       -2.404362   -2.385115   -0.160505
     25          8           0       -0.025055    2.956694    1.166624
 ---------------------------------------------------------------------

 SCF Done:  E(UB3LYP) =  -1124.27357362     A.U. after    2 cycles

 Alpha  occ. eigenvalues --  -88.91995 -18.98601 -18.98225 -18.94282 -10.09418
 Alpha  occ. eigenvalues --  -10.08438 -10.08437 -10.07337 -10.07337 -10.06881
 Alpha  occ. eigenvalues --  -10.06881 -10.06795 -10.06794 -10.06638 -10.06638
 Alpha  occ. eigenvalues --  -10.05874 -10.05873  -7.98405  -5.94668  -5.94561
 Alpha  occ. eigenvalues --   -5.94534  -0.97624  -0.86775  -0.86686  -0.75683
 Alpha  occ. eigenvalues --   -0.74821  -0.67922  -0.64943  -0.64686  -0.63733
 Alpha  occ. eigenvalues --   -0.57427  -0.53796  -0.51475  -0.48705  -0.46497
 Alpha  occ. eigenvalues --   -0.43803  -0.43087  -0.38333  -0.36880  -0.35940
 Alpha  occ. eigenvalues --   -0.35301  -0.34381  -0.32805  -0.32680  -0.31932
 Alpha  occ. eigenvalues --   -0.31195  -0.29011  -0.28290  -0.27485  -0.26483
 Alpha  occ. eigenvalues --   -0.25046  -0.24606  -0.23770  -0.23403  -0.20405
 Alpha  occ. eigenvalues --   -0.19941  -0.18844  -0.16932  -0.14991  -0.14875
 Alpha  occ. eigenvalues --   -0.14486  -0.14111  -0.11376  -0.01367
 Alpha virt. eigenvalues --    0.07567   0.07908   0.07970   0.08143   0.09846
 Alpha virt. eigenvalues --    0.09855   0.10057   0.11180   0.12655   0.12957
 Alpha virt. eigenvalues --    0.14530   0.14751   0.15092   0.15515   0.15784

  Beta  occ. eigenvalues --  -88.91999 -18.98563 -18.98180 -18.93523 -10.09159
  Beta  occ. eigenvalues --  -10.08281 -10.08281 -10.07409 -10.07409 -10.06907
  Beta  occ. eigenvalues --  -10.06907 -10.06746 -10.06745 -10.06464 -10.06464
  Beta  occ. eigenvalues --  -10.05787 -10.05787  -7.98407  -5.94669  -5.94564
  Beta  occ. eigenvalues --   -5.94540  -0.97530  -0.86639  -0.85386  -0.75407
  Beta  occ. eigenvalues --   -0.74645  -0.67607  -0.64607  -0.64518  -0.63466
  Beta  occ. eigenvalues --   -0.57105  -0.53348  -0.51203  -0.48600  -0.46287
  Beta  occ. eigenvalues --   -0.43523  -0.42939  -0.38134  -0.36748  -0.35827
  Beta  occ. eigenvalues --   -0.35175  -0.34201  -0.32597  -0.32595  -0.31884
  Beta  occ. eigenvalues --   -0.31060  -0.28129  -0.27732  -0.27136  -0.26078
  Beta  occ. eigenvalues --   -0.24892  -0.24500  -0.23434  -0.21434  -0.20145
  Beta  occ. eigenvalues --   -0.19812  -0.18455  -0.16811  -0.14519  -0.14420
  Beta  occ. eigenvalues --   -0.13412  -0.12329  -0.10674
  Beta virt. eigenvalues --    0.04692   0.07791   0.07914   0.08012   0.09302
  Beta virt. eigenvalues --    0.09845   0.10036   0.10234   0.11177   0.12641
  Beta virt. eigenvalues --    0.12950   0.14583   0.14731   0.15124   0.15553

 Mulliken charges and spin densities:
               1          2
     1  O   -0.380481   0.287970
     2  C   -0.193797   0.154246
     3  C    1.657818   0.010161
     4  C    0.162497   0.103657
     5  C   -0.575382  -0.020161
     6  C   -0.133719   0.138272
     7  C   -0.187529  -0.050448
     8  C   -1.763894   0.081941
     9  S    0.323031   0.039152
    10  O   -0.069157   0.003276
    11  C   -1.763897   0.081946
    12  C   -0.187534  -0.050449
    13  C   -0.133728   0.138273
    14  C   -0.575371  -0.020159
    15  C    0.162491   0.103658
    16  C    1.657863   0.010159
    17  H    0.184280  -0.007041
    18  H    0.122771   0.000852
    19  H    0.132998  -0.010326
    20  H    0.186731   0.003561
    21  H    0.186732   0.003561
    22  H    0.132998  -0.010326
    23  H    0.122771   0.000852
    24  H    0.184279  -0.007041
    25  O   -0.252770   0.014415
 Sum of Mulliken charges =  -1.00000   1.00000

 Dipole moment (field-independent basis, Debye):
    X=              0.0929    Y=             -1.5286    Z=              1.1939  Tot=              1.9418
 Quadrupole moment (field-independent basis, Debye-Ang):
   XX=           -113.3794   YY=           -139.7675   ZZ=           -120.5808
   XY=              0.0307   XZ=              0.0086   YZ=             -1.8262

  Exact polarizability: 353.632  -0.145 202.740   1.115  19.349 118.127
 Approx polarizability: 542.985  -0.282 359.667   1.616  45.985 202.786

                      1                      2                      3
                      A                      A                      A
 Frequencies --     41.7188               107.3232               112.0670
 Red. masses --      6.9724                 4.1757                 6.0703
 Frc consts  --      0.0071                 0.0283                 0.0449
 IR Inten    --      5.3358                 1.2931                 0.3820

                      4                      5                      6
                      A                      A                      A
 Frequencies --    150.9092               163.2392               211.1600
 Red. masses --      6.6040                 7.4229                 5.4365
 Frc consts  --      0.0886                 0.1165                 0.1428
 IR Inten    --      1.6808                 0.0003                 1.6301

                      7                      8                      9
                      A                      A                      A
 Frequencies --    244.6233               298.4072               301.5647
 Red. masses --      7.8686                 6.2467                 8.9139
 Frc consts  --      0.2774                 0.3277                 0.4776
 IR Inten    --      1.4115                 0.0347                 1.9902

                     10                     11                     12
                      A                      A                      A
 Frequencies --    332.4001               338.8949               375.2334
 Red. masses --      8.1301                 7.9548                 6.8558
 Frc consts  --      0.5293                 0.5383                 0.5687
 IR Inten    --      0.0656                 0.9312                 1.4671

                     13                     14                     15
                      A                      A                      A
 Frequencies --    400.8078               406.6624               457.7770
 Red. masses --      9.5500                 3.9380                 3.3679
 Frc consts  --      0.9039                 0.3837                 0.4158
 IR Inten    --      4.8296                 2.1485                 1.4880

                     16                     17                     18
                      A                      A                      A
 Frequencies --    495.1163               510.8322               548.3156
 Red. masses --      4.5111                10.0039                 6.7491
 Frc consts  --      0.6515                 1.5381                 1.1955
 IR Inten    --      0.3794                32.2806                33.3632

                     19                     20                     21
                      A                      A                      A
 Frequencies --    575.2116               591.5857               633.9372
 Red. masses --     11.7924                 6.7730                 4.2195
 Frc consts  --      2.2988                 1.3966                 0.9991
 IR Inten    --      1.0331                 2.1298                33.6763

                     22                     23                     24
                      A                      A                      A
 Frequencies --    637.6698               675.8061               711.9778
 Red. masses --      7.0811                 6.0708                 4.8795
 Frc consts  --      1.6964                 1.6336                 1.4573
 IR Inten    --      0.8572                 6.2545                 2.0292

                     25                     26                     27
                      A                      A                      A
 Frequencies --    731.9025               736.8885               747.9275
 Red. masses --      1.5653                 1.2214                 7.2031
 Frc consts  --      0.4940                 0.3908                 2.3740
 IR Inten    --     71.1936                 6.4448                 3.9738

                     28                     29                     30
                      A                      A                      A
 Frequencies --    762.8337               773.9090               857.0561
 Red. masses --      3.1591                 5.6726                 1.3561
 Frc consts  --      1.0831                 2.0018                 0.5869
 IR Inten    --     16.3822                 3.1367                 0.0261

                     31                     32                     33
                      A                      A                      A
 Frequencies --    859.9782               930.4103               940.8874
 Red. masses --      1.4527                 6.7529                 1.3132
 Frc consts  --      0.6330                 3.4442                 0.6850
 IR Inten    --      8.0173                 0.0930                 0.5334

                     34                     35                     36
                      A                      A                      A
 Frequencies --    941.9172               983.0930               984.3882
 Red. masses --      1.3155                 1.2927                 1.3043
 Frc consts  --      0.6876                 0.7361                 0.7447
 IR Inten    --      2.1510                 0.1323                 2.5222

                     37                     38                     39
                      A                      A                      A
 Frequencies --   1025.7001              1030.1773              1038.0981
 Red. masses --     10.0026                 4.1813                 2.3345
 Frc consts  --      6.2002                 2.6145                 1.4822
 IR Inten    --    103.1993               227.7323                 9.2341

                     40                     41                     42
                      A                      A                      A
 Frequencies --   1053.3175              1096.0721              1112.1157
 Red. masses --      2.2535                 5.7239                 1.7662
 Frc consts  --      1.4731                 4.0516                 1.2870
 IR Inten    --      8.7581               157.6734                93.3480

                     43                     44                     45
                      A                      A                      A
 Frequencies --   1131.2091              1168.3035              1169.2821
 Red. masses --      1.7956                 1.2077                 1.1838
 Frc consts  --      1.3538                 0.9713                 0.9536
 IR Inten    --     55.9595                 0.9396                 2.6769

                     46                     47                     48
                      A                      A                      A
 Frequencies --   1193.4048              1206.3171              1240.5559
 Red. masses --      2.7345                11.1500                 1.6357
 Frc consts  --      2.2945                 9.5598                 1.4832
 IR Inten    --     22.2368               180.2901                 0.0111

                     49                     50                     51
                      A                      A                      A
 Frequencies --   1266.8948              1292.2825              1340.7786
 Red. masses --      1.6990                 3.7205                 6.4041
 Frc consts  --      1.6066                 3.6607                 6.7831
 IR Inten    --      2.9386               232.9303                41.1751

                     52                     53                     54
                      A                      A                      A
 Frequencies --   1345.4714              1441.6229              1450.1449
 Red. masses --      7.4481                 2.6160                 2.2646
 Frc consts  --      7.9441                 3.2033                 2.8058
 IR Inten    --      1.1543                66.8311               248.6108

                     55                     56                     57
                      A                      A                      A
 Frequencies --   1461.6010              1474.6781              1506.5889
 Red. masses --      2.3734                 2.4941                 4.4496
 Frc consts  --      2.9873                 3.1956                 5.9506
 IR Inten    --     23.1891                60.6777               145.7408

                     58                     59                     60
                      A                      A                      A
 Frequencies --   1546.8772              1568.4428              1597.3013
 Red. masses --      4.7368                 6.0920                 5.0308
 Frc consts  --      6.6780                 8.8297                 7.5625
 IR Inten    --     36.2649                 8.0989               281.8942

                     61                     62                     63
                      A                      A                      A
 Frequencies --   1626.8516              3140.7191              3140.7835
 Red. masses --      6.2266                 1.0860                 1.0859
 Frc consts  --      9.7095                 6.3114                 6.3113
 IR Inten    --      0.4954                31.3579                26.2985

                     64                     65                     66
                      A                      A                      A
 Frequencies --   3164.4572              3164.6383              3182.4200
 Red. masses --      1.0891                 1.0891                 1.0938
 Frc consts  --      6.4257                 6.4267                 6.5268
 IR Inten    --     37.7264                 1.9713                27.8816

                     67                     68                     69
                      A                      A                      A
 Frequencies --   3182.9075              3191.8663              3192.4694
 Red. masses --      1.0939                 1.0916                 1.0919
 Frc consts  --      6.5295                 6.5525                 6.5565
 IR Inten    --      9.6735                22.5310                 3.2775

 - Thermochemistry -
 -------------------
 Temperature   298.150 Kelvin.  Pressure   1.00000 Atm.
 Atom     1 has atomic number  8 and mass  15.99491

 Molecular mass:   244.01942 amu.
 Principal axes and moments of inertia in atomic units:
                           1         2         3
     Eigenvalues --  2409.056514414.103136250.07997
           X            0.99999  -0.00019  -0.00471
           Y           -0.00036   0.99323  -0.11616
           Z            0.00470   0.11616   0.99322
 This molecule is an asymmetric top.
 Rotational symmetry number  1.
 Warning -- assumption of classical behavior for rotation
           may cause significant error
 Rotational temperatures (Kelvin)      0.03595     0.01962     0.01386
 Rotational constants (GHZ):           0.74915     0.40886     0.28875
 Zero-point vibrational energy     462469.0 (Joules/Mol)
                                  110.53275 (Kcal/Mol)
 Warning -- explicit consideration of  20 degrees of freedom as
           vibrations may cause significant error
 Vibrational temperatures:     60.02   154.41   161.24   217.12   234.86
          (Kelvin)            303.81   351.96   429.34   433.88   478.25
                              487.59   539.88   576.67   585.10   658.64
                              712.36   734.97   788.90   827.60   851.16
                              912.09   917.46   972.33  1024.38  1053.04
                             1060.22  1076.10  1097.55  1113.48  1233.11
                             1237.32  1338.65  1353.73  1355.21  1414.45
                             1416.32  1475.75  1482.20  1493.59  1515.49
                             1577.00  1600.09  1627.56  1680.93  1682.34
                             1717.04  1735.62  1784.88  1822.78  1859.31
                             1929.08  1935.83  2074.17  2086.44  2102.92
                             2121.73  2167.65  2225.61  2256.64  2298.16
                             2340.68  4518.79  4518.89  4552.95  4553.21
                             4578.79  4579.49  4592.38  4593.25

 Zero-point correction=                           0.176145 (Hartree/Particle)
 Thermal correction to Energy=                    0.189033
 Thermal correction to Enthalpy=                  0.189977
 Thermal correction to Gibbs Free Energy=         0.136128
 Sum of electronic and zero-point Energies=          -1124.097428
 Sum of electronic and thermal Energies=             -1124.084541
 Sum of electronic and thermal Enthalpies=           -1124.083597
 Sum of electronic and thermal Free Energies=        -1124.137446

                     E (Thermal)             CV                S
                      KCal/Mol        Cal/Mol-Kelvin    Cal/Mol-Kelvin
 Total                  118.620             52.280            113.335
 Electronic               0.000              0.000              1.377
 Translational            0.889              2.981             42.377
 Rotational               0.889              2.981             32.563
 Vibrational            116.842             46.319             37.017
 Vibration     1          0.594              1.981              5.176
 Vibration     2          0.606              1.943              3.317
 Vibration     3          0.607              1.939              3.233
 Vibration     4          0.618              1.902              2.661
 Vibration     5          0.623              1.888              2.512
 Vibration     6          0.643              1.824              2.034
 Vibration     7          0.660              1.772              1.769
 Vibration     8          0.691              1.677              1.426
 Vibration     9          0.694              1.671              1.408
 Vibration    10          0.714              1.611              1.248
 Vibration    11          0.719              1.598              1.217
 Vibration    12          0.746              1.523              1.058
 Vibration    13          0.767              1.468              0.960
 Vibration    14          0.771              1.456              0.938
 Vibration    15          0.816              1.344              0.773
 Vibration    16          0.851              1.261              0.670
 Vibration    17          0.866              1.226              0.632
 Vibration    18          0.904              1.143              0.548
 Vibration    19          0.932              1.085              0.494
 Vibration    20          0.949              1.050              0.464

 Optimization completed.
    -- Stationary point found.
 Normal termination of Gaussian 16 at Tue Jan  9 21:47:10 2024.
