 Q-Chem 5.4, Q-Chem, Inc., Pleasanton, CA (2021)
 Q-Chem 5.4.0 for Intel X86 EM64T Linux

User input:
--------------------------------------------------------------
$molecule
-1 2
O                 -0.0188080000     -2.4876740000     -0.5749750000
C                 -0.0200970000     -1.2748830000     -0.2093370000
C                  1.2362020000     -0.5846950000      0.0813990000
C                  2.4366280000     -1.3390220000      0.1266000000
C                  3.6364800000     -0.7731280000      0.5125360000
C                  3.7099400000      0.5836310000      0.8815860000
C                  2.5593470000      1.3611930000      0.8244960000
C                  1.3542220000      0.7906750000      0.4171170000
S                 -0.0206500000      1.8821940000      0.1481030000
O                 -0.0138530000      2.3269080000     -1.2620650000
C                 -1.3987740000      0.7916600000      0.4041600000
C                 -2.6072710000      1.3630420000      0.8001780000
C                 -3.7589060000      0.5863020000      0.8464450000
C                 -3.6829410000     -0.7705170000      0.4781190000
C                 -2.4799160000     -1.3372700000      0.1034920000
C                 -1.2785810000     -0.5837990000      0.0695740000
H                  2.3628130000     -2.3868100000     -0.1381120000
H                  4.5325130000     -1.3864270000      0.5408490000
H                  4.6500690000      1.0216430000      1.1982620000
H                  2.5808600000      2.4127540000      1.0874050000
H                 -2.6305060000      2.4146210000      1.0628660000
H                 -4.7016600000      1.0249870000      1.1542580000
H                 -4.5796380000     -1.3831780000      0.4980060000
H                 -2.4043620000     -2.3851150000     -0.1605050000
O                 -0.0250550000      2.9566940000      1.1666240000
$end

$rem
BASIS  =  6-311++G(d,p)
GUI  =  2
JOB_TYPE  =  SP
METHOD  =  B3LYP
SCF_CONVERGENCE  = 8
SOLVENT_METHOD = sm12
$end

$smx
solvent dimethylformamide
charges CM5
$end

--------------------------------------------------------------

             Standard Nuclear Orientation (Angstroms)
    I     Atom           X                Y                Z
 ----------------------------------------------------------------
    1      O      -0.0188080000    -2.4876740000    -0.5749750000
    2      C      -0.0200970000    -1.2748830000    -0.2093370000
    3      C       1.2362020000    -0.5846950000     0.0813990000
    4      C       2.4366280000    -1.3390220000     0.1266000000
    5      C       3.6364800000    -0.7731280000     0.5125360000
    6      C       3.7099400000     0.5836310000     0.8815860000
    7      C       2.5593470000     1.3611930000     0.8244960000
    8      C       1.3542220000     0.7906750000     0.4171170000
    9      S      -0.0206500000     1.8821940000     0.1481030000
   10      O      -0.0138530000     2.3269080000    -1.2620650000
   11      C      -1.3987740000     0.7916600000     0.4041600000
   12      C      -2.6072710000     1.3630420000     0.8001780000
   13      C      -3.7589060000     0.5863020000     0.8464450000
   14      C      -3.6829410000    -0.7705170000     0.4781190000
   15      C      -2.4799160000    -1.3372700000     0.1034920000
   16      C      -1.2785810000    -0.5837990000     0.0695740000
   17      H       2.3628130000    -2.3868100000    -0.1381120000
   18      H       4.5325130000    -1.3864270000     0.5408490000
   19      H       4.6500690000     1.0216430000     1.1982620000
   20      H       2.5808600000     2.4127540000     1.0874050000
   21      H      -2.6305060000     2.4146210000     1.0628660000
   22      H      -4.7016600000     1.0249870000     1.1542580000
   23      H      -4.5796380000    -1.3831780000     0.4980060000
   24      H      -2.4043620000    -2.3851150000    -0.1605050000
   25      O      -0.0250550000     2.9566940000     1.1666240000
 ----------------------------------------------------------------

   18   -1124.2701920744      8.48e-09  Convergence criterion met
 Total energy in the final basis set =    -1124.3590865763

                    Orbital Energies (a.u.)
 --------------------------------------------------------------

 Alpha MOs
 -- Occupied --
-89.0469 -19.1132 -19.1105 -19.0700 -10.2206 -10.2089 -10.2089 -10.1948
-10.1948 -10.1928 -10.1928 -10.1872 -10.1872 -10.1849 -10.1848 -10.1811
-10.1811  -8.1111  -6.0738  -6.0726  -6.0723  -1.1038  -0.9956  -0.9944
 -0.8792  -0.8702  -0.8018  -0.7721  -0.7687  -0.7585  -0.6978  -0.6594
 -0.6361  -0.6086  -0.5888  -0.5584  -0.5530  -0.5064  -0.4881  -0.4796
 -0.4741  -0.4684  -0.4549  -0.4488  -0.4415  -0.4333  -0.4163  -0.4058
 -0.3929  -0.3870  -0.3709  -0.3660  -0.3609  -0.3584  -0.3309  -0.3259
 -0.3138  -0.2962  -0.2746  -0.2715  -0.2687  -0.2641  -0.2414  -0.1392

 Beta MOs
 -- Occupied --
-89.0469 -19.1128 -19.1100 -19.0626 -10.2178 -10.2073 -10.2073 -10.1956
-10.1956 -10.1925 -10.1925 -10.1875 -10.1875 -10.1831 -10.1831 -10.1801
-10.1801  -8.1111  -6.0738  -6.0726  -6.0723  -1.1028  -0.9944  -0.9813
 -0.8765  -0.8684  -0.7987  -0.7686  -0.7670  -0.7559  -0.6945  -0.6548
 -0.6334  -0.6076  -0.5865  -0.5557  -0.5515  -0.5045  -0.4867  -0.4783
 -0.4729  -0.4665  -0.4528  -0.4479  -0.4409  -0.4318  -0.4051  -0.3996
 -0.3913  -0.3829  -0.3695  -0.3651  -0.3581  -0.3388  -0.3283  -0.3247
 -0.3104  -0.2949  -0.2688  -0.2668  -0.2572  -0.2484  -0.2346

          Ground-State Mulliken Net Atomic Charges

     Atom                 Charge (a.u.)    Spin (a.u.)
  --------------------------------------------------------
      1 O                    -0.358780       0.282817
      2 C                    -1.714703       0.167643
      3 C                    -0.240026      -0.005061
      4 C                    -0.162080       0.117929
      5 C                     0.822827      -0.024861
      6 C                     0.974105       0.136424
      7 C                     0.304926      -0.050798
      8 C                    -2.247742       0.084721
      9 S                     0.258605       0.039947
     10 O                    -0.117236       0.003010
     11 C                    -2.248436       0.084729
     12 C                     0.305141      -0.050809
     13 C                     0.973992       0.136428
     14 C                     0.822586      -0.024863
     15 C                    -0.161693       0.117933
     16 C                    -0.240373      -0.005036
     17 H                     0.162232      -0.007602
     18 H                     0.355057       0.001221
     19 H                     0.366490      -0.009544
     20 H                     0.227571       0.003551
     21 H                     0.227548       0.003552
     22 H                     0.366471      -0.009544
     23 H                     0.355035       0.001221
     24 H                     0.162244      -0.007603
     25 O                    -0.193762       0.014596
  --------------------------------------------------------
  Sum of atomic charges =    -1.000000

                    Cartesian Multipole Moments
 -----------------------------------------------------------------
    Charge (ESU x 10^10)
                -4.8032
    Dipole Moment (Debye)
         X       0.0909      Y      -1.3390      Z       1.7183
       Tot       2.1803
    Quadrupole Moments (Debye-Ang)
        XX    -103.4718     XY       0.0218     YY    -140.4676
        XZ       0.0450     YZ      -1.5401     ZZ    -120.6122

 Total job time:  610.52s(wall), 4491.67s(cpu)
        *  Thank you very much for using Q-Chem.  Have a nice day.  *
