 Gaussian 16, Revision A.03,
 Gaussian 16:  ES64L-G16RevA.03 25-Dec-2016

 ----------------------------------------------------------------
 #P UB3LYP/6-311++G(d,p) SCRF=(PCM,Solvent=n,n-DiMethylFormamide)
 ----------------------------------------------------------------

 -------
 Reduced
 -------
 Symbolic Z-matrix:
 Charge = -2 Multiplicity = 1

                         Standard orientation:
 ---------------------------------------------------------------------
 Center     Atomic      Atomic             Coordinates (Angstroms)
 Number     Number       Type             X           Y           Z
 ---------------------------------------------------------------------
      1         17           0       -4.701770   -0.632580    0.000056
      2          6           0       -2.996303   -0.016842    0.000002
      3          6           0       -2.810512    1.391102    0.000101
      4          6           0       -1.512324    1.860532    0.000052
      5          6           0       -0.381376    1.007700   -0.000067
      6          6           0        0.940167    1.590721   -0.000096
      7          8           0        1.145186    2.862276   -0.000092
      8          6           0        2.015351    0.621033   -0.000047
      9          6           0        3.358469    1.079119   -0.000025
     10          6           0        4.435271    0.216756    0.000128
     11          6           0        4.207500   -1.189982    0.000149
     12          6           0        2.914930   -1.670774    0.000059
     13          6           0        1.782697   -0.813462   -0.000017
     14          6           0        0.458703   -1.398921   -0.000083
     15          8           0        0.255386   -2.672049   -0.000106
     16          6           0       -0.609651   -0.431659   -0.000092
     17          6           0       -1.954561   -0.900086   -0.000058
     18          1           0       -3.662882    2.061489    0.000249
     19          1           0       -1.309656    2.927500    0.000197
     20          1           0        3.496481    2.156356   -0.000094
     21          1           0        5.452416    0.605995    0.000157
     22          1           0        5.050498   -1.879657    0.000185
     23          1           0        2.707127   -2.736673   -0.000018
     24          1           0       -2.098645   -1.974384   -0.000080
 ---------------------------------------------------------------------

 SCF Done:  E(UB3LYP) =  -1148.81771307     A.U. after   18 cycles

 The electronic state is 1-A.
 Alpha  occ. eigenvalues -- -101.54138 -19.02285 -19.02111 -10.21324 -10.17766
 Alpha  occ. eigenvalues --  -10.17574 -10.16058 -10.15754 -10.15619 -10.15147
 Alpha  occ. eigenvalues --  -10.15083 -10.14770 -10.14722 -10.14330 -10.14051
 Alpha  occ. eigenvalues --  -10.13980 -10.13919  -9.45556  -7.21964  -7.21067
 Alpha  occ. eigenvalues --   -7.21051  -0.94060  -0.93659  -0.86325  -0.82595
 Alpha  occ. eigenvalues --   -0.80998  -0.75143  -0.73104  -0.72438  -0.70335
 Alpha  occ. eigenvalues --   -0.64008  -0.61302  -0.58767  -0.56432  -0.52931
 Alpha  occ. eigenvalues --   -0.51022  -0.49628  -0.44687  -0.44463  -0.43580
 Alpha  occ. eigenvalues --   -0.42579  -0.41077  -0.39984  -0.38809  -0.37943
 Alpha  occ. eigenvalues --   -0.37355  -0.37217  -0.36267  -0.35924  -0.32888
 Alpha  occ. eigenvalues --   -0.32704  -0.32530  -0.32123  -0.30772  -0.30235
 Alpha  occ. eigenvalues --   -0.29503  -0.24011  -0.22865  -0.22554  -0.21707
 Alpha  occ. eigenvalues --   -0.20477  -0.19771  -0.10932
 Alpha virt. eigenvalues --   -0.03165  -0.00231   0.00034   0.00849   0.01181
 Alpha virt. eigenvalues --    0.01552   0.01692   0.02556   0.02984   0.04752
 Alpha virt. eigenvalues --    0.04856   0.05159   0.05436   0.05846   0.06693

  Beta  occ. eigenvalues -- -101.54138 -19.02285 -19.02111 -10.21324 -10.17766
  Beta  occ. eigenvalues --  -10.17574 -10.16058 -10.15754 -10.15619 -10.15147
  Beta  occ. eigenvalues --  -10.15083 -10.14770 -10.14722 -10.14330 -10.14051
  Beta  occ. eigenvalues --  -10.13980 -10.13919  -9.45556  -7.21964  -7.21067
  Beta  occ. eigenvalues --   -7.21051  -0.94060  -0.93659  -0.86325  -0.82595
  Beta  occ. eigenvalues --   -0.80998  -0.75143  -0.73104  -0.72438  -0.70335
  Beta  occ. eigenvalues --   -0.64008  -0.61302  -0.58767  -0.56432  -0.52931
  Beta  occ. eigenvalues --   -0.51022  -0.49628  -0.44687  -0.44463  -0.43580
  Beta  occ. eigenvalues --   -0.42579  -0.41077  -0.39984  -0.38809  -0.37943
  Beta  occ. eigenvalues --   -0.37355  -0.37217  -0.36267  -0.35924  -0.32888
  Beta  occ. eigenvalues --   -0.32704  -0.32530  -0.32123  -0.30772  -0.30235
  Beta  occ. eigenvalues --   -0.29503  -0.24011  -0.22865  -0.22554  -0.21707
  Beta  occ. eigenvalues --   -0.20477  -0.19771  -0.10932
  Beta virt. eigenvalues --   -0.03165  -0.00231   0.00034   0.00849   0.01181
  Beta virt. eigenvalues --    0.01552   0.01692   0.02556   0.02984   0.04752
  Beta virt. eigenvalues --    0.04856   0.05159   0.05436   0.05846   0.06693

 Mulliken charges and spin densities:
               1          2
     1  Cl   0.403971  -0.000000
     2  C    0.674226   0.000000
     3  C   -0.589641  -0.000000
     4  C   -0.122830  -0.000000
     5  C    0.261013  -0.000000
     6  C   -0.480082  -0.000000
     7  O   -0.648415  -0.000000
     8  C    0.238290   0.000000
     9  C    0.009898   0.000000
    10  C   -0.503915   0.000000
    11  C   -0.507082   0.000000
    12  C    0.030060  -0.000000
    13  C    0.251490   0.000000
    14  C   -0.707324  -0.000000
    15  O   -0.654003   0.000000
    16  C   -0.397926   0.000000
    17  C   -0.373578   0.000000
    18  H    0.179944   0.000000
    19  H    0.152466   0.000000
    20  H    0.145277  -0.000000
    21  H    0.159923  -0.000000
    22  H    0.159750  -0.000000
    23  H    0.148046   0.000000
    24  H    0.170444  -0.000000
 Sum of Mulliken charges =  -2.00000  -0.00000

 Dipole moment (field-independent basis, Debye):
    X=             -2.9200    Y=              0.1449    Z=              0.0006  Tot=              2.9236
 Quadrupole moment (field-independent basis, Debye-Ang):
   XX=           -152.7948   YY=           -164.4928   ZZ=           -117.4273
   XY=            -10.5234   XZ=             -0.0004   YZ=              0.0007

 Normal termination of Gaussian 16 at Sun Jan 14 01:24:08 2024.
