 Q-Chem 5.4, Q-Chem, Inc., Pleasanton, CA (2021)
 Q-Chem 5.4.0 for Intel X86 EM64T Linux

User input:
--------------------------------------------------------------
$molecule
-2 1
C                  4.8776090000     -2.9403920000     -0.3100800000
C                  5.6399540000     -2.0933220000     -1.0667910000
C                  5.0886180000     -0.8573450000     -1.5220210000
C                  3.5340730000     -2.6266760000      0.0440290000
C                  2.9366950000     -1.3672790000     -0.4054050000
C                  3.7869230000     -0.5157460000     -1.1993270000
C                  2.8158670000     -3.5679170000      0.8343810000
C                  1.4657250000     -3.2401850000      1.1838370000
C                  0.8675190000     -2.0083520000      0.7500460000
C                  1.5859290000     -1.0449510000     -0.0523020000
C                  0.6969860000     -4.1606450000      1.9825800000
C                 -0.6032870000     -3.8540270000      2.3241780000
C                 -0.4968140000     -1.7270890000      1.1303690000
C                 -1.2002430000     -2.6364270000      1.8976400000
O                  3.3606600000     -4.7023970000      1.2364250000
O                  0.9755870000      0.0620680000     -0.4132030000
O                  1.2731830000     -5.3281820000      2.3899630000
H                  5.2623420000     -3.8867940000      0.0529070000
H                  6.6651200000     -2.3472680000     -1.3290840000
H                  5.7026930000     -0.1963610000     -2.1203470000
O                  3.2417430000      0.6761630000     -1.6336030000
H                  2.2312890000     -5.2667850000      1.9825170000
O                 -1.0752550000     -0.5657520000      0.7270710000
H                 -2.2256490000     -2.3989200000      2.1693940000
H                 -1.1648100000     -4.5631920000      2.9275210000
H                 -0.2903350000     -0.1113990000      0.1743260000
C                  4.0271460000      1.5365220000     -2.4067100000
H                  3.3945290000      2.4001720000     -2.6286040000
H                  4.3492050000      1.0760610000     -3.3544550000
H                  4.9272570000      1.8802470000     -1.8722690000
$end
$rem
MAX_SCF_CYCLES=200
BASIS  =  6-311++G(d,p)
GUI  =  2
JOB_TYPE  =  SP
METHOD  =  B3LYP
SOLVENT_METHOD = COSMO
$end
$solvent
dielectric 37.219
opticaldielectric 1.43
$end

--------------------------------------------------------------

             Standard Nuclear Orientation (Angstroms)
    I     Atom           X                Y                Z
 ----------------------------------------------------------------
    1      C      -1.5479513185    -2.4975046453    -0.0006519068
    2      C      -2.9059740785    -2.3329349162    -0.0007466718
    3      C      -3.4616855811    -1.0176291074    -0.0002593298
    4      C      -0.6573895745    -1.3858394472    -0.0002479158
    5      C      -1.1928330476    -0.0226694350    -0.0001857785
    6      C      -2.6301643155     0.0886273787     0.0001139725
    7      C       0.7410314229    -1.6519774228    -0.0000146579
    8      C       1.6257963208    -0.5252111448     0.0000862445
    9      C       1.1141951643     0.8170637088    -0.0001669204
   10      C      -0.3027808257     1.1002521166    -0.0004791918
   11      C       3.0502103214    -0.7425618009     0.0003841539
   12      C       3.9098790467     0.3355770339     0.0003428914
   13      C       2.0498513100     1.9169303240    -0.0001807716
   14      C       3.4090590531     1.6659980761     0.0000677624
   15      O       1.2175364793    -2.8842219515     0.0001022361
   16      O      -0.6998927858     2.3534718104    -0.0011466215
   17      O       3.5271177463    -2.0207111278     0.0007637173
   18      H      -1.0904591538    -3.4804373323    -0.0008550027
   19      H      -3.5733820609    -3.1924801462    -0.0010613738
   20      H      -4.5380287971    -0.9015808860    -0.0000405849
   21      O      -3.1547862157     1.3658254620     0.0010405866
   22      H       2.6546840649    -2.5922077704     0.0007934662
   23      O       1.5799419929     3.1917370013    -0.0004340762
   24      H       4.0905941854     2.5128907113     0.0000025687
   25      H       4.9809326917     0.1482541210     0.0006043038
   26      H       0.5291666029     3.0370302816    -0.0004600915
   27      C      -4.5437315991     1.5258274396     0.0011030188
   28      H      -4.7201956901     2.6048049735     0.0017695430
   29      H      -5.0188819131     1.0850776927     0.8921354294
   30      H      -5.0188414588     1.0861498508    -0.8904843912
 ----------------------------------------------------------------

   11    -954.0146546259      6.88e-06  Convergence criterion met
 Total energy in the final basis set =     -954.0146546259
    5    -954.2825798159      9.64e-06  Convergence criterion met
 Total energy in the final basis set =     -954.2825798159

                    Orbital Energies (a.u.)
 --------------------------------------------------------------

 Alpha MOs
 -- Occupied --
-19.1392 -19.1011 -19.0965 -19.0508 -19.0505 -10.2233 -10.2067 -10.2032
-10.2025 -10.1998 -10.1911 -10.1580 -10.1558 -10.1533 -10.1528 -10.1508
-10.1503 -10.1464 -10.1432 -10.1414  -1.0569  -1.0196  -1.0175  -0.9586
 -0.9551  -0.8367  -0.8175  -0.7637  -0.7448  -0.7192  -0.7073  -0.6812
 -0.6526  -0.6142  -0.6086  -0.5639  -0.5515  -0.5272  -0.5081  -0.4911
 -0.4819  -0.4712  -0.4623  -0.4574  -0.4462  -0.4295  -0.4210  -0.4093
 -0.4002  -0.3963  -0.3849  -0.3807  -0.3742  -0.3738  -0.3715  -0.3558
 -0.3426  -0.3379  -0.3327  -0.3292  -0.3212  -0.3173  -0.3004  -0.2808
 -0.2425  -0.2318  -0.2263  -0.2182  -0.2181  -0.1889  -0.1224

          Ground-State Mulliken Net Atomic Charges

     Atom                 Charge (a.u.)
  ----------------------------------------
      1 C                    -0.327305
      2 C                    -0.478501
      3 C                    -0.052082
      4 C                     0.100060
      5 C                    -0.021057
      6 C                     0.061683
      7 C                    -0.240201
      8 C                     0.337016
      9 C                     0.622833
     10 C                    -0.304458
     11 C                    -0.242918
     12 C                    -0.201378
     13 C                    -0.288335
     14 C                    -0.271737
     15 O                    -0.701275
     16 O                    -0.705769
     17 O                    -0.525555
     18 H                     0.159826
     19 H                     0.196741
     20 H                     0.186329
     21 O                    -0.189305
     22 H                     0.397208
     23 O                    -0.560101
     24 H                     0.182660
     25 H                     0.184927
     26 H                     0.459784
     27 C                    -0.297264
     28 H                     0.200552
     29 H                     0.158780
     30 H                     0.158840
  ----------------------------------------
  Sum of atomic charges =    -2.000000

                    Cartesian Multipole Moments
 -----------------------------------------------------------------
    Charge (ESU x 10^10)
                -9.6064
    Dipole Moment (Debye)
         X     -10.8317      Y       0.1975      Z       0.0046
       Tot      10.8335
    Quadrupole Moments (Debye-Ang)
        XX    -151.2462     XY       9.2765     YY    -183.1550
        XZ      -0.0127     YZ       0.0100     ZZ    -127.3261

 Total job time:  89.86s(wall), 610.52s(cpu)
        *  Thank you very much for using Q-Chem.  Have a nice day.  *
