 Gaussian 16, Revision A.03,
 Gaussian 16:  ES64L-G16RevA.03 25-Dec-2016

 ----------------------------------------------------------------------
 #P UB3LYP/6-311++G(d,p) nosym opt freq SCRF=(PCM,Solvent=n,n-DiMethylF
 ormamide)
 ----------------------------------------------------------------------

 --------
 Oxidized
 --------
 Symbolic Z-matrix:
 Charge =  0 Multiplicity = 1

 SCF Done:  E(UB3LYP) =  -767.606817810     A.U. after   15 cycles
 SCF Done:  E(UB3LYP) =  -767.606834193     A.U. after   10 cycles
 SCF Done:  E(UB3LYP) =  -767.606829067     A.U. after   10 cycles
 SCF Done:  E(UB3LYP) =  -767.606844402     A.U. after   10 cycles
 SCF Done:  E(UB3LYP) =  -767.606847701     A.U. after   10 cycles
 SCF Done:  E(UB3LYP) =  -767.606869675     A.U. after   12 cycles
 SCF Done:  E(UB3LYP) =  -767.539462997     A.U. after   15 cycles
 SCF Done:  E(UB3LYP) =  -767.606737623     A.U. after   14 cycles
 SCF Done:  E(UB3LYP) =  -767.606944022     A.U. after   12 cycles
 SCF Done:  E(UB3LYP) =  -767.607003023     A.U. after   12 cycles
 SCF Done:  E(UB3LYP) =  -767.607014890     A.U. after   11 cycles
 SCF Done:  E(UB3LYP) =  -767.607048768     A.U. after   11 cycles
 SCF Done:  E(UB3LYP) =  -767.607049741     A.U. after   10 cycles
 SCF Done:  E(UB3LYP) =  -767.607049883     A.U. after    9 cycles
 SCF Done:  E(UB3LYP) =  -767.607049902     A.U. after    9 cycles
 SCF Done:  E(UB3LYP) =  -767.607049924     A.U. after    9 cycles
 SCF Done:  E(UB3LYP) =  -767.607049959     A.U. after    8 cycles
 SCF Done:  E(UB3LYP) =  -767.607049997     A.U. after    8 cycles
 Optimization completed.
    -- Stationary point found.
 Normal termination of Gaussian 16 at Sun Feb 11 04:53:04 2024.

 ----------------------------------------------------------------------
 #P Geom=AllCheck Guess=TCheck SCRF=Check GenChk UB3LYP/6-311++G(d,p) F
 req
 ----------------------------------------------------------------------

 Structure from the checkpoint file:  "127.chk"
 --------
 Oxidized
 --------
 Charge =  0 Multiplicity = 1

                          Input orientation:
 ---------------------------------------------------------------------
 Center     Atomic      Atomic             Coordinates (Angstroms)
 Number     Number       Type             X           Y           Z
 ---------------------------------------------------------------------
      1          6           0       -2.949969   -2.058087   -0.050679
      2          6           0       -2.327090   -0.683030   -0.049074
      3          6           0       -3.178590    0.410407   -0.239414
      4          6           0       -2.707921    1.712075   -0.258074
      5          6           0       -1.352225    2.012264   -0.087856
      6          6           0       -0.951174    3.466955   -0.130327
      7          6           0       -0.463797    0.927711    0.091428
      8          6           0        0.997483    1.189178    0.259568
      9          8           0        1.436557    2.311430    0.482892
     10          6           0        1.940268    0.044481    0.132614
     11          6           0        3.314106    0.286619    0.025390
     12          6           0        4.202370   -0.777169   -0.082177
     13          6           0        3.726829   -2.092301   -0.063182
     14          6           0        2.364697   -2.338951    0.063408
     15          6           0        1.464319   -1.271624    0.151699
     16          6           0        0.008623   -1.544853    0.299205
     17          8           0       -0.369826   -2.682104    0.555095
     18          6           0       -0.948896   -0.413573    0.110797
     19          1           0       -2.879851   -2.531170    0.930691
     20          1           0       -2.453531   -2.731243   -0.751593
     21          1           0       -4.003648   -1.979236   -0.324573
     22          1           0       -4.238561    0.229467   -0.379382
     23          1           0       -3.408477    2.525332   -0.412338
     24          1           0       -0.145237    3.648509   -0.843282
     25          1           0       -0.586027    3.810676    0.839402
     26          1           0       -1.813714    4.073528   -0.412264
     27          1           0        3.668404    1.309477    0.023827
     28          1           0        5.264879   -0.586686   -0.178257
     29          1           0        4.420962   -2.920555   -0.144615
     30          1           0        1.983038   -3.351529    0.091068
 ---------------------------------------------------------------------

 SCF Done:  E(UB3LYP) =  -767.607049997     A.U. after    1 cycles

 Alpha  occ. eigenvalues --  -19.12672 -19.12671 -10.28047 -10.28046 -10.20977
 Alpha  occ. eigenvalues --  -10.20937 -10.20861 -10.20859 -10.20606 -10.20554
 Alpha  occ. eigenvalues --  -10.19768 -10.19721 -10.19653 -10.19647 -10.19176
 Alpha  occ. eigenvalues --  -10.19118 -10.16857 -10.16856  -1.06205  -1.06010
 Alpha  occ. eigenvalues --   -0.89304  -0.88241  -0.81221  -0.80728  -0.77687
 Alpha  occ. eigenvalues --   -0.76798  -0.72991  -0.69989  -0.66081  -0.66039
 Alpha  occ. eigenvalues --   -0.64239  -0.60415  -0.57057  -0.55896  -0.53944
 Alpha  occ. eigenvalues --   -0.50085  -0.49444  -0.48775  -0.47864  -0.45919
 Alpha  occ. eigenvalues --   -0.45765  -0.45074  -0.44406  -0.43943  -0.42973
 Alpha  occ. eigenvalues --   -0.41995  -0.41490  -0.40877  -0.39955  -0.38685
 Alpha  occ. eigenvalues --   -0.38292  -0.37761  -0.37251  -0.37070  -0.36241
 Alpha  occ. eigenvalues --   -0.35871  -0.28734  -0.28055  -0.27846  -0.27307
 Alpha  occ. eigenvalues --   -0.26794  -0.26008
 Alpha virt. eigenvalues --   -0.11394  -0.06989  -0.03544  -0.02460  -0.00780
 Alpha virt. eigenvalues --    0.00135   0.00468   0.01422   0.01915   0.02730
 Alpha virt. eigenvalues --    0.03091   0.03288   0.03452   0.03729   0.03853

  Beta  occ. eigenvalues --  -19.12672 -19.12671 -10.28047 -10.28046 -10.20977
  Beta  occ. eigenvalues --  -10.20937 -10.20861 -10.20859 -10.20606 -10.20554
  Beta  occ. eigenvalues --  -10.19768 -10.19721 -10.19653 -10.19647 -10.19176
  Beta  occ. eigenvalues --  -10.19118 -10.16857 -10.16856  -1.06205  -1.06010
  Beta  occ. eigenvalues --   -0.89304  -0.88241  -0.81221  -0.80728  -0.77687
  Beta  occ. eigenvalues --   -0.76798  -0.72991  -0.69989  -0.66081  -0.66039
  Beta  occ. eigenvalues --   -0.64239  -0.60415  -0.57057  -0.55896  -0.53944
  Beta  occ. eigenvalues --   -0.50085  -0.49444  -0.48775  -0.47864  -0.45919
  Beta  occ. eigenvalues --   -0.45765  -0.45074  -0.44406  -0.43943  -0.42973
  Beta  occ. eigenvalues --   -0.41995  -0.41490  -0.40877  -0.39955  -0.38685
  Beta  occ. eigenvalues --   -0.38292  -0.37761  -0.37251  -0.37070  -0.36241
  Beta  occ. eigenvalues --   -0.35871  -0.28734  -0.28055  -0.27846  -0.27307
  Beta  occ. eigenvalues --   -0.26794  -0.26008
  Beta virt. eigenvalues --   -0.11394  -0.06989  -0.03544  -0.02460  -0.00780
  Beta virt. eigenvalues --    0.00135   0.00468   0.01422   0.01915   0.02730
  Beta virt. eigenvalues --    0.03091   0.03288   0.03452   0.03729   0.03853

 Mulliken charges and spin densities:
               1          2
     1  C   -0.467810  -0.000000
     2  C    0.950537   0.000000
     3  C   -0.732333  -0.000000
     4  C   -0.732303   0.000000
     5  C    0.950040  -0.000000
     6  C   -0.468126  -0.000000
     7  C    0.403177  -0.000000
     8  C   -1.001395   0.000000
     9  O   -0.251707  -0.000000
    10  C    0.304556  -0.000000
    11  C    0.167929  -0.000000
    12  C   -0.450212   0.000000
    13  C   -0.449499   0.000000
    14  C    0.167520   0.000000
    15  C    0.303888  -0.000000
    16  C   -1.001414   0.000000
    17  O   -0.251616  -0.000000
    18  C    0.403649   0.000000
    19  H    0.188721  -0.000000
    20  H    0.166193  -0.000000
    21  H    0.153974   0.000000
    22  H    0.163752  -0.000000
    23  H    0.164059   0.000000
    24  H    0.166158   0.000000
    25  H    0.188675  -0.000000
    26  H    0.154135  -0.000000
    27  H    0.199419  -0.000000
    28  H    0.205265  -0.000000
    29  H    0.205235   0.000000
    30  H    0.199529  -0.000000
 Sum of Mulliken charges =  -0.00000   0.00000

 Dipole moment (field-independent basis, Debye):
    X=             -0.6689    Y=              0.2165    Z=             -1.7779  Tot=              1.9119
 Quadrupole moment (field-independent basis, Debye-Ang):
   XX=            -80.3436   YY=           -109.4299   ZZ=           -108.1314
   XY=            -12.1159   XZ=             -0.4353   YZ=              0.2398

  Exact polarizability: 364.657 -14.169 330.285   6.111  -4.917 139.066
 Approx polarizability: 399.233   1.321 402.045   6.764  -5.865 165.845

                      1                      2                      3
                      A                      A                      A
 Frequencies --     28.8881                41.7220               105.8203
 Red. masses --      6.4668                 4.3002                 4.3361
 Frc consts  --      0.0032                 0.0044                 0.0286
 IR Inten    --     10.5026                 0.3811                 0.3658

                      4                      5                      6
                      A                      A                      A
 Frequencies --    112.8059               154.5704               204.9818
 Red. masses --      3.0936                 5.6802                 2.9003
 Frc consts  --      0.0232                 0.0800                 0.0718
 IR Inten    --      1.7335                 0.3031                 0.8925

                      7                      8                      9
                      A                      A                      A
 Frequencies --    225.9506               228.6032               235.8311
 Red. masses --      1.2424                 1.2435                 3.0875
 Frc consts  --      0.0374                 0.0383                 0.1012
 IR Inten    --      1.5328                 0.1677                 0.7101

                     10                     11                     12
                      A                      A                      A
 Frequencies --    312.6475               314.1903               316.6467
 Red. masses --      3.5886                 5.2743                 3.2154
 Frc consts  --      0.2067                 0.3068                 0.1899
 IR Inten    --      0.8542                 0.5622                 0.1609

                     13                     14                     15
                      A                      A                      A
 Frequencies --    364.0488               391.0623               399.4094
 Red. masses --      7.4841                 4.2032                10.9217
 Frc consts  --      0.5844                 0.3787                 1.0265
 IR Inten    --      0.0063                 0.0403                47.1522

                     16                     17                     18
                      A                      A                      A
 Frequencies --    426.3181               427.5257               466.3189
 Red. masses --      3.4529                 5.3223                 5.6988
 Frc consts  --      0.3697                 0.5732                 0.7301
 IR Inten    --      0.0570                 1.7002                 3.4067

                     19                     20                     21
                      A                      A                      A
 Frequencies --    470.3868               497.7188               505.0697
 Red. masses --      3.8370                 4.0129                 7.0345
 Frc consts  --      0.5002                 0.5857                 1.0573
 IR Inten    --      0.4357                 0.0207                 0.5544

                     22                     23                     24
                      A                      A                      A
 Frequencies --    552.8253               605.5746               663.4516
 Red. masses --      3.5754                 4.9225                 6.6092
 Frc consts  --      0.6438                 1.0636                 1.7140
 IR Inten    --     31.7071                 2.4682                23.1773

                     25                     26                     27
                      A                      A                      A
 Frequencies --    674.1908               701.5847               736.4787
 Red. masses --      4.4845                 6.3169                 4.7940
 Frc consts  --      1.2010                 1.8320                 1.5320
 IR Inten    --      0.0459                 0.0019                 0.4699

                     28                     29                     30
                      A                      A                      A
 Frequencies --    739.2814               756.1349               813.4635
 Red. masses --      1.9374                 5.6887                 2.1226
 Frc consts  --      0.6239                 1.9163                 0.8275
 IR Inten    --    103.6404                 0.0456                 6.8798

                     31                     32                     33
                      A                      A                      A
 Frequencies --    823.3872               840.9254               860.3486
 Red. masses --      5.2416                 1.3094                 6.4317
 Frc consts  --      2.0937                 0.5456                 2.8050
 IR Inten    --      0.8652                35.9025               101.7565

                     34                     35                     36
                      A                      A                      A
 Frequencies --    874.9767               912.7401               938.9206
 Red. masses --      6.1246                 1.4605                 6.0980
 Frc consts  --      2.7626                 0.7169                 3.1673
 IR Inten    --      2.0521                 0.1477                 1.2947

                     37                     38                     39
                      A                      A                      A
 Frequencies --    987.7791               991.2381               999.2912
 Red. masses --      1.8718                 1.3243                 1.3923
 Frc consts  --      1.0761                 0.7666                 0.8192
 IR Inten    --     62.9243                 0.0359                 5.7404

                     40                     41                     42
                      A                      A                      A
 Frequencies --   1021.3264              1048.4121              1048.9272
 Red. masses --      1.3292                 1.5502                 2.0017
 Frc consts  --      0.8169                 1.0039                 1.2976
 IR Inten    --      0.0216                 7.4235                16.3950

                     43                     44                     45
                      A                      A                      A
 Frequencies --   1053.4308              1057.0866              1090.5315
 Red. masses --      1.5636                 1.5653                 2.2379
 Frc consts  --      1.0223                 1.0305                 1.5681
 IR Inten    --      0.4873                12.4576                68.8904

                     46                     47                     48
                      A                      A                      A
 Frequencies --   1113.9292              1178.8925              1187.8994
 Red. masses --      2.2700                 1.1193                 2.6962
 Frc consts  --      1.6596                 0.9165                 2.2417
 IR Inten    --      0.0529                18.1121                26.3247

                     49                     50                     51
                      A                      A                      A
 Frequencies --   1204.8553              1220.0468              1254.8270
 Red. masses --      1.5352                 3.6478                 2.1748
 Frc consts  --      1.3130                 3.1992                 2.0176
 IR Inten    --      0.4925                 7.2028                23.3568

                     52                     53                     54
                      A                      A                      A
 Frequencies --   1270.5792              1276.4469              1320.3169
 Red. masses --      4.9336                 1.9178                 2.7447
 Frc consts  --      4.6927                 1.8411                 2.8191
 IR Inten    --    920.2880                 2.2322                 4.1692

                     55                     56                     57
                      A                      A                      A
 Frequencies --   1339.7211              1359.0362              1398.8692
 Red. masses --      6.9383                 7.7206                 2.7620
 Frc consts  --      7.3373                 8.4016                 3.1844
 IR Inten    --    293.8236                 0.8009                83.7308

                     58                     59                     60
                      A                      A                      A
 Frequencies --   1410.3089              1413.6649              1465.3588
 Red. masses --      1.2133                 1.3319                 1.1638
 Frc consts  --      1.4218                 1.5682                 1.4723
 IR Inten    --     13.4514                 9.0139                 1.3161

                     61                     62                     63
                      A                      A                      A
 Frequencies --   1468.3401              1472.7679              1479.0645
 Red. masses --      1.0485                 1.1945                 2.1730
 Frc consts  --      1.3319                 1.5266                 2.8008
 IR Inten    --     19.5517                 0.0438                 7.7690

                     64                     65                     66
                      A                      A                      A
 Frequencies --   1486.1778              1489.1409              1507.7019
 Red. masses --      1.3097                 1.8952                 2.5935
 Frc consts  --      1.7044                 2.4761                 3.4735
 IR Inten    --      8.8808                 4.6837                 8.6770

                     67                     68                     69
                      A                      A                      A
 Frequencies --   1583.1703              1615.6723              1620.9684
 Red. masses --      4.5879                 6.7114                 7.3321
 Frc consts  --      6.7751                10.3222                11.3508
 IR Inten    --    166.6164                 0.5599                19.2798

                     70                     71                     72
                      A                      A                      A
 Frequencies --   1622.9946              1689.9217              1693.6586
 Red. masses --      5.8504                11.5665                11.5755
 Frc consts  --      9.0797                19.4619                19.5633
 IR Inten    --    190.5903                43.9609               763.5794

                     73                     74                     75
                      A                      A                      A
 Frequencies --   3041.0210              3041.4477              3099.9460
 Red. masses --      1.0354                 1.0354                 1.0997
 Frc consts  --      5.6415                 5.6430                 6.2264
 IR Inten    --     40.7032                21.6278                 9.9422

                     76                     77                     78
                      A                      A                      A
 Frequencies --   3100.0932              3109.9957              3110.4312
 Red. masses --      1.0997                 1.1034                 1.1033
 Frc consts  --      6.2270                 6.2876                 6.2892
 IR Inten    --     21.9827                37.7221                49.7235

                     79                     80                     81
                      A                      A                      A
 Frequencies --   3166.5854              3177.1468              3181.8590
 Red. masses --      1.0876                 1.0874                 1.0949
 Frc consts  --      6.4257                 6.4674                 6.5313
 IR Inten    --     11.7237                 3.4711                38.5795

                     82                     83                     84
                      A                      A                      A
 Frequencies --   3189.6835              3203.1957              3206.0400
 Red. masses --      1.0916                 1.0925                 1.0952
 Frc consts  --      6.5434                 6.6045                 6.6324
 IR Inten    --     12.8676                 4.2439                19.6109

 - Thermochemistry -
 -------------------
 Temperature   298.150 Kelvin.  Pressure   1.00000 Atm.
 Atom     1 has atomic number  6 and mass  12.00000

 Molecular mass:   236.08373 amu.
 Principal axes and moments of inertia in atomic units:
                           1         2         3
     Eigenvalues --  2594.418264723.708107216.02385
           X            0.94010   0.34008  -0.02359
           Y           -0.33957   0.94030   0.02297
           Z            0.03000  -0.01358   0.99946
 This molecule is an asymmetric top.
 Rotational symmetry number  1.
 Warning -- assumption of classical behavior for rotation
           may cause significant error
 Rotational temperatures (Kelvin)      0.03338     0.01834     0.01200
 Rotational constants (GHZ):           0.69562     0.38206     0.25010
 Zero-point vibrational energy     614848.2 (Joules/Mol)
                                  146.95226 (Kcal/Mol)
 Warning -- explicit consideration of  23 degrees of freedom as
           vibrations may cause significant error
 Vibrational temperatures:     41.56    60.03   152.25   162.30   222.39
          (Kelvin)            294.92   325.09   328.91   339.31   449.83
                              452.05   455.58   523.78   562.65   574.66
                              613.38   615.11   670.93   676.78   716.11
                              726.68   795.39   871.29   954.56   970.01
                             1009.42  1059.63  1063.66  1087.91  1170.39
                             1184.67  1209.90  1237.85  1258.90  1313.23
                             1350.90  1421.19  1426.17  1437.76  1469.46
                             1508.43  1509.17  1515.65  1520.91  1569.03
                             1602.70  1696.16  1709.12  1733.52  1755.38
                             1805.42  1828.08  1836.52  1899.64  1927.56
                             1955.35  2012.66  2029.12  2033.95  2108.32
                             2112.61  2118.98  2128.04  2138.28  2142.54
                             2169.25  2277.83  2324.59  2332.21  2335.13
                             2431.42  2436.80  4375.35  4375.96  4460.13
                             4460.34  4474.59  4475.22  4556.01  4571.21
                             4577.99  4589.24  4608.68  4612.78

 Zero-point correction=                           0.234183 (Hartree/Particle)
 Thermal correction to Energy=                    0.248567
 Thermal correction to Enthalpy=                  0.249511
 Thermal correction to Gibbs Free Energy=         0.192536
 Sum of electronic and zero-point Energies=           -767.372867
 Sum of electronic and thermal Energies=              -767.358483
 Sum of electronic and thermal Enthalpies=            -767.357539
 Sum of electronic and thermal Free Energies=         -767.414514

                     E (Thermal)             CV                S
                      KCal/Mol        Cal/Mol-Kelvin    Cal/Mol-Kelvin
 Total                  155.978             57.402            119.915
 Electronic               0.000              0.000              0.000
 Translational            0.889              2.981             42.279
 Rotational               0.889              2.981             32.847
 Vibrational            154.201             51.440             44.789
 Vibration     1          0.593              1.984              5.904
 Vibration     2          0.594              1.981              5.176
 Vibration     3          0.605              1.945              3.344
 Vibration     4          0.607              1.939              3.220
 Vibration     5          0.620              1.898              2.615
 Vibration     6          0.640              1.833              2.088
 Vibration     7          0.650              1.801              1.911
 Vibration     8          0.651              1.797              1.890
 Vibration     9          0.655              1.786              1.834
 Vibration    10          0.701              1.650              1.348
 Vibration    11          0.702              1.647              1.340
 Vibration    12          0.704              1.642              1.327
 Vibration    13          0.738              1.546              1.105
 Vibration    14          0.759              1.489              0.996
 Vibration    15          0.765              1.471              0.965
 Vibration    16          0.788              1.413              0.871
 Vibration    17          0.789              1.410              0.867
 Vibration    18          0.824              1.325              0.748
 Vibration    19          0.827              1.316              0.736
 Vibration    20          0.853              1.255              0.664
 Vibration    21          0.860              1.239              0.646
 Vibration    22          0.908              1.134              0.538
 Vibration    23          0.964              1.020              0.440

 Optimization completed.
    -- Stationary point found.
 Normal termination of Gaussian 16 at Sun Feb 11 06:03:00 2024.
