 Gaussian 16, Revision A.03,
 Gaussian 16:  ES64L-G16RevA.03 25-Dec-2016

 --------------------------------------
 #P UB3LYP/6-311++G(d,p) nosym opt freq
 --------------------------------------

 -------
 Reduced
 -------
 Symbolic Z-matrix:
 Charge = -2 Multiplicity = 1

 SCF Done:  E(UB3LYP) =  -692.538765842     A.U. after   49 cycles
 Optimization completed.
    -- Stationary point found.
 Normal termination of Gaussian 16 at Sun Jan  7 20:30:46 2024.

 ----------------------------------------------------------------------
 #P Geom=AllCheck Guess=TCheck SCRF=Check GenChk UB3LYP/6-311++G(d,p) F
 req
 ----------------------------------------------------------------------

 Structure from the checkpoint file:  "256-an.chk"
 -------
 Reduced
 -------
 Charge = -2 Multiplicity = 1

                          Input orientation:
 ---------------------------------------------------------------------
 Center     Atomic      Atomic             Coordinates (Angstroms)
 Number     Number       Type             X           Y           Z
 ---------------------------------------------------------------------
      1          6           0       -1.528053    2.785601    0.007057
      2          6           0       -2.789874    2.214044   -0.018224
      3          6           0       -2.898417    0.789184   -0.016230
      4          6           0       -0.334905    2.028907    0.018810
      5          6           0       -0.443531    0.600354    0.005036
      6          6           0       -1.737449    0.033081   -0.012645
      7          6           0        0.958450    2.704942    0.036873
      8          6           0        2.096771    1.834032    0.047382
      9          6           0        1.989638    0.424914    0.033564
     10          6           0        0.732677   -0.263654    0.016037
     11          8           0        1.051048    3.990491    0.035845
     12          8           0        0.629622   -1.548413    0.016976
     13          6           0        3.455611    2.494542    0.059898
     14          6           0        3.232812   -0.433590    0.051240
     15          1           0       -1.413887    3.865776    0.025225
     16          6           0       -4.030812    3.079800    0.005097
     17          6           0       -4.255231    0.121247   -0.070768
     18          1           0        3.311417    3.577369    0.070376
     19          1           0        4.060297    2.229281   -0.822357
     20          1           0        4.054114    2.208824    0.938942
     21          1           0        3.887557   -0.243570   -0.813512
     22          1           0        2.926818   -1.482192    0.035935
     23          1           0        3.850395   -0.261039    0.947448
     24          1           0       -1.787834   -1.051953   -0.030071
     25          1           0       -3.766193    4.139546   -0.055197
     26          1           0       -4.625676    2.941331    0.925644
     27          1           0       -4.711263    2.860570   -0.824438
     28          1           0       -4.914552    0.443030    0.742215
     29          1           0       -4.155691   -0.966197   -0.005405
     30          1           0       -4.799730    0.345974   -1.005363
 ---------------------------------------------------------------------

 SCF Done:  E(UB3LYP) =  -692.538765842     A.U. after   11 cycles

 Alpha  occ. eigenvalues --  -18.78560 -18.78559  -9.95318  -9.95318  -9.94160
 Alpha  occ. eigenvalues --   -9.94158  -9.93591  -9.93548  -9.92450  -9.92449
 Alpha  occ. eigenvalues --   -9.91723  -9.91721  -9.90650  -9.90608  -9.90347
 Alpha  occ. eigenvalues --   -9.90300  -0.70187  -0.69805  -0.61087  -0.56023
 Alpha  occ. eigenvalues --   -0.53167  -0.52678  -0.48052  -0.46481  -0.46182
 Alpha  occ. eigenvalues --   -0.41040  -0.38559  -0.34681  -0.32117  -0.28996
 Alpha  occ. eigenvalues --   -0.25044  -0.22921  -0.22741  -0.21367  -0.19394
 Alpha  occ. eigenvalues --   -0.19207  -0.18573  -0.18483  -0.17316  -0.16114
 Alpha  occ. eigenvalues --   -0.16054  -0.14565  -0.14467  -0.14051  -0.13076
 Alpha  occ. eigenvalues --   -0.12809  -0.11851  -0.10275  -0.08341  -0.07890
 Alpha  occ. eigenvalues --   -0.07179  -0.07059   0.00434   0.01544   0.02604
 Alpha  occ. eigenvalues --    0.03485   0.04323   0.12992
 Alpha virt. eigenvalues --    0.14486   0.16011   0.16546   0.17877   0.18389
 Alpha virt. eigenvalues --    0.18830   0.19768   0.20391   0.20605   0.21050
 Alpha virt. eigenvalues --    0.21455   0.22139   0.22484   0.22600   0.23786

  Beta  occ. eigenvalues --  -18.78560 -18.78559  -9.95318  -9.95318  -9.94160
  Beta  occ. eigenvalues --   -9.94158  -9.93591  -9.93548  -9.92450  -9.92449
  Beta  occ. eigenvalues --   -9.91723  -9.91721  -9.90650  -9.90608  -9.90347
  Beta  occ. eigenvalues --   -9.90300  -0.70187  -0.69805  -0.61087  -0.56023
  Beta  occ. eigenvalues --   -0.53167  -0.52678  -0.48052  -0.46481  -0.46182
  Beta  occ. eigenvalues --   -0.41040  -0.38559  -0.34681  -0.32117  -0.28996
  Beta  occ. eigenvalues --   -0.25044  -0.22921  -0.22741  -0.21367  -0.19394
  Beta  occ. eigenvalues --   -0.19207  -0.18573  -0.18483  -0.17316  -0.16114
  Beta  occ. eigenvalues --   -0.16054  -0.14565  -0.14467  -0.14051  -0.13076
  Beta  occ. eigenvalues --   -0.12809  -0.11851  -0.10275  -0.08341  -0.07890
  Beta  occ. eigenvalues --   -0.07179  -0.07059   0.00434   0.01544   0.02604
  Beta  occ. eigenvalues --    0.03485   0.04323   0.12992
  Beta virt. eigenvalues --    0.14486   0.16011   0.16546   0.17877   0.18389
  Beta virt. eigenvalues --    0.18830   0.19768   0.20391   0.20605   0.21050
  Beta virt. eigenvalues --    0.21455   0.22139   0.22484   0.22600   0.23786

 Mulliken charges and spin densities:
               1          2
     1  C   -0.068477  -0.000000
     2  C   -0.895200  -0.000000
     3  C   -0.895289   0.000000
     4  C    0.431489  -0.000000
     5  C    0.431638   0.000000
     6  C   -0.068708   0.000000
     7  C   -1.105111   0.000000
     8  C    0.385654   0.000000
     9  C    0.385385   0.000000
    10  C   -1.105101   0.000000
    11  O   -0.494397  -0.000000
    12  O   -0.494408  -0.000000
    13  C   -0.525755  -0.000000
    14  C   -0.525861  -0.000000
    15  H    0.180725   0.000000
    16  C    1.377167   0.000000
    17  C    1.377071  -0.000000
    18  H    0.182657  -0.000000
    19  H    0.076317   0.000000
    20  H    0.085015   0.000000
    21  H    0.085032   0.000000
    22  H    0.182665  -0.000000
    23  H    0.076310  -0.000000
    24  H    0.180756  -0.000000
    25  H   -0.276322   0.000000
    26  H   -0.186284  -0.000000
    27  H   -0.167183  -0.000000
    28  H   -0.167472   0.000000
    29  H   -0.276566  -0.000000
    30  H   -0.185747   0.000000
 Sum of Mulliken charges =  -2.00000  -0.00000

 Dipole moment (field-independent basis, Debye):
    X=              5.6650    Y=            -12.7757    Z=             -0.0915  Tot=             13.9756
 Quadrupole moment (field-independent basis, Debye-Ang):
   XX=           -202.1609   YY=           -185.9512   ZZ=           -114.8404
   XY=              9.8231   XZ=             -0.9384   YZ=             -0.1456

  Exact polarizability:1715.641 -17.7291731.414  12.103 -44.728 483.925
 Approx polarizability:7172.009-462.5081132.186  78.611 -15.379 431.515

                      1                      2                      3
                      A                      A                      A
 Frequencies --     64.9441                66.0979                76.6809
 Red. masses --      3.7605                 1.1027                 3.3160
 Frc consts  --      0.0093                 0.0028                 0.0115
 IR Inten    --      2.2689                 0.3490                 0.0618

                      4                      5                      6
                      A                      A                      A
 Frequencies --    127.8874               132.1509               146.6142
 Red. masses --      2.5396                 1.3904                 2.3488
 Frc consts  --      0.0245                 0.0143                 0.0297
 IR Inten    --      1.3443                 4.0301                 0.6244

                      7                      8                      9
                      A                      A                      A
 Frequencies --    150.6528               185.2094               210.4903
 Red. masses --      1.1176                 4.0161                 1.4415
 Frc consts  --      0.0149                 0.0812                 0.0376
 IR Inten    --      1.5075                12.4792                11.9290

                     10                     11                     12
                      A                      A                      A
 Frequencies --    242.0455               242.7436               286.7105
 Red. masses --      1.9282                 3.3371                 2.7141
 Frc consts  --      0.0666                 0.1159                 0.1315
 IR Inten    --      3.3349                 0.4950                55.9560

                     13                     14                     15
                      A                      A                      A
 Frequencies --    310.9855               327.1147               346.0892
 Red. masses --      2.6416                 3.5050                 4.2220
 Frc consts  --      0.1505                 0.2210                 0.2980
 IR Inten    --      1.1216                13.0040                 6.6953

                     16                     17                     18
                      A                      A                      A
 Frequencies --    349.0944               361.1260               405.1868
 Red. masses --      5.5383                 4.9378                 6.3171
 Frc consts  --      0.3977                 0.3794                 0.6111
 IR Inten    --     51.7698                40.1630                21.7370

                     19                     20                     21
                      A                      A                      A
 Frequencies --    411.1578               463.6487               470.1102
 Red. masses --      6.7903                 3.2090                 3.7422
 Frc consts  --      0.6763                 0.4064                 0.4873
 IR Inten    --    204.0349                11.3612                 6.7181

                     22                     23                     24
                      A                      A                      A
 Frequencies --    493.9957               557.7884               560.1742
 Red. masses --      9.8106                 4.8186                 4.1382
 Frc consts  --      1.4106                 0.8833                 0.7651
 IR Inten    --    679.2525                 0.0140                55.5770

                     25                     26                     27
                      A                      A                      A
 Frequencies --    654.3542               675.7679               678.4242
 Red. masses --      4.2926                 5.4972                 4.3926
 Frc consts  --      1.0829                 1.4791                 1.1912
 IR Inten    --     41.1307                 0.9885                 3.9816

                     28                     29                     30
                      A                      A                      A
 Frequencies --    727.9761               745.0605               746.7503
 Red. masses --      5.9772                 4.4403                 4.0539
 Frc consts  --      1.8663                 1.4523                 1.3319
 IR Inten    --     25.1200                29.2040                40.6995

                     31                     32                     33
                      A                      A                      A
 Frequencies --    804.9116               911.1584               923.6424
 Red. masses --      5.0575                 2.5840                 1.3992
 Frc consts  --      1.9305                 1.2639                 0.7033
 IR Inten    --      0.2359                37.6542                 7.3845

                     34                     35                     36
                      A                      A                      A
 Frequencies --    923.9654               928.1502               989.0874
 Red. masses --      2.8767                 1.3981                 1.4651
 Frc consts  --      1.4470                 0.7096                 0.8445
 IR Inten    --      2.8922                 9.5453                62.0948

                     37                     38                     39
                      A                      A                      A
 Frequencies --   1015.5799              1020.7211              1025.7946
 Red. masses --      1.5178                 1.6324                 1.4008
 Frc consts  --      0.9223                 1.0020                 0.8685
 IR Inten    --     18.7281                17.1493                 2.3885

                     40                     41                     42
                      A                      A                      A
 Frequencies --   1045.1171              1047.3677              1048.6186
 Red. masses --      1.4959                 1.4880                 1.4100
 Frc consts  --      0.9627                 0.9617                 0.9135
 IR Inten    --      0.8281                 5.0947                14.6859

                     43                     44                     45
                      A                      A                      A
 Frequencies --   1094.9240              1110.0893              1137.3941
 Red. masses --      3.4888                 3.6953                 2.0148
 Frc consts  --      2.4643                 2.6829                 1.5357
 IR Inten    --     32.3720                28.4834                 2.6984

                     46                     47                     48
                      A                      A                      A
 Frequencies --   1194.0156              1213.4612              1236.2803
 Red. masses --      4.8737                 5.7367                 4.7184
 Frc consts  --      4.0939                 4.9770                 4.2489
 IR Inten    --     26.1223               484.7207               121.3906

                     49                     50                     51
                      A                      A                      A
 Frequencies --   1246.0212              1336.3889              1340.1925
 Red. masses --      1.4051                 5.6421                 1.3801
 Frc consts  --      1.2853                 5.9368                 1.4605
 IR Inten    --     92.0120              1986.1295                30.2513

                     52                     53                     54
                      A                      A                      A
 Frequencies --   1359.2814              1362.3300              1383.7120
 Red. masses --      1.5869                 2.0784                 2.0412
 Frc consts  --      1.7275                 2.2727                 2.3026
 IR Inten    --      6.3976               546.2013               925.7699

                     55                     56                     57
                      A                      A                      A
 Frequencies --   1400.9238              1412.3746              1434.8235
 Red. masses --      1.2888                 3.4510                 3.6170
 Frc consts  --      1.4902                 4.0560                 4.3873
 IR Inten    --    251.4385              1008.0428               462.5710

                     58                     59                     60
                      A                      A                      A
 Frequencies --   1457.3139              1460.5966              1467.7472
 Red. masses --      3.1108                 1.7047                 1.1424
 Frc consts  --      3.8924                 2.1426                 1.4500
 IR Inten    --   1068.4464               252.8591               108.9057

                     61                     62                     63
                      A                      A                      A
 Frequencies --   1477.1930              1479.7627              1484.5077
 Red. masses --      1.2819                 1.1063                 1.4961
 Frc consts  --      1.6480                 1.4273                 1.9425
 IR Inten    --     49.0601               206.4867                12.6405

                     64                     65                     66
                      A                      A                      A
 Frequencies --   1484.8662              1495.4020              1499.7350
 Red. masses --      1.1498                 1.0717                 1.6335
 Frc consts  --      1.4936                 1.4120                 2.1646
 IR Inten    --      0.8554               160.6484              1485.7185

                     67                     68                     69
                      A                      A                      A
 Frequencies --   1501.3536              1503.1393              1550.4180
 Red. masses --      1.0670                 2.4263                 6.6575
 Frc consts  --      1.4171                 3.2299                 9.4289
 IR Inten    --      2.0929                29.7024              3068.2294

                     70                     71                     72
                      A                      A                      A
 Frequencies --   1614.9373              2912.7744              2915.2506
 Red. masses --      6.1422                 1.0641                 1.0637
 Frc consts  --      9.4380                 5.3193                 5.3265
 IR Inten    --     61.5551                 7.2369               381.2447

                     73                     74                     75
                      A                      A                      A
 Frequencies --   2931.4772              2932.9200              2943.6292
 Red. masses --      1.0890                 1.0445                 1.0495
 Frc consts  --      5.5138                 5.2937                 5.3579
 IR Inten    --    778.4959                30.4826              1460.6980

                     76                     77                     78
                      A                      A                      A
 Frequencies --   2957.1021              3019.4739              3022.9462
 Red. masses --      1.0957                 1.0702                 1.0691
 Frc consts  --      5.6452                 5.7486                 5.7559
 IR Inten    --    215.3462               610.7041               298.1011

                     79                     80                     81
                      A                      A                      A
 Frequencies --   3066.9749              3068.0043              3078.8611
 Red. masses --      1.0986                 1.0986                 1.0912
 Frc consts  --      6.0887                 6.0926                 6.0945
 IR Inten    --     56.8876                54.8526                20.3040

                     82                     83                     84
                      A                      A                      A
 Frequencies --   3079.3906              3146.9777              3149.5294
 Red. masses --      1.0908                 1.0882                 1.0884
 Frc consts  --      6.0944                 6.3494                 6.3610
 IR Inten    --     24.0475                82.1592                66.5819

 - Thermochemistry -
 -------------------
 Temperature   298.150 Kelvin.  Pressure   1.00000 Atm.
 Atom     1 has atomic number  6 and mass  12.00000

 Molecular mass:   214.09938 amu.
 Principal axes and moments of inertia in atomic units:
                           1         2         3
     Eigenvalues --  1942.995644629.511586527.78145
           X            0.99704   0.07583  -0.01230
           Y           -0.07592   0.99709  -0.00645
           Z            0.01178   0.00736   0.99990
 This molecule is an asymmetric top.
 Rotational symmetry number  1.
 Warning -- assumption of classical behavior for rotation
           may cause significant error
 Rotational temperatures (Kelvin)      0.04458     0.01871     0.01327
 Rotational constants (GHZ):           0.92884     0.38983     0.27647
 Zero-point vibrational energy     621254.5 (Joules/Mol)
                                  148.48339 (Kcal/Mol)
 Warning -- explicit consideration of  24 degrees of freedom as
           vibrations may cause significant error
 Vibrational temperatures:     93.44    95.10   110.33   184.00   190.14
          (Kelvin)            210.95   216.76   266.47   302.85   348.25
                              349.25   412.51   447.44   470.65   497.95
                              502.27   519.58   582.97   591.56   667.09
                              676.38   710.75   802.53   805.97   941.47
                              972.28   976.10  1047.40  1071.98  1074.41
                             1158.09  1310.95  1328.92  1329.38  1335.40
                             1423.08  1461.19  1468.59  1475.89  1503.69
                             1506.93  1508.73  1575.35  1597.17  1636.46
                             1717.92  1745.90  1778.73  1792.75  1922.77
                             1928.24  1955.70  1960.09  1990.85  2015.62
                             2032.09  2064.39  2096.75  2101.47  2111.76
                             2125.35  2129.05  2135.88  2136.39  2151.55
                             2157.78  2160.11  2162.68  2230.71  2323.53
                             4190.83  4194.40  4217.74  4219.82  4235.23
                             4254.61  4344.35  4349.35  4412.69  4414.17
                             4429.79  4430.56  4527.80  4531.47

 Zero-point correction=                           0.236623 (Hartree/Particle)
 Thermal correction to Energy=                    0.252062
 Thermal correction to Enthalpy=                  0.253007
 Thermal correction to Gibbs Free Energy=         0.194768
 Sum of electronic and zero-point Energies=           -692.302142
 Sum of electronic and thermal Energies=              -692.286703
 Sum of electronic and thermal Enthalpies=            -692.285759
 Sum of electronic and thermal Free Energies=         -692.343998

                     E (Thermal)             CV                S
                      KCal/Mol        Cal/Mol-Kelvin    Cal/Mol-Kelvin
 Total                  158.172             58.873            122.574
 Electronic               0.000              0.000              0.000
 Translational            0.889              2.981             41.987
 Rotational               0.889              2.981             32.440
 Vibrational            156.394             52.911             48.146
 Vibration     1          0.597              1.971              4.301
 Vibration     2          0.597              1.970              4.266
 Vibration     3          0.599              1.965              3.974
 Vibration     4          0.611              1.925              2.978
 Vibration     5          0.612              1.921              2.915
 Vibration     6          0.617              1.906              2.716
 Vibration     7          0.618              1.902              2.664
 Vibration     8          0.631              1.860              2.275
 Vibration     9          0.643              1.825              2.039
 Vibration    10          0.658              1.776              1.788
 Vibration    11          0.659              1.775              1.783
 Vibration    12          0.684              1.698              1.493
 Vibration    13          0.700              1.653              1.357
 Vibration    14          0.711              1.621              1.274
 Vibration    15          0.724              1.583              1.184
 Vibration    16          0.726              1.577              1.170
 Vibration    17          0.735              1.552              1.117
 Vibration    18          0.770              1.459              0.944
 Vibration    19          0.775              1.446              0.923
 Vibration    20          0.821              1.331              0.756
 Vibration    21          0.827              1.316              0.737
 Vibration    22          0.850              1.263              0.673
 Vibration    23          0.913              1.123              0.528
 Vibration    24          0.916              1.117              0.523

 Optimization completed.
    -- Stationary point found.
 Normal termination of Gaussian 16 at Sun Jan  7 21:38:29 2024.
