 Q-Chem 5.4, Q-Chem, Inc., Pleasanton, CA (2021)
 Q-Chem 5.4.0 for Intel X86 EM64T Linux

User input:
--------------------------------------------------------------
$molecule
-2 1
C                 -1.5280530000      2.7856010000      0.0070570000
C                 -2.7898740000      2.2140440000     -0.0182240000
C                 -2.8984170000      0.7891840000     -0.0162300000
C                 -0.3349050000      2.0289070000      0.0188100000
C                 -0.4435310000      0.6003540000      0.0050360000
C                 -1.7374490000      0.0330810000     -0.0126450000
C                  0.9584500000      2.7049420000      0.0368730000
C                  2.0967710000      1.8340320000      0.0473820000
C                  1.9896380000      0.4249140000      0.0335640000
C                  0.7326770000     -0.2636540000      0.0160370000
O                  1.0510480000      3.9904910000      0.0358450000
O                  0.6296220000     -1.5484130000      0.0169760000
C                  3.4556110000      2.4945420000      0.0598980000
C                  3.2328120000     -0.4335900000      0.0512400000
H                 -1.4138870000      3.8657760000      0.0252250000
C                 -4.0308120000      3.0798000000      0.0050970000
C                 -4.2552310000      0.1212470000     -0.0707680000
H                  3.3114170000      3.5773690000      0.0703760000
H                  4.0602970000      2.2292810000     -0.8223570000
H                  4.0541140000      2.2088240000      0.9389420000
H                  3.8875570000     -0.2435700000     -0.8135120000
H                  2.9268180000     -1.4821920000      0.0359350000
H                  3.8503950000     -0.2610390000      0.9474480000
H                 -1.7878340000     -1.0519530000     -0.0300710000
H                 -3.7661930000      4.1395460000     -0.0551970000
H                 -4.6256760000      2.9413310000      0.9256440000
H                 -4.7112630000      2.8605700000     -0.8244380000
H                 -4.9145520000      0.4430300000      0.7422150000
H                 -4.1556910000     -0.9661970000     -0.0054050000
H                 -4.7997300000      0.3459740000     -1.0053630000
$end
$rem
MAX_SCF_CYCLES=200
BASIS  =  6-311++G(d,p)
GUI  =  2
JOB_TYPE  =  SP
METHOD  =  B3LYP
SOLVENT_METHOD = COSMO
$end
$solvent
dielectric 37.219
opticaldielectric 1.43
$end

--------------------------------------------------------------

             Standard Nuclear Orientation (Angstroms)
    I     Atom           X                Y                Z
 ----------------------------------------------------------------
    1      C       1.3916354284    -1.3802471730    -0.0009097885
    2      C       2.6066349630    -0.7144751556    -0.0066125144
    3      C       2.6066645315     0.7144525790     0.0066956377
    4      C       0.1444302155    -0.7163195732     0.0014122359
    5      C       0.1444478696     0.7164215384    -0.0010191474
    6      C       1.3916852714     1.3802956295     0.0012435434
    7      C      -1.0939936107    -1.4885994654    -0.0012229234
    8      C      -2.2951899860    -0.7066211351     0.0013315125
    9      C      -2.2951849808     0.7066286795    -0.0012983474
   10      C      -1.0940053623     1.4886412574     0.0015112849
   11      O      -1.0887125623    -2.7774202500    -0.0123931296
   12      O      -1.0887992928     2.7774679537     0.0127160400
   13      C      -3.6000185522    -1.4683427333    -0.0075496848
   14      C      -3.6000670747     1.4682298377     0.0070413246
   15      H       1.3595950598    -2.4660790397     0.0082855632
   16      C       3.9093554157    -1.4838013171     0.0259623200
   17      C       3.9094041198     1.4837586172    -0.0264139487
   18      H      -3.3741705646    -2.5371677082    -0.0028731997
   19      H      -4.2126653593    -1.2427197974    -0.8953225286
   20      H      -4.2287950765    -1.2357972690     0.8660186639
   21      H      -4.2282681087     1.2359624730    -0.8670353133
   22      H      -3.3744024457     2.5371033937     0.0028553837
   23      H      -4.2132795500     1.2422573815     0.8943283683
   24      H       1.3597555199     2.4661302501    -0.0079631137
   25      H       3.7266797854    -2.5600506591    -0.0450104507
   26      H       4.4811088897    -1.3079171478     0.9547283539
   27      H       4.5809212750    -1.2070465439    -0.7935556875
   28      H       4.5816311306     1.2064693180     0.7923725491
   29      H       3.7268345437     2.5599726558     0.0453264132
   30      H       4.4803602513     1.3083715483    -0.9557673107
 ----------------------------------------------------------------

   20    -692.5387787129      8.41e-06  Convergence criterion met
 Total energy in the final basis set =     -692.5387787129
    6    -692.8198309722      3.94e-06  Convergence criterion met
 Total energy in the final basis set =     -692.8198309722

                    Orbital Energies (a.u.)
 --------------------------------------------------------------

 Alpha MOs
 -- Occupied --
-19.0154 -19.0154 -10.1638 -10.1638 -10.1531 -10.1527 -10.1502 -10.1502
-10.1379 -10.1379 -10.1316 -10.1316 -10.1303 -10.1299 -10.1213 -10.1208
 -0.9347  -0.9315  -0.8302  -0.7790  -0.7463  -0.7386  -0.6935  -0.6782
 -0.6728  -0.6225  -0.6048  -0.5646  -0.5374  -0.5107  -0.4687  -0.4436
 -0.4426  -0.4150  -0.4091  -0.4027  -0.3981  -0.3897  -0.3821  -0.3690
 -0.3686  -0.3648  -0.3588  -0.3578  -0.3540  -0.3454  -0.3424  -0.3205
 -0.3141  -0.3013  -0.2960  -0.2959  -0.2221  -0.2176  -0.2011  -0.1958
 -0.1905  -0.1067

          Ground-State Mulliken Net Atomic Charges

     Atom                 Charge (a.u.)
  ----------------------------------------
      1 C                    -0.205264
      2 C                     0.307664
      3 C                     0.307906
      4 C                     0.082399
      5 C                     0.084217
      6 C                    -0.203859
      7 C                    -0.709264
      8 C                     0.261162
      9 C                     0.259240
     10 C                    -0.707938
     11 O                    -0.738441
     12 O                    -0.738445
     13 C                    -0.492221
     14 C                    -0.492583
     15 H                     0.114973
     16 C                    -0.540938
     17 C                    -0.541172
     18 H                     0.169117
     19 H                     0.134175
     20 H                     0.132946
     21 H                     0.133001
     22 H                     0.169019
     23 H                     0.134166
     24 H                     0.115039
     25 H                     0.170582
     26 H                     0.161306
     27 H                     0.150727
     28 H                     0.150628
     29 H                     0.170547
     30 H                     0.161315
  ----------------------------------------
  Sum of atomic charges =    -2.000000

                    Cartesian Multipole Moments
 -----------------------------------------------------------------
    Charge (ESU x 10^10)
                -9.6064
    Dipole Moment (Debye)
         X       9.0790      Y       0.0028      Z      -0.0019
       Tot       9.0790
    Quadrupole Moments (Debye-Ang)
        XX    -119.5655     XY       0.0062     YY    -166.1343
        XZ      -0.0009     YZ      -0.3970     ZZ    -106.6545

 Total job time:  120.69s(wall), 761.59s(cpu)
        *  Thank you very much for using Q-Chem.  Have a nice day.  *
