 Gaussian 16, Revision A.03,
 Gaussian 16:  ES64L-G16RevA.03 25-Dec-2016

 ----------------------------------------------------------------
 #P UB3LYP/6-311++G(d,p) SCRF=(PCM,Solvent=n,n-DiMethylFormamide)
 ----------------------------------------------------------------

 ------------------
 Radical PCM in DMF
 ------------------
 Symbolic Z-matrix:
 Charge = -1 Multiplicity = 2

                         Standard orientation:
 ---------------------------------------------------------------------
 Center     Atomic      Atomic             Coordinates (Angstroms)
 Number     Number       Type             X           Y           Z
 ---------------------------------------------------------------------
      1          6           0       -6.836631   -0.963346   -1.280060
      2          6           0       -7.333989   -2.159387   -0.796856
      3          6           0       -6.699624   -2.801743    0.285434
      4          6           0       -5.693999   -0.369207   -0.702095
      5          6           0       -5.051424   -1.017107    0.391641
      6          6           0       -5.576772   -2.232466    0.863870
      7          6           0       -5.174341    0.883678   -1.209157
      8          6           0       -4.001954    1.413153   -0.552710
      9          6           0       -3.361626    0.816317    0.512602
     10          6           0       -3.851162   -0.440992    1.034314
     11          8           0       -5.669047    1.545843   -2.179387
     12          8           0       -3.286658   -1.023918    1.996648
     13          8           0       -3.565724    2.592525   -1.083668
     14          1           0       -7.307139   -0.450690   -2.111461
     15          1           0       -8.213967   -2.605306   -1.251365
     16          1           0       -7.090863   -3.741348    0.663890
     17          1           0       -5.068200   -2.705214    1.696452
     18          1           0       -4.223043    2.747814   -1.798032
     19          6           0       -2.142179    1.434372    1.145760
     20          6           0       -0.827964    0.887724    0.551940
     21          6           0        0.446789    1.377275    1.279416
     22          6           0        1.681448    0.643177    0.781404
     23          6           0        2.160624    0.814792   -0.525224
     24          6           0        2.371112   -0.246038    1.612895
     25          6           0        3.287963    0.136506   -0.981268
     26          6           0        3.958192   -0.729693   -0.123506
     27          6           0        3.502690   -0.932654    1.172265
     28          1           0       -2.159729    1.202438    2.215912
     29          1           0       -2.185431    2.519516    1.023693
     30          1           0       -0.771487    1.157408   -0.509354
     31          1           0       -0.860118   -0.204178    0.603139
     32          1           0        0.329663    1.118108    2.338773
     33          6           0        0.630221    2.904736    1.193675
     34          1           0        1.639751    1.480142   -1.204559
     35          1           0        2.010200   -0.413397    2.622494
     36          1           0        4.025708   -1.626141    1.820743
     37          8           0        5.050199   -1.463920   -0.592891
     38          6           0        6.310135   -0.925997   -0.528882
     39          6           0        6.600398    0.322873    0.024653
     40          6           0        7.337408   -1.715011   -1.057840
     41          6           0        8.647741   -1.253033   -1.031858
     42          6           0        7.921421    0.772166    0.042547
     43          6           0        8.950704   -0.005492   -0.481597
     44          1           0        3.646073    0.266687   -1.996161
     45          1           0       -0.209088    3.423263    1.661310
     46          1           0        0.684549    3.241154    0.153678
     47          1           0        1.548498    3.219924    1.698949
     48          1           0        5.806411    0.933261    0.434133
     49          1           0        7.085552   -2.679897   -1.481506
     50          1           0        9.437612   -1.871346   -1.444741
     51          1           0        8.140319    1.743258    0.473520
     52          1           0        9.973469    0.352702   -0.463310
 ---------------------------------------------------------------------

 SCF Done:  E(UB3LYP) =  -1305.42026521     A.U. after   21 cycles

 The electronic state is 2-A.
 Alpha  occ. eigenvalues --  -19.16952 -19.14315 -19.08549 -19.07353 -10.24612
 Alpha  occ. eigenvalues --  -10.23879 -10.22258 -10.22087 -10.22022 -10.18519
 Alpha  occ. eigenvalues --  -10.18295 -10.18291 -10.18269 -10.18243 -10.18065
 Alpha  occ. eigenvalues --  -10.18047 -10.17937 -10.17816 -10.17816 -10.17474
 Alpha  occ. eigenvalues --  -10.17435 -10.17270 -10.17212 -10.17158 -10.17082
 Alpha  occ. eigenvalues --  -10.16935 -10.16219 -10.16160 -10.15945 -10.15722
 Alpha  occ. eigenvalues --   -1.08799  -1.06298  -0.99905  -0.99551  -0.87423
 Alpha  occ. eigenvalues --   -0.86012  -0.85830  -0.81816  -0.80212  -0.76962
 Alpha  occ. eigenvalues --   -0.75860  -0.75754  -0.75353  -0.75052  -0.72679
 Alpha  occ. eigenvalues --   -0.70797  -0.67316  -0.65402  -0.63593  -0.62616
 Alpha  occ. eigenvalues --   -0.61898  -0.61575  -0.59865  -0.58365  -0.56958
 Alpha  occ. eigenvalues --   -0.56331  -0.55530  -0.53653  -0.51087  -0.50459
 Alpha  occ. eigenvalues --   -0.49325  -0.48629  -0.48284  -0.47623  -0.46310
 Alpha  occ. eigenvalues --   -0.45360  -0.45270  -0.44904  -0.44074  -0.43701
 Alpha  occ. eigenvalues --   -0.43196  -0.43048  -0.42677  -0.42411  -0.41713
 Alpha  occ. eigenvalues --   -0.41566  -0.41125  -0.40407  -0.39662  -0.38934
 Alpha  occ. eigenvalues --   -0.38842  -0.38311  -0.37663  -0.37295  -0.36954
 Alpha  occ. eigenvalues --   -0.36710  -0.36181  -0.35176  -0.34883  -0.34460
 Alpha  occ. eigenvalues --   -0.34260  -0.33814  -0.33681  -0.32914  -0.32404
 Alpha  occ. eigenvalues --   -0.31908  -0.26891  -0.26699  -0.26370  -0.25950
 Alpha  occ. eigenvalues --   -0.25758  -0.24965  -0.23862  -0.23680  -0.22697
 Alpha  occ. eigenvalues --   -0.15048
 Alpha virt. eigenvalues --   -0.03267  -0.03014  -0.01828  -0.01560  -0.00920
 Alpha virt. eigenvalues --   -0.00863  -0.00563  -0.00236   0.00398   0.00654
 Alpha virt. eigenvalues --    0.01141   0.01324   0.01758   0.01873   0.02656

  Beta  occ. eigenvalues --  -19.16952 -19.14268 -19.07919 -19.06822 -10.24612
  Beta  occ. eigenvalues --  -10.23879 -10.22126 -10.21984 -10.21737 -10.18519
  Beta  occ. eigenvalues --  -10.18295 -10.18291 -10.18269 -10.18243 -10.18065
  Beta  occ. eigenvalues --  -10.18046 -10.17937 -10.17816 -10.17815 -10.17474
  Beta  occ. eigenvalues --  -10.17419 -10.17266 -10.17102 -10.17072 -10.17032
  Beta  occ. eigenvalues --  -10.16959 -10.16151 -10.16139 -10.15951 -10.15722
  Beta  occ. eigenvalues --   -1.08799  -1.06081  -0.98978  -0.98485  -0.87422
  Beta  occ. eigenvalues --   -0.86011  -0.85596  -0.81706  -0.79959  -0.76862
  Beta  occ. eigenvalues --   -0.75859  -0.75735  -0.75238  -0.74855  -0.72631
  Beta  occ. eigenvalues --   -0.70675  -0.66648  -0.65226  -0.63488  -0.62616
  Beta  occ. eigenvalues --   -0.61880  -0.61410  -0.59734  -0.58253  -0.56746
  Beta  occ. eigenvalues --   -0.56276  -0.55530  -0.53480  -0.51072  -0.50262
  Beta  occ. eigenvalues --   -0.49299  -0.48443  -0.48281  -0.47537  -0.46153
  Beta  occ. eigenvalues --   -0.45333  -0.45208  -0.44901  -0.43984  -0.43219
  Beta  occ. eigenvalues --   -0.43135  -0.42982  -0.42557  -0.42008  -0.41491
  Beta  occ. eigenvalues --   -0.41099  -0.40973  -0.40296  -0.39491  -0.38741
  Beta  occ. eigenvalues --   -0.38235  -0.37734  -0.37483  -0.37294  -0.36778
  Beta  occ. eigenvalues --   -0.36508  -0.35671  -0.34850  -0.34509  -0.34398
  Beta  occ. eigenvalues --   -0.33751  -0.33579  -0.32838  -0.32704  -0.32269
  Beta  occ. eigenvalues --   -0.31848  -0.26891  -0.26370  -0.25404  -0.25086
  Beta  occ. eigenvalues --   -0.24904  -0.24712  -0.23682  -0.23366  -0.21819
  Beta virt. eigenvalues --   -0.08520  -0.03014  -0.02519  -0.01800  -0.01554
  Beta virt. eigenvalues --   -0.00918  -0.00693  -0.00228   0.00263   0.00491
  Beta virt. eigenvalues --    0.00670   0.01144   0.01336   0.01766   0.01881

 Mulliken charges and spin densities:
               1          2
     1  C    0.046177   0.074125
     2  C   -0.417684  -0.000184
     3  C   -0.478689   0.071994
     4  C    0.285206  -0.008701
     5  C    0.185741   0.067337
     6  C    0.079004   0.000825
     7  C   -0.912658   0.172024
     8  C   -0.722706   0.056098
     9  C    2.107506   0.045820
    10  C   -0.834025   0.078012
    11  O   -0.521358   0.230040
    12  O   -0.449827   0.196996
    13  O   -0.266605   0.016468
    14  H    0.169747  -0.003992
    15  H    0.181093  -0.000604
    16  H    0.179369  -0.005154
    17  H    0.168197  -0.000169
    18  H    0.286840  -0.003659
    19  C   -0.282989   0.010255
    20  C   -1.042480  -0.002000
    21  C    0.204793   0.005988
    22  C    0.744650  -0.003266
    23  C   -0.315210  -0.001400
    24  C   -0.239125   0.000842
    25  C   -0.030066   0.000746
    26  C   -0.371982   0.000473
    27  C   -0.063415  -0.000022
    28  H    0.187708   0.002847
    29  H    0.255490  -0.001088
    30  H    0.175345   0.003260
    31  H    0.196002  -0.002222
    32  H    0.204231   0.000347
    33  C   -0.744946  -0.002069
    34  H    0.191311  -0.000072
    35  H    0.181503  -0.000053
    36  H    0.212473   0.000004
    37  O   -0.055432   0.000003
    38  C   -0.263149  -0.000079
    39  C    0.098175   0.000026
    40  C   -0.241008   0.000029
    41  C   -0.208261   0.000004
    42  C   -0.153799   0.000015
    43  C   -0.331767   0.000008
    44  H    0.204723  -0.000029
    45  H    0.138880  -0.000087
    46  H    0.165239   0.000029
    47  H    0.152519   0.000224
    48  H    0.176124   0.000015
    49  H    0.186143  -0.000000
    50  H    0.197004  -0.000000
    51  H    0.215639  -0.000001
    52  H    0.170349   0.000000
 Sum of Mulliken charges =  -1.00000   1.00000

 Dipole moment (field-independent basis, Debye):
    X=             19.0759    Y=              0.0422    Z=              0.8204  Tot=             19.0936
 Quadrupole moment (field-independent basis, Debye-Ang):
   XX=           -277.1755   YY=           -188.2047   ZZ=           -196.1215
   XY=             17.0522   XZ=             -8.4097   YZ=             10.8569

 Normal termination of Gaussian 16 at Thu Jan 25 05:59:25 2024.
