 Q-Chem 5.4, Q-Chem, Inc., Pleasanton, CA (2021)
 Q-Chem 5.4.0 for Intel X86 EM64T Linux

User input:
--------------------------------------------------------------
$molecule
-1 2
O                 -0.0165510000     -2.5100930000     -0.5255080000
C                 -0.0087080000     -1.2943520000     -0.1718510000
C                  1.2479460000     -0.6011710000      0.0973220000
C                  2.4489960000     -1.3562990000      0.1139550000
C                  3.6582870000     -0.7925120000      0.4712000000
C                  3.7376970000      0.5659050000      0.8331180000
C                  2.5823930000      1.3374470000      0.7957940000
C                  1.3562390000      0.7759570000      0.4284660000
S                  0.0116320000      1.9500920000      0.2167800000
O                  0.0123970000      2.4469790000     -1.2326950000
C                 -1.3464670000      0.7923930000      0.4327250000
C                 -2.5645070000      1.3687850000      0.8039300000
C                 -3.7290520000      0.6114210000      0.8447230000
C                 -3.6673900000     -0.7477780000      0.4823440000
C                 -2.4661830000     -1.3262780000      0.1213120000
C                 -1.2560210000     -0.5859200000      0.1011220000
H                  2.3689760000     -2.4038670000     -0.1510960000
H                  4.5554010000     -1.4051320000      0.4788090000
H                  4.6850230000      1.0091390000      1.1208480000
H                  2.6242680000      2.3957250000      1.0373940000
H                 -2.5927190000      2.4274510000      1.0458100000
H                 -4.6699700000      1.0661780000      1.1354930000
H                 -4.5719050000     -1.3493790000      0.4925720000
H                 -2.3997830000     -2.3746930000     -0.1441140000
$end

$rem
BASIS  =  6-311++G(d,p)
GUI  =  2
JOB_TYPE  =  SP
METHOD  =  B3LYP
SCF_CONVERGENCE  = 8
SOLVENT_METHOD = sm12
$end

$smx
solvent dimethylformamide
charges CM5
$end

--------------------------------------------------------------

             Standard Nuclear Orientation (Angstroms)
    I     Atom           X                Y                Z
 ----------------------------------------------------------------
    1      O      -0.0165510000    -2.5100930000    -0.5255080000
    2      C      -0.0087080000    -1.2943520000    -0.1718510000
    3      C       1.2479460000    -0.6011710000     0.0973220000
    4      C       2.4489960000    -1.3562990000     0.1139550000
    5      C       3.6582870000    -0.7925120000     0.4712000000
    6      C       3.7376970000     0.5659050000     0.8331180000
    7      C       2.5823930000     1.3374470000     0.7957940000
    8      C       1.3562390000     0.7759570000     0.4284660000
    9      S       0.0116320000     1.9500920000     0.2167800000
   10      O       0.0123970000     2.4469790000    -1.2326950000
   11      C      -1.3464670000     0.7923930000     0.4327250000
   12      C      -2.5645070000     1.3687850000     0.8039300000
   13      C      -3.7290520000     0.6114210000     0.8447230000
   14      C      -3.6673900000    -0.7477780000     0.4823440000
   15      C      -2.4661830000    -1.3262780000     0.1213120000
   16      C      -1.2560210000    -0.5859200000     0.1011220000
   17      H       2.3689760000    -2.4038670000    -0.1510960000
   18      H       4.5554010000    -1.4051320000     0.4788090000
   19      H       4.6850230000     1.0091390000     1.1208480000
   20      H       2.6242680000     2.3957250000     1.0373940000
   21      H      -2.5927190000     2.4274510000     1.0458100000
   22      H      -4.6699700000     1.0661780000     1.1354930000
   23      H      -4.5719050000    -1.3493790000     0.4925720000
   24      H      -2.3997830000    -2.3746930000    -0.1441140000
 ----------------------------------------------------------------

   18   -1049.0333557439      6.59e-09  Convergence criterion met
 Total energy in the final basis set =    -1049.1252132531

                    Orbital Energies (a.u.)
 --------------------------------------------------------------

 Alpha MOs
 -- Occupied --
-88.9497 -19.0788 -19.0691 -10.2182 -10.2032 -10.2032 -10.1921 -10.1921
-10.1875 -10.1875 -10.1859 -10.1859 -10.1831 -10.1831 -10.1793 -10.1793
 -8.0251  -5.9877  -5.9867  -5.9812  -1.0037  -0.9931  -0.8741  -0.8656
 -0.7979  -0.7719  -0.7635  -0.7532  -0.7007  -0.6545  -0.6274  -0.6038
 -0.5921  -0.5533  -0.5383  -0.4947  -0.4759  -0.4725  -0.4687  -0.4453
 -0.4387  -0.4288  -0.4254  -0.4212  -0.4050  -0.3876  -0.3819  -0.3811
 -0.3629  -0.3578  -0.3546  -0.3491  -0.2828  -0.2798  -0.2674  -0.2670
 -0.2586  -0.2396  -0.2357  -0.1378

 Beta MOs
 -- Occupied --
-88.9497 -19.0778 -19.0620 -10.2155 -10.2017 -10.2017 -10.1928 -10.1928
-10.1871 -10.1871 -10.1862 -10.1862 -10.1813 -10.1813 -10.1783 -10.1783
 -8.0251  -5.9877  -5.9867  -5.9812  -1.0009  -0.9805  -0.8715  -0.8639
 -0.7948  -0.7681  -0.7619  -0.7506  -0.6975  -0.6504  -0.6244  -0.6029
 -0.5896  -0.5507  -0.5369  -0.4923  -0.4748  -0.4703  -0.4680  -0.4440
 -0.4381  -0.4253  -0.4237  -0.4129  -0.4003  -0.3851  -0.3778  -0.3729
 -0.3621  -0.3561  -0.3495  -0.3356  -0.2802  -0.2724  -0.2622  -0.2533
 -0.2472  -0.2346  -0.2331

          Ground-State Mulliken Net Atomic Charges

     Atom                 Charge (a.u.)    Spin (a.u.)
  --------------------------------------------------------
      1 O                    -0.364047       0.271343
      2 C                    -2.025301       0.163130
      3 C                    -0.739310      -0.005404
      4 C                    -0.371575       0.115840
      5 C                     0.760292      -0.021356
      6 C                     1.149376       0.136193
      7 C                     0.627642      -0.050688
      8 C                    -1.617077       0.100453
      9 S                    -0.020701       0.039804
     10 O                    -0.437499      -0.000367
     11 C                    -1.617901       0.100425
     12 C                     0.627874      -0.050700
     13 C                     1.149348       0.136224
     14 C                     0.760491      -0.021359
     15 C                    -0.371758       0.115839
     16 C                    -0.739370      -0.005392
     17 H                     0.145223      -0.007328
     18 H                     0.339162       0.001050
     19 H                     0.367271      -0.009573
     20 H                     0.263113       0.003858
     21 H                     0.263107       0.003860
     22 H                     0.367271      -0.009574
     23 H                     0.339182       0.001050
     24 H                     0.145186      -0.007328
  --------------------------------------------------------
  Sum of atomic charges =    -1.000000

                    Cartesian Multipole Moments
 -----------------------------------------------------------------
    Charge (ESU x 10^10)
                -4.8032
    Dipole Moment (Debye)
         X       0.0137      Y       0.9295      Z       3.5557
       Tot       3.6752
    Quadrupole Moments (Debye-Ang)
        XX    -102.0657     XY      -0.1470     YY    -127.8560
        XZ       0.0168     YZ       6.3214     ZZ    -114.6052

 Total job time:  541.52s(wall), 3865.79s(cpu)
        *  Thank you very much for using Q-Chem.  Have a nice day.  *
