 Gaussian 16, Revision A.03,
 Gaussian 16:  ES64L-G16RevA.03 25-Dec-2016

 ----------------------------------------------------------------------
 #P UB3LYP/6-311++G(d,p) nosym opt freq SCRF=(PCM,Solvent=n,n-DiMethylF
 ormamide)
 ----------------------------------------------------------------------

 -------
 Radical
 -------
 Symbolic Z-matrix:
 Charge = -1 Multiplicity = 2

 SCF Done:  E(UB3LYP) =  -612.835672856     A.U. after   20 cycles
 SCF Done:  E(UB3LYP) =  -612.836189405     A.U. after   19 cycles
 SCF Done:  E(UB3LYP) =  -612.836340985     A.U. after   17 cycles
 SCF Done:  E(UB3LYP) =  -612.836365827     A.U. after   17 cycles
 SCF Done:  E(UB3LYP) =  -612.836408020     A.U. after   15 cycles
 SCF Done:  E(UB3LYP) =  -612.836410032     A.U. after   13 cycles
 SCF Done:  E(UB3LYP) =  -612.836410600     A.U. after   12 cycles
 SCF Done:  E(UB3LYP) =  -612.836410642     A.U. after   11 cycles
 Optimization completed.
    -- Stationary point found.
 Normal termination of Gaussian 16 at Sat Feb 10 11:01:16 2024.

 ----------------------------------------------------------------------
 #P Geom=AllCheck Guess=TCheck SCRF=Check GenChk UB3LYP/6-311++G(d,p) F
 req
 ----------------------------------------------------------------------

 Structure from the checkpoint file:  "062-rad.chk"
 -------
 Radical
 -------
 Charge = -1 Multiplicity = 2

                          Input orientation:
 ---------------------------------------------------------------------
 Center     Atomic      Atomic             Coordinates (Angstroms)
 Number     Number       Type             X           Y           Z
 ---------------------------------------------------------------------
      1          6           0       -2.055960   -1.995568    1.289765
      2          6           0       -2.269941   -2.155440   -0.150798
      3          6           0       -1.432505   -1.515295   -1.040661
      4          6           0       -0.326235   -0.679316   -0.645037
      5          6           0       -0.121901   -0.539481    0.778493
      6          6           0       -0.938389   -1.162417    1.680151
      7          8           0       -2.806661   -2.527194    2.162685
      8          8           0        0.426541   -0.107972   -1.498056
      9          6           0       -3.390686   -2.987952   -0.658972
     10          6           0       -3.667797   -4.257533   -0.123911
     11          6           0       -4.188739   -2.534589   -1.722675
     12          6           0       -5.217538   -3.320652   -2.239832
     13          6           0       -4.692145   -5.046023   -0.643688
     14          6           0       -5.473694   -4.582292   -1.703440
     15          1           0       -1.578050   -1.646377   -2.108761
     16          1           0        0.706054    0.080340    1.110230
     17          1           0       -0.778083   -1.043520    2.747688
     18          1           0       -3.070545   -4.626419    0.699343
     19          1           0       -4.008877   -1.549698   -2.139111
     20          1           0       -5.822196   -2.943769   -3.057681
     21          1           0       -4.880049   -6.027060   -0.220566
     22          1           0       -6.273522   -5.195514   -2.103444
 ---------------------------------------------------------------------

 SCF Done:  E(UB3LYP) =  -612.836410642     A.U. after    1 cycles

 Alpha  occ. eigenvalues --  -19.07786 -19.07666 -10.22297 -10.21896 -10.18501
 Alpha  occ. eigenvalues --  -10.17778 -10.17525 -10.17470 -10.17420 -10.17401
 Alpha  occ. eigenvalues --  -10.17217 -10.16479 -10.16407 -10.16279  -0.99817
 Alpha  occ. eigenvalues --   -0.99280  -0.86223  -0.82431  -0.77400  -0.74762
 Alpha  occ. eigenvalues --   -0.72500  -0.68142  -0.62227  -0.60901  -0.58424
 Alpha  occ. eigenvalues --   -0.56098  -0.51287  -0.47685  -0.47079  -0.45989
 Alpha  occ. eigenvalues --   -0.44833  -0.43569  -0.42198  -0.41789  -0.40496
 Alpha  occ. eigenvalues --   -0.40248  -0.38152  -0.37489  -0.36859  -0.36222
 Alpha  occ. eigenvalues --   -0.34697  -0.34430  -0.28800  -0.27395  -0.25931
 Alpha  occ. eigenvalues --   -0.24225  -0.23992  -0.23587  -0.16400
 Alpha virt. eigenvalues --   -0.03316  -0.01490  -0.00190   0.00369   0.00774
 Alpha virt. eigenvalues --    0.01415   0.02221   0.02507   0.02803   0.04017
 Alpha virt. eigenvalues --    0.04331   0.04639   0.05383   0.05692   0.06918

  Beta  occ. eigenvalues --  -19.07076 -19.06953 -10.22164 -10.21765 -10.18516
  Beta  occ. eigenvalues --  -10.17662 -10.17528 -10.17468 -10.17415 -10.17387
  Beta  occ. eigenvalues --  -10.17202 -10.16373 -10.16303 -10.16172  -0.98578
  Beta  occ. eigenvalues --   -0.98013  -0.86154  -0.81885  -0.77203  -0.74745
  Beta  occ. eigenvalues --   -0.72299  -0.67125  -0.61968  -0.60838  -0.58144
  Beta  occ. eigenvalues --   -0.55828  -0.51178  -0.47498  -0.46735  -0.45775
  Beta  occ. eigenvalues --   -0.44696  -0.43338  -0.42153  -0.41664  -0.39607
  Beta  occ. eigenvalues --   -0.38840  -0.37732  -0.36881  -0.36001  -0.34704
  Beta  occ. eigenvalues --   -0.34378  -0.34176  -0.27622  -0.25865  -0.24944
  Beta  occ. eigenvalues --   -0.23547  -0.23349  -0.22859
  Beta virt. eigenvalues --   -0.09217  -0.02616  -0.01457  -0.00174   0.00772
  Beta virt. eigenvalues --    0.01203   0.01634   0.02319   0.02544   0.03414
  Beta virt. eigenvalues --    0.04190   0.04664   0.05265   0.05586   0.05739

 Mulliken charges and spin densities:
               1          2
     1  C   -0.994784   0.091740
     2  C    1.381913   0.068916
     3  C   -0.714960   0.039792
     4  C   -0.353617   0.122430
     5  C   -0.055628   0.078602
     6  C   -0.003165   0.076601
     7  O   -0.476636   0.254036
     8  O   -0.523828   0.248688
     9  C    1.137769   0.012321
    10  C   -0.471989   0.010323
    11  C   -0.499771   0.020243
    12  C   -0.288294  -0.007236
    13  C   -0.189267  -0.003402
    14  C   -0.438358   0.011842
    15  H    0.180124  -0.007992
    16  H    0.188589  -0.005888
    17  H    0.188331  -0.008000
    18  H    0.187169  -0.001811
    19  H    0.189369  -0.001172
    20  H    0.189304   0.000435
    21  H    0.192746   0.000299
    22  H    0.174982  -0.000765
 Sum of Mulliken charges =  -1.00000   1.00000

 Dipole moment (field-independent basis, Debye):
    X=              5.9200    Y=              6.3744    Z=             -0.9738  Tot=              8.7537
 Quadrupole moment (field-independent basis, Debye-Ang):
   XX=           -106.0068   YY=            -98.2935   ZZ=           -100.5578
   XY=            -16.5840   XZ=             21.4816   YZ=             11.4880

  Exact polarizability: 257.614  97.957 219.862   0.597 -27.777 247.408
 Approx polarizability: 274.640  97.009 244.901 -10.993 -46.945 283.719

                      1                      2                      3
                      A                      A                      A
 Frequencies --     50.6415                79.2809                98.8632
 Red. masses --      4.3839                 4.6050                 6.0198
 Frc consts  --      0.0066                 0.0171                 0.0347
 IR Inten    --      0.1836                 4.4755                 5.1358

                      4                      5                      6
                      A                      A                      A
 Frequencies --    129.2113               246.6374               270.0327
 Red. masses --      8.0715                 5.1483                 7.9757
 Frc consts  --      0.0794                 0.1845                 0.3427
 IR Inten    --     13.7865                 1.0163                10.2151

                      7                      8                      9
                      A                      A                      A
 Frequencies --    298.6220               343.5490               415.0606
 Red. masses --      5.5996                 4.6263                 3.7253
 Frc consts  --      0.2942                 0.3217                 0.3781
 IR Inten    --      1.7825                 0.4677                 6.9973

                     10                     11                     12
                      A                      A                      A
 Frequencies --    416.6627               450.4772               480.0272
 Red. masses --      5.3541                 3.8009                10.5822
 Frc consts  --      0.5477                 0.4544                 1.4367
 IR Inten    --     13.7243                 4.0738                 1.1425

                     13                     14                     15
                      A                      A                      A
 Frequencies --    509.4264               558.3690               624.0833
 Red. masses --      3.1028                 4.5593                 3.4106
 Frc consts  --      0.4744                 0.8375                 0.7827
 IR Inten    --      2.1161                 7.4257                10.6463

                     16                     17                     18
                      A                      A                      A
 Frequencies --    633.8542               642.1551               707.0770
 Red. masses --      4.5860                 6.0704                 2.1151
 Frc consts  --      1.0856                 1.4748                 0.6230
 IR Inten    --      9.4520                 3.0831                68.0700

                     19                     20                     21
                      A                      A                      A
 Frequencies --    709.9784               754.5784               773.0496
 Red. masses --      3.6163                 3.2497                 1.9885
 Frc consts  --      1.0740                 1.0902                 0.7001
 IR Inten    --     17.0133                23.7864                47.6525

                     22                     23                     24
                      A                      A                      A
 Frequencies --    818.2669               830.7069               853.1499
 Red. masses --      4.8592                 2.1495                 1.2556
 Frc consts  --      1.9169                 0.8740                 0.5385
 IR Inten    --     60.4020                56.5540                 1.6992

                     25                     26                     27
                      A                      A                      A
 Frequencies --    886.6293               894.2105               932.1169
 Red. masses --      4.0784                 1.6903                 1.5192
 Frc consts  --      1.8889                 0.7963                 0.7777
 IR Inten    --     11.5025                47.3986                 3.1321

                     28                     29                     30
                      A                      A                      A
 Frequencies --    965.1002               988.0428              1002.1911
 Red. masses --      1.2922                 1.3748                 2.0057
 Frc consts  --      0.7091                 0.7907                 1.1869
 IR Inten    --      0.3748                 0.6454                34.3864

                     31                     32                     33
                      A                      A                      A
 Frequencies --   1005.5185              1013.1449              1049.2637
 Red. masses --      1.7536                 5.8929                 2.0522
 Frc consts  --      1.0447                 3.5639                 1.3312
 IR Inten    --     22.7983                 7.4463                 7.6166

                     34                     35                     36
                      A                      A                      A
 Frequencies --   1096.3610              1108.5018              1174.1798
 Red. masses --      1.5993                 1.6524                 1.1003
 Frc consts  --      1.1326                 1.1963                 0.8937
 IR Inten    --     12.3472                11.6975                 0.0147

                     37                     38                     39
                      A                      A                      A
 Frequencies --   1196.6989              1204.0614              1257.4481
 Red. masses --      1.1621                 1.9652                 1.6742
 Frc consts  --      0.9805                 1.6786                 1.5597
 IR Inten    --      2.6327                17.8399                14.4680

                     40                     41                     42
                      A                      A                      A
 Frequencies --   1260.9801              1306.4588              1343.8878
 Red. masses --      3.3869                 3.4794                 2.2842
 Frc consts  --      3.1730                 3.4990                 2.4305
 IR Inten    --     52.7632                 2.1770                 8.4229

                     43                     44                     45
                      A                      A                      A
 Frequencies --   1356.3291              1426.0967              1468.8200
 Red. masses --      1.7275                 4.3542                 5.6744
 Frc consts  --      1.8724                 5.2174                 7.2129
 IR Inten    --     30.7473               228.5183                15.2957

                     46                     47                     48
                      A                      A                      A
 Frequencies --   1471.0374              1502.6616              1504.2937
 Red. masses --      2.9755                 3.9006                 4.1234
 Frc consts  --      3.7936                 5.1892                 5.4976
 IR Inten    --      6.9870               432.3580               713.3477

                     49                     50                     51
                      A                      A                      A
 Frequencies --   1525.0057              1605.6621              1631.6972
 Red. masses --      2.8175                 5.2991                 5.6764
 Frc consts  --      3.8606                 8.0493                 8.9043
 IR Inten    --     92.5344                10.6390                43.0425

                     52                     53                     54
                      A                      A                      A
 Frequencies --   1639.0981              3145.1883              3153.8216
 Red. masses --      6.7182                 1.0859                 1.0894
 Frc consts  --     10.6344                 6.3289                 6.3845
 IR Inten    --     14.6605                30.8162                28.1763

                     55                     56                     57
                      A                      A                      A
 Frequencies --   3158.1534              3164.6773              3165.2526
 Red. masses --      1.0854                 1.0940                 1.0897
 Frc consts  --      6.3782                 6.4556                 6.4322
 IR Inten    --      3.5386                24.0190                19.8874

                     58                     59                     60
                      A                      A                      A
 Frequencies --   3175.2878              3184.6956              3202.8639
 Red. masses --      1.0923                 1.0968                 1.0929
 Frc consts  --      6.4889                 6.5543                 6.6057
 IR Inten    --     40.5918                37.4670                10.3341

 - Thermochemistry -
 -------------------
 Temperature   298.150 Kelvin.  Pressure   1.00000 Atm.
 Atom     1 has atomic number  6 and mass  12.00000

 Molecular mass:   184.05243 amu.
 Principal axes and moments of inertia in atomic units:
                           1         2         3
     Eigenvalues --  1234.680704036.086075010.30859
           X            0.77224  -0.08739  -0.62929
           Y            0.59031  -0.26752   0.76155
           Z            0.23491   0.95958   0.15500
 This molecule is an asymmetric top.
 Rotational symmetry number  1.
 Warning -- assumption of classical behavior for rotation
           may cause significant error
 Rotational temperatures (Kelvin)      0.07015     0.02146     0.01729
 Rotational constants (GHZ):           1.46171     0.44715     0.36021
 Zero-point vibrational energy     429813.5 (Joules/Mol)
                                  102.72788 (Kcal/Mol)
 Warning -- explicit consideration of  14 degrees of freedom as
           vibrations may cause significant error
 Vibrational temperatures:     72.86   114.07   142.24   185.91   354.86
          (Kelvin)            388.52   429.65   494.29   597.18   599.48
                              648.14   690.65   732.95   803.37   897.92
                              911.97   923.92  1017.33  1021.50  1085.67
                             1112.25  1177.30  1195.20  1227.49  1275.66
                             1286.57  1341.11  1388.56  1421.57  1441.93
                             1446.72  1457.69  1509.66  1577.42  1594.89
                             1689.38  1721.78  1732.38  1809.19  1814.27
                             1879.70  1933.55  1951.46  2051.84  2113.30
                             2116.49  2161.99  2164.34  2194.14  2310.19
                             2347.65  2358.30  4525.22  4537.65  4543.88
                             4553.26  4554.09  4568.53  4582.07  4608.21

 Zero-point correction=                           0.163707 (Hartree/Particle)
 Thermal correction to Energy=                    0.174408
 Thermal correction to Enthalpy=                  0.175352
 Thermal correction to Gibbs Free Energy=         0.125774
 Sum of electronic and zero-point Energies=           -612.672703
 Sum of electronic and thermal Energies=              -612.662003
 Sum of electronic and thermal Enthalpies=            -612.661058
 Sum of electronic and thermal Free Energies=         -612.710636

                     E (Thermal)             CV                S
                      KCal/Mol        Cal/Mol-Kelvin    Cal/Mol-Kelvin
 Total                  109.443             42.413            104.345
 Electronic               0.000              0.000              1.377
 Translational            0.889              2.981             41.536
 Rotational               0.889              2.981             31.591
 Vibrational            107.665             36.452             29.841
 Vibration     1          0.595              1.977              4.792
 Vibration     2          0.600              1.963              3.909
 Vibration     3          0.604              1.950              3.477
 Vibration     4          0.612              1.924              2.958
 Vibration     5          0.661              1.768              1.754
 Vibration     6          0.674              1.728              1.596
 Vibration     7          0.692              1.676              1.425
 Vibration     8          0.722              1.588              1.196
 Vibration     9          0.778              1.438              0.909
 Vibration    10          0.780              1.434              0.903
 Vibration    11          0.809              1.360              0.794
 Vibration    12          0.836              1.294              0.710
 Vibration    13          0.865              1.229              0.635
 Vibration    14          0.914              1.121              0.527

 Optimization completed.
    -- Stationary point found.
 Normal termination of Gaussian 16 at Sat Feb 10 11:15:42 2024.
