 Q-Chem 5.4, Q-Chem, Inc., Pleasanton, CA (2021)
 Q-Chem 5.4.0 for Intel X86 EM64T Linux

User input:
--------------------------------------------------------------
$molecule
-1 1
C                  5.0502890000     -2.9056590000     -0.3705900000
C                  5.8206070000     -2.0421900000     -1.1381990000
C                  5.2836020000     -0.8283590000     -1.5817470000
C                  3.7335170000     -2.5682270000     -0.0358500000
C                  3.1945660000     -1.3490750000     -0.4815430000
C                  3.9786940000     -0.4846600000     -1.2550620000
C                  2.9261830000     -3.5086040000      0.7877590000
C                  1.5667810000     -3.1335520000      1.1191770000
C                  1.0218940000     -1.8857010000      0.6603250000
C                  1.8011550000     -0.9677840000     -0.1404110000
C                  0.7765430000     -4.0069450000      1.9001960000
C                 -0.5681360000     -3.6396530000      2.2302790000
C                 -0.3012840000     -1.5558230000      1.0018550000
C                 -1.0719980000     -2.4457430000      1.7843630000
O                  3.4394230000     -4.5828420000      1.1651520000
O                  1.3406970000      0.1225740000     -0.5475340000
O                  1.2467090000     -5.1630080000      2.3385880000
H                  5.4424570000     -3.8504410000     -0.0152890000
H                  6.8402030000     -2.3095080000     -1.3941340000
H                  5.8870360000     -0.1552820000     -2.1812200000
H                  2.1792500000     -5.2414220000      2.0147780000
O                 -0.8757460000     -0.4110050000      0.6101440000
H                 -2.0910530000     -2.1836360000      2.0432920000
H                 -0.1938050000      0.0767960000      0.0795530000
H                  3.5391830000      0.4483170000     -1.5854290000
S                 -1.6647980000     -4.7274550000      3.2482930000
O                 -1.7607860000     -5.9687830000      2.4520560000
O                 -0.9430040000     -4.8452330000      4.5325600000
O                 -2.9217590000     -3.9447070000      3.3196080000
$end
$rem
MAX_SCF_CYCLES=200
BASIS  =  6-311++G(d,p)
GUI  =  2
JOB_TYPE  =  SP
METHOD  =  B3LYP
SOLVENT_METHOD = COSMO
$end
$solvent
dielectric 37.219
opticaldielectric 1.43
$end

--------------------------------------------------------------

             Standard Nuclear Orientation (Angstroms)
    I     Atom           X                Y                Z
 ----------------------------------------------------------------
    1      C       3.7404307666    -1.8481419547     0.0002092888
    2      C       5.0637062552    -1.4272690740     0.0005430544
    3      C       5.3658404280    -0.0608102107     0.0006497032
    4      C       2.7014791112    -0.9098567490    -0.0000199522
    5      C       3.0053510111     0.4624055775     0.0000535123
    6      C       4.3425383447     0.8775339517     0.0004054525
    7      C       1.2907175948    -1.3833339990    -0.0003549313
    8      C       0.2360170721    -0.3903171327    -0.0003957735
    9      C       0.5535451372     1.0110233124    -0.0003346528
   10      C       1.9222834989     1.4774488154    -0.0002150488
   11      C      -1.1132375925    -0.8107858463    -0.0005311955
   12      C      -2.1591433022     0.1680405063    -0.0003549239
   13      C      -0.4967680815     1.9454238658    -0.0003959453
   14      C      -1.8385138225     1.5004577902    -0.0003295154
   15      O       1.0599950093    -2.6107683399    -0.0006412373
   16      O       2.2148171286     2.6944432073    -0.0001916286
   17      O      -1.4405749193    -2.0924158435    -0.0008441858
   18      H       3.4804720459    -2.8993645824     0.0000716782
   19      H       5.8641066235    -2.1593188393     0.0007227588
   20      H       6.4001700662     0.2658321447     0.0009483403
   21      H      -0.5963948790    -2.6100976448    -0.0008264612
   22      O      -0.2771780134     3.2667234346    -0.0003563317
   23      H      -2.6421123344     2.2274012601    -0.0001792754
   24      H       0.7077977087     3.3864855371    -0.0002223990
   25      H       4.5490002834     1.9406105290     0.0005280840
   26      S      -3.9483567847    -0.3021166637     0.0004112788
   27      O      -4.1066874737    -1.0735094842    -1.2501832875
   28      O      -4.1052498845    -1.0726735740     1.2517411979
   29      O      -4.6294730326     1.0146262367     0.0003257703
 ----------------------------------------------------------------

   10   -1462.8505785721      9.79e-06  Convergence criterion met
 Total energy in the final basis set =    -1462.8505785721
    5   -1462.9516966110      8.93e-06  Convergence criterion met
 Total energy in the final basis set =    -1462.9516966110

                    Orbital Energies (a.u.)
 --------------------------------------------------------------

 Alpha MOs
 -- Occupied --
-89.0612 -19.1664 -19.1656 -19.1381 -19.1378 -19.1045 -19.1045 -19.1041
-10.2874 -10.2874 -10.2776 -10.2707 -10.2230 -10.2120 -10.2112 -10.2090
-10.2084 -10.2055 -10.1962 -10.1960 -10.1955 -10.1953  -8.1196  -6.0822
 -6.0821  -6.0817  -1.1269  -1.0994  -1.0931  -1.0596  -1.0568  -0.9912
 -0.9898  -0.8957  -0.8793  -0.8232  -0.7802  -0.7776  -0.7675  -0.7093
 -0.6795  -0.6626  -0.6378  -0.6161  -0.5998  -0.5713  -0.5621  -0.5468
 -0.5409  -0.5111  -0.5019  -0.4900  -0.4736  -0.4731  -0.4669  -0.4654
 -0.4631  -0.4529  -0.4500  -0.4491  -0.4381  -0.4326  -0.4287  -0.4052
 -0.4036  -0.3885  -0.3821  -0.3774  -0.3664  -0.3504  -0.3482  -0.3410
 -0.3216  -0.3132  -0.3068  -0.2988  -0.2900  -0.2805  -0.2782  -0.2766
 -0.2705  -0.2354

          Ground-State Mulliken Net Atomic Charges

     Atom                 Charge (a.u.)
  ----------------------------------------
      1 C                     0.048724
      2 C                    -0.414562
      3 C                    -0.488580
      4 C                     0.207848
      5 C                     0.061155
      6 C                     0.084482
      7 C                    -0.354821
      8 C                     0.424158
      9 C                     0.837876
     10 C                    -0.308751
     11 C                    -0.524414
     12 C                    -0.162952
     13 C                    -0.416743
     14 C                    -0.151137
     15 O                    -0.359210
     16 O                    -0.365183
     17 O                    -0.297280
     18 H                     0.201695
     19 H                     0.231626
     20 H                     0.228140
     21 H                     0.397240
     22 O                    -0.344121
     23 H                     0.279253
     24 H                     0.379038
     25 H                     0.206979
     26 S                     0.695524
     27 O                    -0.376431
     28 O                    -0.376977
     29 O                    -0.342575
  ----------------------------------------
  Sum of atomic charges =    -1.000000

                    Cartesian Multipole Moments
 -----------------------------------------------------------------
    Charge (ESU x 10^10)
                -4.8032
    Dipole Moment (Debye)
         X      24.6633      Y       1.5255      Z      -0.0022
       Tot      24.7105
    Quadrupole Moments (Debye-Ang)
        XX    -204.6286     XY     -16.7514     YY    -156.5632
        XZ       0.0154     YZ      -0.0008     ZZ    -143.9327

 Total job time:  92.89s(wall), 695.50s(cpu)
        *  Thank you very much for using Q-Chem.  Have a nice day.  *
