 Gaussian 16, Revision A.03,
 Gaussian 16:  ES64L-G16RevA.03 25-Dec-2016

 --------------------------------------
 #P UB3LYP/6-311++G(d,p) nosym opt freq
 --------------------------------------

 --------
 Oxidized
 --------
 Symbolic Z-matrix:
 Charge = -1 Multiplicity = 1

 SCF Done:  E(UB3LYP) =  -1462.85054057     A.U. after   20 cycles
 Optimization completed.
    -- Stationary point found.
 Normal termination of Gaussian 16 at Sun Jan  7 05:07:56 2024.

 ----------------------------------------------------------------------
 #P Geom=AllCheck Guess=TCheck SCRF=Check GenChk UB3LYP/6-311++G(d,p) F
 req
 ----------------------------------------------------------------------

 Structure from the checkpoint file:  "194.chk"
 --------
 Oxidized
 --------
 Charge = -1 Multiplicity = 1

                          Input orientation:
 ---------------------------------------------------------------------
 Center     Atomic      Atomic             Coordinates (Angstroms)
 Number     Number       Type             X           Y           Z
 ---------------------------------------------------------------------
      1          6           0        5.050289   -2.905659   -0.370590
      2          6           0        5.820607   -2.042190   -1.138199
      3          6           0        5.283602   -0.828359   -1.581747
      4          6           0        3.733517   -2.568227   -0.035850
      5          6           0        3.194566   -1.349075   -0.481543
      6          6           0        3.978694   -0.484660   -1.255062
      7          6           0        2.926183   -3.508604    0.787759
      8          6           0        1.566781   -3.133552    1.119177
      9          6           0        1.021894   -1.885701    0.660325
     10          6           0        1.801155   -0.967784   -0.140411
     11          6           0        0.776543   -4.006945    1.900196
     12          6           0       -0.568136   -3.639653    2.230279
     13          6           0       -0.301284   -1.555823    1.001855
     14          6           0       -1.071998   -2.445743    1.784363
     15          8           0        3.439423   -4.582842    1.165152
     16          8           0        1.340697    0.122574   -0.547534
     17          8           0        1.246709   -5.163008    2.338588
     18          1           0        5.442457   -3.850441   -0.015289
     19          1           0        6.840203   -2.309508   -1.394134
     20          1           0        5.887036   -0.155282   -2.181220
     21          1           0        2.179250   -5.241422    2.014778
     22          8           0       -0.875746   -0.411005    0.610144
     23          1           0       -2.091053   -2.183636    2.043292
     24          1           0       -0.193805    0.076796    0.079553
     25          1           0        3.539183    0.448317   -1.585429
     26         16           0       -1.664798   -4.727455    3.248293
     27          8           0       -1.760786   -5.968783    2.452056
     28          8           0       -0.943004   -4.845233    4.532560
     29          8           0       -2.921759   -3.944707    3.319608
 ---------------------------------------------------------------------

 SCF Done:  E(UB3LYP) =  -1462.85054057     A.U. after    1 cycles

 Alpha  occ. eigenvalues --  -88.90925 -19.07092 -19.06095 -19.04438 -19.04187
 Alpha  occ. eigenvalues --  -18.94944 -18.94937 -18.94937 -10.19481 -10.19288
 Alpha  occ. eigenvalues --  -10.17515 -10.17346 -10.13272 -10.13220 -10.13137
 Alpha  occ. eigenvalues --  -10.13083 -10.12595 -10.12511 -10.11284 -10.11206
 Alpha  occ. eigenvalues --  -10.10913 -10.09666  -7.96729  -5.93018  -5.92960
 Alpha  occ. eigenvalues --   -5.92948  -0.99882  -0.99564  -0.97113  -0.96428
 Alpha  occ. eigenvalues --   -0.96154  -0.83381  -0.83341  -0.81685  -0.78515
 Alpha  occ. eigenvalues --   -0.73221  -0.70614  -0.69089  -0.67010  -0.61204
 Alpha  occ. eigenvalues --   -0.58931  -0.57838  -0.54138  -0.52508  -0.49397
 Alpha  occ. eigenvalues --   -0.48373  -0.46806  -0.44567  -0.43332  -0.42375
 Alpha  occ. eigenvalues --   -0.40609  -0.39322  -0.37919  -0.37890  -0.37252
 Alpha  occ. eigenvalues --   -0.37105  -0.36500  -0.34829  -0.34180  -0.33772
 Alpha  occ. eigenvalues --   -0.33298  -0.31261  -0.30839  -0.30661  -0.30438
 Alpha  occ. eigenvalues --   -0.29956  -0.29767  -0.29421  -0.28190  -0.23504
 Alpha  occ. eigenvalues --   -0.21058  -0.20652  -0.20618  -0.19653  -0.19376
 Alpha  occ. eigenvalues --   -0.19021  -0.18674  -0.16013  -0.15090  -0.15077
 Alpha  occ. eigenvalues --   -0.13398  -0.10997
 Alpha virt. eigenvalues --   -0.03391   0.00971   0.04393   0.04624   0.06785
 Alpha virt. eigenvalues --    0.07115   0.07898   0.09564   0.10415   0.11118
 Alpha virt. eigenvalues --    0.11247   0.11780   0.12635   0.12966   0.13144

  Beta  occ. eigenvalues --  -88.90925 -19.07092 -19.06095 -19.04438 -19.04187
  Beta  occ. eigenvalues --  -18.94944 -18.94937 -18.94937 -10.19481 -10.19288
  Beta  occ. eigenvalues --  -10.17515 -10.17346 -10.13272 -10.13220 -10.13137
  Beta  occ. eigenvalues --  -10.13083 -10.12595 -10.12511 -10.11284 -10.11206
  Beta  occ. eigenvalues --  -10.10913 -10.09666  -7.96729  -5.93018  -5.92960
  Beta  occ. eigenvalues --   -5.92948  -0.99882  -0.99564  -0.97113  -0.96428
  Beta  occ. eigenvalues --   -0.96154  -0.83381  -0.83341  -0.81685  -0.78515
  Beta  occ. eigenvalues --   -0.73221  -0.70614  -0.69089  -0.67010  -0.61204
  Beta  occ. eigenvalues --   -0.58931  -0.57838  -0.54138  -0.52508  -0.49397
  Beta  occ. eigenvalues --   -0.48373  -0.46806  -0.44567  -0.43332  -0.42375
  Beta  occ. eigenvalues --   -0.40609  -0.39322  -0.37919  -0.37890  -0.37252
  Beta  occ. eigenvalues --   -0.37105  -0.36500  -0.34829  -0.34180  -0.33772
  Beta  occ. eigenvalues --   -0.33298  -0.31261  -0.30839  -0.30661  -0.30438
  Beta  occ. eigenvalues --   -0.29956  -0.29767  -0.29421  -0.28190  -0.23504
  Beta  occ. eigenvalues --   -0.21058  -0.20652  -0.20618  -0.19653  -0.19376
  Beta  occ. eigenvalues --   -0.19021  -0.18674  -0.16013  -0.15090  -0.15077
  Beta  occ. eigenvalues --   -0.13398  -0.10997
  Beta virt. eigenvalues --   -0.03391   0.00971   0.04393   0.04624   0.06785
  Beta virt. eigenvalues --    0.07115   0.07898   0.09564   0.10415   0.11118
  Beta virt. eigenvalues --    0.11247   0.11780   0.12635   0.12966   0.13144

 Mulliken charges and spin densities:
               1          2
     1  C    0.035424   0.000000
     2  C   -0.370051   0.000000
     3  C   -0.436139   0.000000
     4  C    0.265569   0.000000
     5  C    0.137652  -0.000000
     6  C    0.069532  -0.000000
     7  C   -0.416709  -0.000000
     8  C    0.333622   0.000000
     9  C    0.751807  -0.000000
    10  C   -0.380033  -0.000000
    11  C   -0.611314   0.000000
    12  C   -0.033903   0.000000
    13  C   -0.473314  -0.000000
    14  C   -0.137919  -0.000000
    15  O   -0.324495  -0.000000
    16  O   -0.340023   0.000000
    17  O   -0.205438  -0.000000
    18  H    0.176718   0.000000
    19  H    0.160306   0.000000
    20  H    0.156522  -0.000000
    21  H    0.358875  -0.000000
    22  O   -0.293483  -0.000000
    23  H    0.273471   0.000000
    24  H    0.341700   0.000000
    25  H    0.179291   0.000000
    26  S    0.571730  -0.000000
    27  O   -0.270240  -0.000000
    28  O   -0.270517  -0.000000
    29  O   -0.248642   0.000000
 Sum of Mulliken charges =  -1.00000  -0.00000

 Dipole moment (field-independent basis, Debye):
    X=              7.1735    Y=             21.6799    Z=            -14.7252  Tot=             27.1719
 Quadrupole moment (field-independent basis, Debye-Ang):
   XX=           -152.4593   YY=           -255.7532   ZZ=           -191.8732
   XY=            -30.8141   XZ=             20.4864   YZ=             73.6447

  Exact polarizability: 309.261  25.148 228.635 -90.468 -72.040 187.685
 Approx polarizability: 493.681  -0.507 422.560-119.065-125.380 303.968

                      1                      2                      3
                      A                      A                      A
 Frequencies --     30.3733                45.2101                77.3660
 Red. masses --      8.6444                13.3973                10.0215
 Frc consts  --      0.0047                 0.0161                 0.0353
 IR Inten    --      0.3506                 0.5888                 3.1164

                      4                      5                      6
                      A                      A                      A
 Frequencies --     92.8863               114.0675               138.8353
 Red. masses --      6.2391                10.8185                 6.9862
 Frc consts  --      0.0317                 0.0829                 0.0793
 IR Inten    --      0.1257                 2.4541                 0.0049

                      7                      8                      9
                      A                      A                      A
 Frequencies --    151.0572               178.8825               199.4972
 Red. masses --      8.7939                12.1074                 9.5725
 Frc consts  --      0.1182                 0.2283                 0.2245
 IR Inten    --      0.6719                 0.8948                 3.9504

                     10                     11                     12
                      A                      A                      A
 Frequencies --    225.4435               232.8673               274.9908
 Red. masses --      7.9177                 7.0091                 6.5736
 Frc consts  --      0.2371                 0.2239                 0.2929
 IR Inten    --      0.1735                 0.7794                 0.1072

                     13                     14                     15
                      A                      A                      A
 Frequencies --    289.1986               329.6070               349.3918
 Red. masses --     12.6893                 6.7021                 6.5129
 Frc consts  --      0.6253                 0.4290                 0.4684
 IR Inten    --      0.5873                 2.4587                 4.2674

                     16                     17                     18
                      A                      A                      A
 Frequencies --    401.7326               406.5754               429.8702
 Red. masses --      9.9429                11.7983                 3.5557
 Frc consts  --      0.9454                 1.1491                 0.3871
 IR Inten    --      0.0434                 0.2508                 1.1564

                     19                     20                     21
                      A                      A                      A
 Frequencies --    431.3594               443.5352               448.5099
 Red. masses --      9.1633                12.4050                 6.7804
 Frc consts  --      1.0046                 1.4378                 0.8036
 IR Inten    --     13.5103                10.4322                 0.1230

                     22                     23                     24
                      A                      A                      A
 Frequencies --    486.7418               488.9780               489.9527
 Red. masses --      9.9323                 5.7454                13.9308
 Frc consts  --      1.3864                 0.8094                 1.9703
 IR Inten    --     30.0428                 2.0917                23.9255

                     25                     26                     27
                      A                      A                      A
 Frequencies --    526.7112               535.6119               555.0257
 Red. masses --      8.3668                 8.3206                 8.7781
 Frc consts  --      1.3676                 1.4064                 1.5932
 IR Inten    --     27.3010                47.5563                 4.8030

                     28                     29                     30
                      A                      A                      A
 Frequencies --    604.4804               640.7549               659.0575
 Red. masses --     14.4096                 5.6896                 6.7190
 Frc consts  --      3.1022                 1.3763                 1.7195
 IR Inten    --    181.8644                 2.0119                13.8562

                     31                     32                     33
                      A                      A                      A
 Frequencies --    676.1260               683.9917               692.4158
 Red. masses --      5.8248                 7.0931                 8.0116
 Frc consts  --      1.5689                 1.9552                 2.2631
 IR Inten    --      0.0533                39.0419                 0.0111

                     34                     35                     36
                      A                      A                      A
 Frequencies --    732.3709               736.8549               774.8408
 Red. masses --      6.6397                 2.2918                 5.3277
 Frc consts  --      2.0983                 0.7332                 1.8846
 IR Inten    --      4.7775                35.7223                 0.0002

                     37                     38                     39
                      A                      A                      A
 Frequencies --    792.3886               801.5919               809.8247
 Red. masses --      7.7724                 1.3064                 1.5018
 Frc consts  --      2.8753                 0.4946                 0.5803
 IR Inten    --      2.6960               108.2416                 4.6553

                     40                     41                     42
                      A                      A                      A
 Frequencies --    839.4449               906.0802               906.6851
 Red. masses --      1.1360                 1.3722                 8.2868
 Frc consts  --      0.4716                 0.6637                 4.0137
 IR Inten    --     95.1649                 0.0569                15.5992

                     43                     44                     45
                      A                      A                      A
 Frequencies --    925.5588               929.2437               980.0115
 Red. masses --      8.4733                 1.3354                12.2997
 Frc consts  --      4.2767                 0.6794                 6.9599
 IR Inten    --      7.3637                 7.5127               221.5416

                     46                     47                     48
                      A                      A                      A
 Frequencies --    995.5601              1006.0986              1016.9975
 Red. masses --      1.3782                 1.2998                 6.1133
 Frc consts  --      0.8048                 0.7752                 3.7253
 IR Inten    --      1.9666                 0.0335                97.5448

                     49                     50                     51
                      A                      A                      A
 Frequencies --   1049.4925              1110.3330              1114.0600
 Red. masses --      2.3438                 2.5546                 2.6787
 Frc consts  --      1.5210                 1.8556                 1.9588
 IR Inten    --     16.7151                 9.5132                13.5818

                     52                     53                     54
                      A                      A                      A
 Frequencies --   1167.2953              1177.1040              1190.5949
 Red. masses --      2.9196                 1.2826                20.4167
 Frc consts  --      2.3439                 1.0471                17.0515
 IR Inten    --     39.9533                16.2570               285.2373

                     55                     56                     57
                      A                      A                      A
 Frequencies --   1191.8360              1224.8095              1259.4026
 Red. masses --      3.2639                 2.1919                 2.4056
 Frc consts  --      2.7316                 1.9374                 2.2480
 IR Inten    --    183.1825                49.9206               154.4093

                     58                     59                     60
                      A                      A                      A
 Frequencies --   1281.7389              1304.2701              1343.7400
 Red. masses --      2.4772                 4.1174                 2.8383
 Frc consts  --      2.3978                 4.1267                 3.0195
 IR Inten    --    149.0240               133.1759               102.8013

                     61                     62                     63
                      A                      A                      A
 Frequencies --   1351.1882              1378.8956              1399.8354
 Red. masses --      7.4867                 4.0038                 3.7502
 Frc consts  --      8.0533                 4.4853                 4.3297
 IR Inten    --     41.0934               396.5818               162.3485

                     64                     65                     66
                      A                      A                      A
 Frequencies --   1430.1300              1448.2422              1486.1844
 Red. masses --      7.2563                 4.6196                 2.7509
 Frc consts  --      8.7442                 5.7087                 3.5798
 IR Inten    --    168.3417               381.0660                 5.3613

                     67                     68                     69
                      A                      A                      A
 Frequencies --   1501.2863              1502.6827              1590.5130
 Red. masses --      2.9742                 3.1214                 2.7903
 Frc consts  --      3.9496                 4.1528                 4.1589
 IR Inten    --     22.3932                 9.6248               137.3191

                     70                     71                     72
                      A                      A                      A
 Frequencies --   1604.0417              1606.6131              1614.2662
 Red. masses --      3.0369                 4.0755                 6.9405
 Frc consts  --      4.6037                 6.1980                10.6559
 IR Inten    --     21.3313                51.1052               405.2908

                     73                     74                     75
                      A                      A                      A
 Frequencies --   1650.6871              1663.1896              3159.1062
 Red. masses --      7.3546                 8.1440                 1.0864
 Frc consts  --     11.8070                13.2731                 6.3878
 IR Inten    --    134.2151                57.2638                 6.5952

                     76                     77                     78
                      A                      A                      A
 Frequencies --   3175.5368              3196.1648              3198.5826
 Red. masses --      1.0923                 1.0904                 1.0921
 Frc consts  --      6.4899                 6.5626                 6.5830
 IR Inten    --     30.3655                13.2025                 1.9956

                     79                     80                     81
                      A                      A                      A
 Frequencies --   3200.8676              3239.7263              3270.6960
 Red. masses --      1.0936                 1.0698                 1.0694
 Frc consts  --      6.6016                 6.6154                 6.7403
 IR Inten    --     15.6802               105.6119                82.5390

 - Thermochemistry -
 -------------------
 Temperature   298.150 Kelvin.  Pressure   1.00000 Atm.
 Atom     1 has atomic number  6 and mass  12.00000

 Molecular mass:   318.99125 amu.
 Principal axes and moments of inertia in atomic units:
                           1         2         3
     Eigenvalues --  3012.73949********************
           X            0.75705  -0.56586   0.32661
           Y            0.40281   0.79782   0.44858
           Z           -0.51442  -0.20804   0.83192
 This molecule is an asymmetric top.
 Rotational symmetry number  1.
 Warning -- assumption of classical behavior for rotation
           may cause significant error
 Rotational temperatures (Kelvin)      0.02875     0.00781     0.00630
 Rotational constants (GHZ):           0.59904     0.16282     0.13136
 Zero-point vibrational energy     499846.3 (Joules/Mol)
                                  119.46612 (Kcal/Mol)
 Warning -- explicit consideration of  28 degrees of freedom as
           vibrations may cause significant error
 Vibrational temperatures:     43.70    65.05   111.31   133.64   164.12
          (Kelvin)            199.75   217.34   257.37   287.03   324.36
                              335.04   395.65   416.09   474.23   502.70
                              578.00   584.97   618.49   620.63   638.15
                              645.31   700.31   703.53   704.93   757.82
                              770.63   798.56   869.71   921.90   948.24
                              972.79   984.11   996.23  1053.72  1060.17
                             1114.82  1140.07  1153.31  1165.16  1207.77
                             1303.65  1304.52  1331.67  1336.97  1410.02
                             1432.39  1447.55  1463.23  1509.99  1597.52
                             1602.88  1679.48  1693.59  1713.00  1714.79
                             1762.23  1812.00  1844.14  1876.55  1933.34
                             1944.06  1983.92  2014.05  2057.64  2083.70
                             2138.29  2160.02  2162.03  2288.39  2307.86
                             2311.56  2322.57  2374.97  2392.96  4545.25
                             4568.89  4598.57  4602.05  4605.33  4661.24
                             4705.80

 Zero-point correction=                           0.190381 (Hartree/Particle)
 Thermal correction to Energy=                    0.207295
 Thermal correction to Enthalpy=                  0.208239
 Thermal correction to Gibbs Free Energy=         0.145172
 Sum of electronic and zero-point Energies=          -1462.660159
 Sum of electronic and thermal Energies=             -1462.643246
 Sum of electronic and thermal Enthalpies=           -1462.642301
 Sum of electronic and thermal Free Energies=        -1462.705369

                     E (Thermal)             CV                S
                      KCal/Mol        Cal/Mol-Kelvin    Cal/Mol-Kelvin
 Total                  130.080             66.501            132.736
 Electronic               0.000              0.000              0.000
 Translational            0.889              2.981             43.176
 Rotational               0.889              2.981             34.483
 Vibrational            128.302             60.540             55.078
 Vibration     1          0.594              1.984              5.805
 Vibration     2          0.595              1.979              5.017
 Vibration     3          0.599              1.964              3.957
 Vibration     4          0.602              1.954              3.598
 Vibration     5          0.607              1.938              3.198
 Vibration     6          0.614              1.915              2.820
 Vibration     7          0.618              1.901              2.659
 Vibration     8          0.629              1.868              2.340
 Vibration     9          0.638              1.841              2.138
 Vibration    10          0.650              1.802              1.915
 Vibration    11          0.654              1.791              1.857
 Vibration    12          0.677              1.720              1.565
 Vibration    13          0.686              1.694              1.479
 Vibration    14          0.712              1.616              1.262
 Vibration    15          0.727              1.576              1.169
 Vibration    16          0.767              1.466              0.956
 Vibration    17          0.771              1.456              0.939
 Vibration    18          0.791              1.405              0.859
 Vibration    19          0.792              1.402              0.854
 Vibration    20          0.803              1.375              0.816
 Vibration    21          0.808              1.364              0.800
 Vibration    22          0.843              1.279              0.692
 Vibration    23          0.845              1.274              0.686
 Vibration    24          0.846              1.272              0.684
 Vibration    25          0.882              1.191              0.595
 Vibration    26          0.891              1.171              0.575
 Vibration    27          0.910              1.129              0.534
 Vibration    28          0.963              1.022              0.442

                           ! Non-Optimized Parameters !
 Normal termination of Gaussian 16 at Sun Jan  7 05:53:50 2024.
