 Q-Chem 5.4, Q-Chem, Inc., Pleasanton, CA (2021)
 Q-Chem 5.4.0 for Intel X86 EM64T Linux

User input:
--------------------------------------------------------------
$molecule
-2 2
C                 -1.8374010000      2.7944940000     -0.7927810000
C                 -2.9200650000      1.9826550000     -0.5068510000
C                 -2.6989100000      0.6628820000     -0.0669650000
C                 -0.5102210000      2.3343390000     -0.6552550000
C                 -0.2847740000      0.9922280000     -0.2079330000
C                 -1.4078100000      0.1824510000      0.0779130000
C                  0.5900990000      3.2597620000     -0.9796710000
C                  1.9770310000      2.7395760000     -0.8227770000
C                  2.1213040000      1.3688550000     -0.3646550000
C                  1.0802030000      0.5346840000     -0.0717200000
O                  0.3593780000      4.4313160000     -1.3696250000
O                  2.9837600000      3.4518070000     -1.0743240000
H                 -1.9683910000      3.8159610000     -1.1336890000
H                 -3.9342380000      2.3599490000     -0.6205740000
H                 -3.5410160000      0.0142220000      0.1612530000
H                 -1.2403830000     -0.8311850000      0.4158100000
H                  3.1344970000      0.9996610000     -0.2536390000
S                  1.4558180000     -1.1717380000      0.4958960000
O                  2.9411030000     -1.2733070000      0.5117610000
O                  0.8102590000     -2.0750350000     -0.5040960000
O                  0.8391080000     -1.2849740000      1.8521880000
$end
$rem
MAX_SCF_CYCLES=200
BASIS  =  6-311++G(d,p)
GUI  =  2
JOB_TYPE  =  SP
METHOD  =  B3LYP
SOLVENT_METHOD = COSMO
$end
$solvent
dielectric 37.219
opticaldielectric 1.43
$end

--------------------------------------------------------------

             Standard Nuclear Orientation (Angstroms)
    I     Atom           X                Y                Z
 ----------------------------------------------------------------
    1      C       2.6893310712     1.3457225422     0.0000496608
    2      C       2.3268713120     2.6804969727    -0.0000305043
    3      C       0.9616158590     3.0273219236    -0.0000375625
    4      C       1.7237063018     0.3163384638     0.0000204896
    5      C       0.3351287670     0.6685283098     0.0000110301
    6      C      -0.0095484688     2.0396060559     0.0000226524
    7      C       2.1893412853    -1.0820683543    -0.0000539537
    8      C       1.1421568438    -2.1414050893    -0.0000946490
    9      C      -0.2423959315    -1.7025655821     0.0000629571
   10      C      -0.6427822763    -0.3967194056     0.0000207873
   11      O       3.4147173331    -1.3582722814     0.0000420517
   12      O       1.4378519435    -3.3647679013    -0.0000043964
   13      H       3.7302464851     1.0403267762     0.0001117293
   14      H       3.0896300217     3.4564027066    -0.0000302774
   15      H       0.6630095257     4.0727022485    -0.0000542011
   16      H      -1.0571704611     2.3082178287     0.0000333920
   17      H      -0.9969225751    -2.4809474686     0.0000604406
   18      S      -2.4431304763    -0.0308000808     0.0000048682
   19      O      -3.1234498853    -1.3551129898     0.0005635897
   20      O      -2.6883196296     0.7613612307    -1.2429909597
   21      O      -2.6882065062     0.7623624645     1.2423866619
 ----------------------------------------------------------------

   11   -1158.6126618775      7.29e-06  Convergence criterion met
 Total energy in the final basis set =    -1158.6126618775
    5   -1158.8851351016      5.72e-06  Convergence criterion met
 Total energy in the final basis set =    -1158.8851351016

                    Orbital Energies (a.u.)
 --------------------------------------------------------------

 Alpha MOs
 -- Occupied --
-89.0470 -19.0938 -19.0912 -19.0912 -19.0860 -19.0838 -10.2266 -10.2227
-10.1973 -10.1890 -10.1760 -10.1721 -10.1708 -10.1705 -10.1694 -10.1680
 -8.1058  -6.0686  -6.0685  -6.0673  -1.1086  -1.0193  -0.9923  -0.9747
 -0.9706  -0.8655  -0.8113  -0.7567  -0.7322  -0.6973  -0.6247  -0.6141
 -0.5936  -0.5547  -0.5127  -0.5030  -0.4890  -0.4556  -0.4554  -0.4509
 -0.4439  -0.4250  -0.4238  -0.4208  -0.4101  -0.3903  -0.3741  -0.3563
 -0.3526  -0.3502  -0.3375  -0.3321  -0.3229  -0.2989  -0.2936  -0.2871
 -0.2651  -0.2611  -0.2561  -0.2332  -0.2328  -0.1651

 Beta MOs
 -- Occupied --
-89.0471 -19.0938 -19.0910 -19.0910 -19.0801 -19.0771 -10.2249 -10.2210
-10.1951 -10.1885 -10.1759 -10.1715 -10.1707 -10.1705 -10.1690 -10.1681
 -8.1058  -6.0686  -6.0685  -6.0674  -1.1084  -1.0085  -0.9804  -0.9746
 -0.9701  -0.8633  -0.8079  -0.7538  -0.7307  -0.6894  -0.6215  -0.6129
 -0.5899  -0.5529  -0.5110  -0.5013  -0.4862  -0.4547  -0.4546  -0.4494
 -0.4419  -0.4241  -0.4174  -0.4060  -0.4053  -0.3881  -0.3612  -0.3514
 -0.3494  -0.3378  -0.3340  -0.3315  -0.3101  -0.2985  -0.2917  -0.2803
 -0.2593  -0.2592  -0.2492  -0.2271  -0.2244

          Ground-State Mulliken Net Atomic Charges

     Atom                 Charge (a.u.)    Spin (a.u.)
  --------------------------------------------------------
      1 C                     0.143118       0.061371
      2 C                    -0.513698       0.002278
      3 C                    -0.868840       0.056825
      4 C                     0.525196      -0.002601
      5 C                     0.991828       0.023124
      6 C                    -0.523864       0.008991
      7 C                    -0.592771       0.126369
      8 C                     0.107212       0.177002
      9 C                     0.090462      -0.042679
     10 C                    -0.734772       0.130469
     11 O                    -0.497595       0.218688
     12 O                    -0.537403       0.240045
     13 H                     0.178446      -0.004306
     14 H                     0.205153      -0.001017
     15 H                     0.208127      -0.003854
     16 H                     0.163062       0.001241
     17 H                     0.251872      -0.001540
     18 S                     0.598692      -0.000872
     19 O                    -0.350272       0.000163
     20 O                    -0.421941       0.005154
     21 O                    -0.422012       0.005147
  --------------------------------------------------------
  Sum of atomic charges =    -2.000000

                    Cartesian Multipole Moments
 -----------------------------------------------------------------
    Charge (ESU x 10^10)
                -9.6064
    Dipole Moment (Debye)
         X       4.7340      Y      10.8806      Z      -0.0004
       Tot      11.8658
    Quadrupole Moments (Debye-Ang)
        XX    -183.1469     XY      25.7534     YY    -140.8165
        XZ      -0.0002     YZ       0.0024     ZZ    -114.6906

 Total job time:  63.92s(wall), 492.51s(cpu)
        *  Thank you very much for using Q-Chem.  Have a nice day.  *
