 Gaussian 16, Revision A.03,
 Gaussian 16:  ES64L-G16RevA.03 25-Dec-2016

 ----------------------------------------------------------------------
 #P UB3LYP/6-311++G(d,p) nosym opt freq SCRF=(PCM,Solvent=n,n-DiMethylF
 ormamide)
 ----------------------------------------------------------------------

 --------
 Oxidized
 --------
 Symbolic Z-matrix:
 Charge =  0 Multiplicity = 1

 SCF Done:  E(UB3LYP) =  -839.479745022     A.U. after   14 cycles
 SCF Done:  E(UB3LYP) =  -839.479834463     A.U. after   11 cycles
 SCF Done:  E(UB3LYP) =  -839.479849792     A.U. after   10 cycles
 SCF Done:  E(UB3LYP) =  -839.479854732     A.U. after    9 cycles
 SCF Done:  E(UB3LYP) =  -839.479855029     A.U. after    8 cycles
 Optimization completed.
    -- Stationary point found.
 Normal termination of Gaussian 16 at Sat Feb 10 22:21:24 2024.

 ----------------------------------------------------------------------
 #P Geom=AllCheck Guess=TCheck SCRF=Check GenChk UB3LYP/6-311++G(d,p) F
 req
 ----------------------------------------------------------------------

 Structure from the checkpoint file:  "185.chk"
 --------
 Oxidized
 --------
 Charge =  0 Multiplicity = 1

                          Input orientation:
 ---------------------------------------------------------------------
 Center     Atomic      Atomic             Coordinates (Angstroms)
 Number     Number       Type             X           Y           Z
 ---------------------------------------------------------------------
      1          6           0        4.902426   -2.861478   -0.362367
      2          6           0        5.625093   -1.958599   -1.133976
      3          6           0        5.034047   -0.763037   -1.552521
      4          6           0        3.581168   -2.578731   -0.000832
      5          6           0        2.985696   -1.373718   -0.422121
      6          6           0        3.721444   -0.472282   -1.198342
      7          6           0        2.824504   -3.550815    0.820660
      8          6           0        1.445890   -3.230890    1.185637
      9          6           0        0.842302   -2.008550    0.759124
     10          6           0        1.588966   -1.049620   -0.052751
     11          6           0        0.706414   -4.135217    1.965513
     12          6           0       -0.626057   -3.825853    2.319389
     13          6           0       -0.483857   -1.724719    1.124610
     14          6           0       -1.205939   -2.651353    1.909617
     15          8           0        3.357051   -4.614219    1.189672
     16          8           0        1.068394    0.017274   -0.428723
     17          8           0        1.209796   -5.300875    2.400500
     18          1           0        5.348407   -3.790629   -0.031943
     19          1           0        6.648309   -2.183113   -1.410787
     20          1           0        5.598956   -0.060812   -2.153984
     21          1           0        3.252264    0.449944   -1.515782
     22          1           0        2.140364   -5.350294    2.063038
     23          8           0       -1.113038   -0.596685    0.759853
     24          1           0       -2.227270   -2.411715    2.179421
     25          1           0       -1.177478   -4.537874    2.921297
     26          1           0       -0.465564   -0.073129    0.222358
 ---------------------------------------------------------------------

 SCF Done:  E(UB3LYP) =  -839.479855029     A.U. after    2 cycles

 Alpha  occ. eigenvalues --  -19.16657 -19.16657 -19.14097 -19.14096 -10.29101
 Alpha  occ. eigenvalues --  -10.29100 -10.27080 -10.27078 -10.21462 -10.21413
 Alpha  occ. eigenvalues --  -10.21338 -10.21295 -10.20765 -10.20701 -10.20251
 Alpha  occ. eigenvalues --  -10.20227 -10.20191 -10.20162  -1.09502  -1.09335
 Alpha  occ. eigenvalues --   -1.06231  -1.06100  -0.89953  -0.88272  -0.82291
 Alpha  occ. eigenvalues --   -0.78530  -0.78029  -0.76937  -0.70618  -0.67612
 Alpha  occ. eigenvalues --   -0.66588  -0.63517  -0.60854  -0.57615  -0.56520
 Alpha  occ. eigenvalues --   -0.55789  -0.54378  -0.50809  -0.49852  -0.49305
 Alpha  occ. eigenvalues --   -0.47349  -0.46935  -0.45832  -0.45642  -0.45416
 Alpha  occ. eigenvalues --   -0.44221  -0.43844  -0.43432  -0.43040  -0.40611
 Alpha  occ. eigenvalues --   -0.39490  -0.38987  -0.38717  -0.38161  -0.37275
 Alpha  occ. eigenvalues --   -0.33736  -0.30135  -0.29841  -0.28585  -0.28354
 Alpha  occ. eigenvalues --   -0.28301  -0.23800
 Alpha virt. eigenvalues --   -0.12750  -0.07519  -0.04433  -0.01880  -0.00636
 Alpha virt. eigenvalues --    0.00288   0.00741   0.01491   0.02146   0.02826
 Alpha virt. eigenvalues --    0.03598   0.03709   0.03814   0.04156   0.04184

  Beta  occ. eigenvalues --  -19.16657 -19.16657 -19.14097 -19.14096 -10.29101
  Beta  occ. eigenvalues --  -10.29100 -10.27080 -10.27078 -10.21462 -10.21413
  Beta  occ. eigenvalues --  -10.21338 -10.21295 -10.20765 -10.20701 -10.20251
  Beta  occ. eigenvalues --  -10.20227 -10.20191 -10.20162  -1.09502  -1.09335
  Beta  occ. eigenvalues --   -1.06231  -1.06100  -0.89953  -0.88272  -0.82291
  Beta  occ. eigenvalues --   -0.78530  -0.78029  -0.76937  -0.70618  -0.67612
  Beta  occ. eigenvalues --   -0.66588  -0.63517  -0.60854  -0.57615  -0.56520
  Beta  occ. eigenvalues --   -0.55789  -0.54378  -0.50809  -0.49852  -0.49305
  Beta  occ. eigenvalues --   -0.47349  -0.46935  -0.45832  -0.45642  -0.45416
  Beta  occ. eigenvalues --   -0.44221  -0.43844  -0.43432  -0.43040  -0.40611
  Beta  occ. eigenvalues --   -0.39490  -0.38987  -0.38717  -0.38161  -0.37275
  Beta  occ. eigenvalues --   -0.33736  -0.30135  -0.29841  -0.28585  -0.28354
  Beta  occ. eigenvalues --   -0.28301  -0.23800
  Beta virt. eigenvalues --   -0.12750  -0.07519  -0.04433  -0.01880  -0.00636
  Beta virt. eigenvalues --    0.00288   0.00741   0.01491   0.02146   0.02826
  Beta virt. eigenvalues --    0.03598   0.03709   0.03814   0.04156   0.04184

 Mulliken charges and spin densities:
               1          2
     1  C    0.104311   0.000000
     2  C   -0.430690  -0.000000
     3  C   -0.430406  -0.000000
     4  C    0.052411  -0.000000
     5  C    0.051928  -0.000000
     6  C    0.104276   0.000000
     7  C   -0.279245   0.000000
     8  C    0.620183   0.000000
     9  C    0.620272   0.000000
    10  C   -0.279489   0.000000
    11  C   -0.334976  -0.000000
    12  C   -0.058757   0.000000
    13  C   -0.334852   0.000000
    14  C   -0.058905  -0.000000
    15  O   -0.333285   0.000000
    16  O   -0.333284   0.000000
    17  O   -0.317973   0.000000
    18  H    0.192160  -0.000000
    19  H    0.209287   0.000000
    20  H    0.209261  -0.000000
    21  H    0.192202  -0.000000
    22  H    0.344028  -0.000000
    23  O   -0.317930   0.000000
    24  H    0.232774  -0.000000
    25  H    0.232749   0.000000
    26  H    0.343949   0.000000
 Sum of Mulliken charges =  -0.00000  -0.00000

 Dipole moment (field-independent basis, Debye):
    X=              2.3301    Y=              0.7012    Z=             -1.2875  Tot=              2.7529
 Quadrupole moment (field-independent basis, Debye-Ang):
   XX=            -79.0981   YY=           -116.8414   ZZ=           -101.6508
   XY=              6.7210   XZ=            -13.7250   YZ=              3.8265

  Exact polarizability: 356.463  -3.108 266.292 -93.654 -82.195 193.583
 Approx polarizability: 410.042 -21.786 339.319 -96.229-103.103 227.061

                      1                      2                      3
                      A                      A                      A
 Frequencies --     50.3141                87.6685               132.7376
 Red. masses --      6.7162                 5.8316                 6.9870
 Frc consts  --      0.0100                 0.0264                 0.0725
 IR Inten    --      5.1310                 0.0006                 0.0002

                      4                      5                      6
                      A                      A                      A
 Frequencies --    151.7472               174.6869               209.1301
 Red. masses --      7.2395                 7.1463                 5.5374
 Frc consts  --      0.0982                 0.1285                 0.1427
 IR Inten    --      1.5389                 0.3321                 0.5321

                      7                      8                      9
                      A                      A                      A
 Frequencies --    232.9472               318.0949               335.8124
 Red. masses --      6.4143                 6.7081                 6.3200
 Frc consts  --      0.2051                 0.3999                 0.4199
 IR Inten    --      0.9115                 0.4303                 9.9031

                     10                     11                     12
                      A                      A                      A
 Frequencies --    365.3367               398.7019               423.4901
 Red. masses --      5.5489                12.4293                 7.0754
 Frc consts  --      0.4364                 1.1641                 0.7476
 IR Inten    --      0.0019                 1.5809                31.7148

                     13                     14                     15
                      A                      A                      A
 Frequencies --    423.9667               429.9916               438.4941
 Red. masses --      3.3139                 6.0406                12.9494
 Frc consts  --      0.3510                 0.6580                 1.4670
 IR Inten    --      1.4453                 0.0124                14.2286

                     16                     17                     18
                      A                      A                      A
 Frequencies --    465.9503               488.3457               511.8627
 Red. masses --      9.2830                 4.7349                 5.4918
 Frc consts  --      1.1875                 0.6653                 0.8478
 IR Inten    --     37.4722                 0.0006                25.6108

                     19                     20                     21
                      A                      A                      A
 Frequencies --    522.8431               581.8116               610.6109
 Red. masses --      9.9071                 3.2508                 5.7004
 Frc consts  --      1.5957                 0.6484                 1.2522
 IR Inten    --      0.4064                34.3735                 5.2284

                     22                     23                     24
                      A                      A                      A
 Frequencies --    665.7045               668.1687               708.8628
 Red. masses --      6.7362                 5.1923                 7.2526
 Frc consts  --      1.7589                 1.3658                 2.1472
 IR Inten    --     18.5579                 0.0027                28.8931

                     25                     26                     27
                      A                      A                      A
 Frequencies --    710.0666               732.7466               766.0020
 Red. masses --      6.8639                 1.9627                 7.1379
 Frc consts  --      2.0390                 0.6209                 2.4676
 IR Inten    --      0.0092                26.1110                 7.4029

                     28                     29                     30
                      A                      A                      A
 Frequencies --    779.1488               785.0034               785.9557
 Red. masses --      3.5612                 1.1183                 1.2136
 Frc consts  --      1.2738                 0.4060                 0.4417
 IR Inten    --      0.1000               421.3555                 0.6417

                     31                     32                     33
                      A                      A                      A
 Frequencies --    814.5560               855.6812               884.6684
 Red. masses --      2.1000                 1.6123                 7.8699
 Frc consts  --      0.8209                 0.6955                 3.6289
 IR Inten    --      0.0316                24.7589                88.2600

                     34                     35                     36
                      A                      A                      A
 Frequencies --    912.1862               914.6296               983.2845
 Red. masses --      1.3784                 7.6295                 5.7591
 Frc consts  --      0.6758                 3.7604                 3.2807
 IR Inten    --      0.0108                12.9682                56.5390

                     37                     38                     39
                      A                      A                      A
 Frequencies --    983.7085              1002.2813              1023.7528
 Red. masses --      1.3058                 1.3853                 1.3318
 Frc consts  --      0.7445                 0.8199                 0.8224
 IR Inten    --      0.2777                 1.7884                 0.0013

                     40                     41                     42
                      A                      A                      A
 Frequencies --   1047.4312              1088.9007              1113.9178
 Red. masses --      2.7126                 2.1021                 2.2985
 Frc consts  --      1.7534                 1.4685                 1.6804
 IR Inten    --     55.9029                74.0687                 4.3830

                     43                     44                     45
                      A                      A                      A
 Frequencies --   1169.1464              1182.6196              1183.2574
 Red. masses --      1.3621                 1.5911                 1.4730
 Frc consts  --      1.0970                 1.3111                 1.2151
 IR Inten    --    125.2793                63.6514                67.0076

                     46                     47                     48
                      A                      A                      A
 Frequencies --   1240.3797              1247.5203              1289.2837
 Red. masses --      4.0565                 1.7658                 1.9773
 Frc consts  --      3.6771                 1.6192                 1.9365
 IR Inten    --   1019.2126               162.2557               467.8764

                     49                     50                     51
                      A                      A                      A
 Frequencies --   1291.6738              1343.1246              1347.2811
 Red. masses --      4.4488                 2.9767                 4.3083
 Frc consts  --      4.3732                 3.1639                 4.6075
 IR Inten    --     14.3128                20.2874               419.2577

                     52                     53                     54
                      A                      A                      A
 Frequencies --   1368.4033              1391.2131              1423.4506
 Red. masses --      4.6326                 2.7091                 7.7673
 Frc consts  --      5.1110                 3.0893                 9.2726
 IR Inten    --    448.6217               364.9963                56.1658

                     55                     56                     57
                      A                      A                      A
 Frequencies --   1472.4264              1485.2137              1496.1455
 Red. masses --      2.3469                 2.5387                 3.6183
 Frc consts  --      2.9978                 3.2994                 4.7720
 IR Inten    --    421.8777                 1.0458               105.6278

                     58                     59                     60
                      A                      A                      A
 Frequencies --   1504.2436              1592.8487              1607.1849
 Red. masses --      2.6915                 3.6393                 6.4217
 Frc consts  --      3.5882                 5.4403                 9.7732
 IR Inten    --      5.9889               165.8506               797.8351

                     61                     62                     63
                      A                      A                      A
 Frequencies --   1612.3586              1622.4110              1650.0921
 Red. masses --      5.3102                 3.2800                 8.3926
 Frc consts  --      8.1336                 5.0869                13.4637
 IR Inten    --     86.1024                18.5389               353.1742

                     64                     65                     66
                      A                      A                      A
 Frequencies --   1670.7616              3180.8368              3191.4999
 Red. masses --      8.3006                 1.0877                 1.0885
 Frc consts  --     13.6518                 6.4838                 6.5325
 IR Inten    --      4.0726                 3.3637                 3.7236

                     67                     68                     69
                      A                      A                      A
 Frequencies --   3193.0919              3204.1807              3206.5245
 Red. masses --      1.0918                 1.0963                 1.0926
 Frc consts  --      6.5587                 6.6314                 6.6191
 IR Inten    --     13.6655                 7.0863                 1.6345

                     70                     71                     72
                      A                      A                      A
 Frequencies --   3209.1899              3263.7341              3265.9777
 Red. masses --      1.0952                 1.0691                 1.0682
 Frc consts  --      6.6458                 6.7095                 6.7131
 IR Inten    --     17.5594               620.6411                68.3931

 - Thermochemistry -
 -------------------
 Temperature   298.150 Kelvin.  Pressure   1.00000 Atm.
 Atom     1 has atomic number  6 and mass  12.00000

 Molecular mass:   240.04226 amu.
 Principal axes and moments of inertia in atomic units:
                           1         2         3
     Eigenvalues --  2523.556574686.816807210.37201
           X            0.84609  -0.42266   0.32480
           Y            0.25438   0.85563   0.45076
           Z           -0.46842  -0.29876   0.83146
 This molecule is an asymmetric top.
 Rotational symmetry number  1.
 Warning -- assumption of classical behavior for rotation
           may cause significant error
 Rotational temperatures (Kelvin)      0.03432     0.01848     0.01201
 Rotational constants (GHZ):           0.71516     0.38507     0.25030
 Zero-point vibrational energy     493383.5 (Joules/Mol)
                                  117.92148 (Kcal/Mol)
 Warning -- explicit consideration of  21 degrees of freedom as
           vibrations may cause significant error
 Vibrational temperatures:     72.39   126.14   190.98   218.33   251.34
          (Kelvin)            300.89   335.16   457.67   483.16   525.64
                              573.64   609.31   609.99   618.66   630.90
                              670.40   702.62   736.46   752.25   837.10
                              878.53   957.80   961.35  1019.90  1021.63
                             1054.26  1102.11  1121.02  1129.44  1130.81
                             1171.96  1231.13  1272.84  1312.43  1315.95
                             1414.73  1415.34  1442.06  1472.95  1507.02
                             1566.69  1602.68  1682.14  1701.53  1702.44
                             1784.63  1794.90  1854.99  1858.43  1932.46
                             1938.44  1968.83  2001.65  2048.03  2118.49
                             2136.89  2152.62  2164.27  2291.75  2312.38
                             2319.82  2334.29  2374.11  2403.85  4576.51
                             4591.86  4594.15  4610.10  4613.47  4617.31
                             4695.79  4699.01

 Zero-point correction=                           0.187920 (Hartree/Particle)
 Thermal correction to Energy=                    0.200732
 Thermal correction to Enthalpy=                  0.201676
 Thermal correction to Gibbs Free Energy=         0.148738
 Sum of electronic and zero-point Energies=           -839.291935
 Sum of electronic and thermal Energies=              -839.279123
 Sum of electronic and thermal Enthalpies=            -839.278179
 Sum of electronic and thermal Free Energies=         -839.331117

                     E (Thermal)             CV                S
                      KCal/Mol        Cal/Mol-Kelvin    Cal/Mol-Kelvin
 Total                  125.961             52.703            111.418
 Electronic               0.000              0.000              0.000
 Translational            0.889              2.981             42.328
 Rotational               0.889              2.981             32.811
 Vibrational            124.184             46.741             36.278
 Vibration     1          0.595              1.977              4.805
 Vibration     2          0.601              1.958              3.711
 Vibration     3          0.613              1.921              2.906
 Vibration     4          0.619              1.901              2.650
 Vibration     5          0.627              1.874              2.384
 Vibration     6          0.642              1.827              2.051
 Vibration     7          0.654              1.791              1.856
 Vibration     8          0.704              1.639              1.320
 Vibration     9          0.717              1.604              1.232
 Vibration    10          0.739              1.544              1.099
 Vibration    11          0.765              1.473              0.967
 Vibration    12          0.786              1.419              0.880
 Vibration    13          0.786              1.418              0.879
 Vibration    14          0.791              1.405              0.859
 Vibration    15          0.799              1.386              0.831
 Vibration    16          0.823              1.326              0.749
 Vibration    17          0.844              1.276              0.688
 Vibration    18          0.867              1.224              0.629
 Vibration    19          0.878              1.199              0.603
 Vibration    20          0.939              1.071              0.482
 Vibration    21          0.970              1.009              0.432

 Optimization completed.
    -- Stationary point found.
 Normal termination of Gaussian 16 at Sat Feb 10 23:20:58 2024.
