 Q-Chem 5.4, Q-Chem, Inc., Pleasanton, CA (2021)
 Q-Chem 5.4.0 for Intel X86 EM64T Linux

User input:
--------------------------------------------------------------
$molecule
0 1
N                 -4.5123570000     -0.8893230000     -0.7774490000
C                 -3.2682400000     -0.6408720000     -0.2323240000
C                 -3.0675900000     -0.7108990000      1.1617370000
C                 -1.8120990000     -0.5059270000      1.7020800000
C                 -0.7094120000     -0.2260560000      0.8833380000
C                  0.6193500000     -0.0119900000      1.4941200000
O                  0.7924630000     -0.0701040000      2.7040300000
C                  1.7595410000      0.2815830000      0.5703000000
C                  3.0327400000      0.4874640000      1.1086500000
C                  4.1100100000      0.7620020000      0.2737770000
C                  3.9252460000      0.8340200000     -1.1096760000
C                  2.6629450000      0.6313090000     -1.6544390000
C                  1.5737050000      0.3542220000     -0.8218500000
C                  0.2303180000      0.1416970000     -1.4339540000
O                  0.0644260000      0.2088580000     -2.6414520000
C                 -0.9061120000     -0.1564790000     -0.5093280000
C                 -2.1680010000     -0.3622260000     -1.0557270000
H                 -5.3154550000     -0.8192080000     -0.1728270000
H                 -4.6768120000     -0.5938770000     -1.7268320000
H                 -3.9085850000     -0.9308770000      1.8114650000
H                 -1.6564890000     -0.5577450000      2.7728120000
H                  3.1525910000      0.4270770000      2.1832900000
H                  5.0952890000      0.9204020000      0.6976560000
H                  4.7666210000      1.0481010000     -1.7589770000
H                  2.4958540000      0.6823910000     -2.7232550000
H                 -2.2799470000     -0.3035420000     -2.1324930000
$end
$rem
MAX_SCF_CYCLES=200
BASIS  =  6-311++G(d,p)
GUI  =  2
JOB_TYPE  =  SP
METHOD  =  B3LYP
SOLVENT_METHOD = PCM
$end
$pcm
theory = CPCM
$end
$solvent
dielectric 37.219
opticaldielectric 1.43
$end

--------------------------------------------------------------

             Standard Nuclear Orientation (Angstroms)
    I     Atom           X                Y                Z
 ----------------------------------------------------------------
    1      N      -4.5123570000    -0.8893230000    -0.7774490000
    2      C      -3.2682400000    -0.6408720000    -0.2323240000
    3      C      -3.0675900000    -0.7108990000     1.1617370000
    4      C      -1.8120990000    -0.5059270000     1.7020800000
    5      C      -0.7094120000    -0.2260560000     0.8833380000
    6      C       0.6193500000    -0.0119900000     1.4941200000
    7      O       0.7924630000    -0.0701040000     2.7040300000
    8      C       1.7595410000     0.2815830000     0.5703000000
    9      C       3.0327400000     0.4874640000     1.1086500000
   10      C       4.1100100000     0.7620020000     0.2737770000
   11      C       3.9252460000     0.8340200000    -1.1096760000
   12      C       2.6629450000     0.6313090000    -1.6544390000
   13      C       1.5737050000     0.3542220000    -0.8218500000
   14      C       0.2303180000     0.1416970000    -1.4339540000
   15      O       0.0644260000     0.2088580000    -2.6414520000
   16      C      -0.9061120000    -0.1564790000    -0.5093280000
   17      C      -2.1680010000    -0.3622260000    -1.0557270000
   18      H      -5.3154550000    -0.8192080000    -0.1728270000
   19      H      -4.6768120000    -0.5938770000    -1.7268320000
   20      H      -3.9085850000    -0.9308770000     1.8114650000
   21      H      -1.6564890000    -0.5577450000     2.7728120000
   22      H       3.1525910000     0.4270770000     2.1832900000
   23      H       5.0952890000     0.9204020000     0.6976560000
   24      H       4.7666210000     1.0481010000    -1.7589770000
   25      H       2.4958540000     0.6823910000    -2.7232550000
   26      H      -2.2799470000    -0.3035420000    -2.1324930000
 ----------------------------------------------------------------

    8    -744.3546152695      9.64e-06  Convergence criterion met
 Total energy in the final basis set =     -744.3546152695

                    Orbital Energies (a.u.)
 --------------------------------------------------------------

 Alpha MOs
 -- Occupied --
-19.1304 -19.1217 -14.3324 -10.2819 -10.2748 -10.2406 -10.2053 -10.2052
-10.2046 -10.1951 -10.1947 -10.1940 -10.1935 -10.1932 -10.1928 -10.1883
-10.1883  -1.0653  -1.0567  -0.9386  -0.8875  -0.8677  -0.8017  -0.7756
 -0.7728  -0.7549  -0.6854  -0.6636  -0.6389  -0.6174  -0.5846  -0.5623
 -0.5582  -0.5257  -0.5083  -0.4964  -0.4819  -0.4677  -0.4567  -0.4523
 -0.4491  -0.4445  -0.4442  -0.4308  -0.4159  -0.4096  -0.4018  -0.3787
 -0.3755  -0.3706  -0.3614  -0.3291  -0.2855  -0.2836  -0.2770  -0.2744
 -0.2717  -0.2292

          Ground-State Mulliken Net Atomic Charges

     Atom                 Charge (a.u.)
  ----------------------------------------
      1 N                    -0.357869
      2 C                    -0.483035
      3 C                    -0.091753
      4 C                     0.202943
      5 C                     0.146422
      6 C                    -0.556337
      7 O                    -0.322075
      8 C                     0.105710
      9 C                     0.178748
     10 C                    -0.443119
     11 C                    -0.435697
     12 C                     0.157797
     13 C                     0.281175
     14 C                    -0.692634
     15 O                    -0.291366
     16 C                     0.556389
     17 C                    -0.010041
     18 H                     0.302866
     19 H                     0.302735
     20 H                     0.230372
     21 H                     0.195043
     22 H                     0.195601
     23 H                     0.221537
     24 H                     0.221913
     25 H                     0.194930
     26 H                     0.189746
  ----------------------------------------
  Sum of atomic charges =     0.000000

                    Cartesian Multipole Moments
 -----------------------------------------------------------------
    Charge (ESU x 10^10)
                 0.0000
    Dipole Moment (Debye)
         X      -3.5560      Y       0.3867      Z      -1.2542
       Tot       3.7905
    Quadrupole Moments (Debye-Ang)
        XX     -48.5514     XY       5.5089     YY    -101.7148
        XZ      -2.4521     YZ      -0.7742     ZZ    -110.3394

 Total job time:  100.49s(wall), 289.98s(cpu)
        *  Thank you very much for using Q-Chem.  Have a nice day.  *
