 Gaussian 16, Revision A.03,
 Gaussian 16:  ES64L-G16RevA.03 25-Dec-2016

 --------------------------------------
 #P UB3LYP/6-311++G(d,p) nosym opt freq
 --------------------------------------

 -------
 Radical
 -------
 Symbolic Z-matrix:
 Charge = -1 Multiplicity = 2

 SCF Done:  E(UB3LYP) =  -1148.60985841     A.U. after   24 cycles
 SCF Done:  E(UB3LYP) =  -1148.63036027     A.U. after   22 cycles
 SCF Done:  E(UB3LYP) =  -1148.63389917     A.U. after   18 cycles
 SCF Done:  E(UB3LYP) =  -1148.63437865     A.U. after   16 cycles
 SCF Done:  E(UB3LYP) =  -1148.63441983     A.U. after   13 cycles
 SCF Done:  E(UB3LYP) =  -1148.63442220     A.U. after   12 cycles
 Optimization completed.
    -- Stationary point found.
 Normal termination of Gaussian 16 at Thu Dec 21 06:16:30 2023.

 ----------------------------------------------------------------------
 #P Geom=AllCheck Guess=TCheck SCRF=Check GenChk UB3LYP/6-311++G(d,p) F
 req
 ----------------------------------------------------------------------

 Structure from the checkpoint file:  "117-rad.chk"
 -------
 Radical
 -------
 Charge = -1 Multiplicity = 2

                          Input orientation:
 ---------------------------------------------------------------------
 Center     Atomic      Atomic             Coordinates (Angstroms)
 Number     Number       Type             X           Y           Z
 ---------------------------------------------------------------------
      1         17           0        2.996117    2.864936    0.337366
      2          6           0        2.621898    1.132240    0.263182
      3          6           0        3.726171    0.305771    0.343660
      4          6           0        3.566780   -1.090630    0.296668
      5          6           0        2.305086   -1.625342    0.170243
      6          6           0        1.164805   -0.800231    0.086557
      7          6           0       -0.130754   -1.474479   -0.046042
      8          8           0       -0.220162   -2.727628   -0.083392
      9          6           0       -1.306398   -0.616286   -0.132248
     10          6           0       -2.586840   -1.199486   -0.261455
     11          6           0       -3.720176   -0.416996   -0.345678
     12          6           0       -3.607111    0.989767   -0.302777
     13          6           0       -2.364256    1.577810   -0.176805
     14          6           0       -1.190423    0.797616   -0.088891
     15          6           0        0.101829    1.489244    0.043918
     16          8           0        0.143209    2.738380    0.076576
     17          6           0        1.295720    0.633923    0.131812
     18          1           0        4.709474    0.748498    0.442821
     19          1           0        4.439569   -1.732772    0.360509
     20          1           0        2.138198   -2.694785    0.130198
     21          1           0       -2.639868   -2.281601   -0.291387
     22          1           0       -4.697332   -0.880559   -0.444731
     23          1           0       -4.497486    1.608053   -0.368864
     24          1           0       -2.248048    2.654558   -0.141240
 ---------------------------------------------------------------------

 SCF Done:  E(UB3LYP) =  -1148.63442220     A.U. after    1 cycles

 Alpha  occ. eigenvalues -- -101.42691 -18.95024 -18.94938 -10.12098 -10.10565
 Alpha  occ. eigenvalues --  -10.10051 -10.06968 -10.06739 -10.06618 -10.06277
 Alpha  occ. eigenvalues --  -10.06211 -10.06033 -10.05613 -10.05566 -10.05499
 Alpha  occ. eigenvalues --  -10.05452 -10.05379  -9.34165  -7.10621  -7.09685
 Alpha  occ. eigenvalues --   -7.09579  -0.88071  -0.87624  -0.76796  -0.74120
 Alpha  occ. eigenvalues --   -0.71563  -0.67114  -0.63460  -0.62824  -0.61962
 Alpha  occ. eigenvalues --   -0.55018  -0.52521  -0.50653  -0.46944  -0.43681
 Alpha  occ. eigenvalues --   -0.42386  -0.41125  -0.35887  -0.35638  -0.35060
 Alpha  occ. eigenvalues --   -0.34316  -0.31379  -0.30869  -0.30513  -0.29867
 Alpha  occ. eigenvalues --   -0.28799  -0.28595  -0.26823  -0.26697  -0.25565
 Alpha  occ. eigenvalues --   -0.24198  -0.23498  -0.22961  -0.21996  -0.20916
 Alpha  occ. eigenvalues --   -0.19339  -0.15017  -0.13965  -0.13635  -0.13249
 Alpha  occ. eigenvalues --   -0.11899  -0.10694  -0.01990
 Alpha virt. eigenvalues --    0.06085   0.08108   0.08299   0.08843   0.10072
 Alpha virt. eigenvalues --    0.10465   0.10745   0.11379   0.12375   0.13058
 Alpha virt. eigenvalues --    0.14174   0.14984   0.15337   0.15813   0.16161

  Beta  occ. eigenvalues -- -101.42690 -18.94423 -18.94326 -10.12112 -10.10462
  Beta  occ. eigenvalues --  -10.09912 -10.06858 -10.06674 -10.06552 -10.06242
  Beta  occ. eigenvalues --  -10.06158 -10.05919 -10.05626 -10.05565 -10.05499
  Beta  occ. eigenvalues --  -10.05381 -10.05307  -9.34164  -7.10620  -7.09680
  Beta  occ. eigenvalues --   -7.09579  -0.87044  -0.86575  -0.76667  -0.73935
  Beta  occ. eigenvalues --   -0.71446  -0.66712  -0.63283  -0.62620  -0.61775
  Beta  occ. eigenvalues --   -0.54309  -0.52358  -0.50388  -0.46874  -0.43475
  Beta  occ. eigenvalues --   -0.42148  -0.41002  -0.35750  -0.35403  -0.34897
  Beta  occ. eigenvalues --   -0.34216  -0.31346  -0.30841  -0.29730  -0.29477
  Beta  occ. eigenvalues --   -0.28358  -0.28241  -0.26540  -0.26215  -0.24133
  Beta  occ. eigenvalues --   -0.23575  -0.23360  -0.21965  -0.21814  -0.20266
  Beta  occ. eigenvalues --   -0.19270  -0.13564  -0.13121  -0.12704  -0.12266
  Beta  occ. eigenvalues --   -0.11342  -0.10151
  Beta virt. eigenvalues --    0.03965   0.06913   0.08100   0.08293   0.09964
  Beta virt. eigenvalues --    0.10065   0.10463   0.10932   0.11380   0.12373
  Beta virt. eigenvalues --    0.13049   0.14165   0.15033   0.15357   0.16009

 Mulliken charges and spin densities:
               1          2
     1  Cl   0.355111  -0.001402
     2  C    1.052146   0.011670
     3  C   -0.145093   0.053949
     4  C   -0.569448   0.052479
     5  C    0.296768   0.015075
     6  C    0.277103   0.059982
     7  C   -0.959221   0.071712
     8  O   -0.359252   0.225289
     9  C    0.085632   0.017348
    10  C    0.092196   0.025825
    11  C   -0.355862   0.025979
    12  C   -0.414125   0.042055
    13  C    0.180345   0.012172
    14  C    0.135417   0.056666
    15  C   -1.403971   0.046464
    16  O   -0.251065   0.226945
    17  C   -0.029600   0.076311
    18  H    0.152082  -0.004264
    19  H    0.127248  -0.004171
    20  H    0.164149  -0.001255
    21  H    0.156639  -0.001731
    22  H    0.123879  -0.002333
    23  H    0.125348  -0.003561
    24  H    0.163574  -0.001204
 Sum of Mulliken charges =  -1.00000   1.00000

 Dipole moment (field-independent basis, Debye):
    X=             -1.1323    Y=             -1.6713    Z=             -0.1410  Tot=              2.0236
 Quadrupole moment (field-independent basis, Debye-Ang):
   XX=           -119.7558   YY=           -141.9034   ZZ=           -111.7753
   XY=             -8.3064   XZ=             -0.9244   YZ=             -1.4536

  Exact polarizability: 329.634   2.063 237.157  21.012   3.435  99.489
 Approx polarizability: 491.361  -2.599 450.965  30.270   6.641 158.412

                      1                      2                      3
                      A                      A                      A
 Frequencies --     35.0372                56.8376               126.5934
 Red. masses --     11.3574                 6.8779                 4.5662
 Frc consts  --      0.0082                 0.0131                 0.0431
 IR Inten    --      2.7226                 3.9739                 0.0002

                      4                      5                      6
                      A                      A                      A
 Frequencies --    163.7365               177.9277               200.1655
 Red. masses --      7.6133                10.1616                 4.7134
 Frc consts  --      0.1203                 0.1895                 0.1113
 IR Inten    --      2.0501                 2.9654                 0.1500

                      7                      8                      9
                      A                      A                      A
 Frequencies --    250.0662               271.3672               324.0258
 Red. masses --      5.6552                 7.5043                10.7171
 Frc consts  --      0.2084                 0.3256                 0.6630
 IR Inten    --      0.0419                 0.6227                 0.0346

                     10                     11                     12
                      A                      A                      A
 Frequencies --    366.1498               389.5353               408.3394
 Red. masses --      7.1787                12.0748                 8.0128
 Frc consts  --      0.5670                 1.0795                 0.7872
 IR Inten    --      1.0801                 6.3211                 1.6954

                     13                     14                     15
                      A                      A                      A
 Frequencies --    414.4201               437.3633               463.7178
 Red. masses --      6.2626                 3.4382                 8.9653
 Frc consts  --      0.6337                 0.3875                 1.1359
 IR Inten    --      0.0137                 0.5193                 2.8008

                     16                     17                     18
                      A                      A                      A
 Frequencies --    496.4233               500.5009               532.7820
 Red. masses --     11.9903                 4.0350                 4.8006
 Frc consts  --      1.7409                 0.5955                 0.8029
 IR Inten    --      0.5377                 0.2926                 3.7481

                     19                     20                     21
                      A                      A                      A
 Frequencies --    613.2551               637.5675               653.9565
 Red. masses --      6.6104                 4.6444                 6.9759
 Frc consts  --      1.4647                 1.1123                 1.7577
 IR Inten    --     17.1943                 1.4901                12.7844

                     22                     23                     24
                      A                      A                      A
 Frequencies --    692.5936               707.3901               726.9098
 Red. masses --      7.1470                 2.1450                 3.5928
 Frc consts  --      2.0199                 0.6324                 1.1185
 IR Inten    --      0.9757                80.1532                 0.6375

                     25                     26                     27
                      A                      A                      A
 Frequencies --    752.3703               769.6705               789.5991
 Red. masses --      7.2764                 1.4884                 2.1758
 Frc consts  --      2.4268                 0.5195                 0.7993
 IR Inten    --     43.8889                 2.5633                38.2707

                     28                     29                     30
                      A                      A                      A
 Frequencies --    813.4035               820.7804               872.7640
 Red. masses --      3.6054                 7.1376                 1.5343
 Frc consts  --      1.4055                 2.8330                 0.6886
 IR Inten    --      6.5162                14.8220                 0.0542

                     31                     32                     33
                      A                      A                      A
 Frequencies --    888.5536               933.6612               957.1141
 Red. masses --      1.3728                 6.7801                 7.5871
 Frc consts  --      0.6386                 3.4823                 4.0950
 IR Inten    --      0.0047                 2.9403                19.7732

                     34                     35                     36
                      A                      A                      A
 Frequencies --    982.7257               986.3457               988.1914
 Red. masses --      1.3134                 1.3154                 1.3075
 Frc consts  --      0.7473                 0.7540                 0.7522
 IR Inten    --      0.2509                 2.2689                 1.6191

                     37                     38                     39
                      A                      A                      A
 Frequencies --   1038.8406              1084.3750              1110.9155
 Red. masses --      2.0346                 2.1120                 2.0901
 Frc consts  --      1.2937                 1.4632                 1.5198
 IR Inten    --     23.9930                32.8925                11.9585

                     40                     41                     42
                      A                      A                      A
 Frequencies --   1122.3115              1141.7683              1171.1077
 Red. masses --      2.7096                 1.6793                 1.6354
 Frc consts  --      2.0108                 1.2899                 1.3215
 IR Inten    --     10.7336                40.5429                 9.5822

                     43                     44                     45
                      A                      A                      A
 Frequencies --   1190.5094              1201.9560              1224.2565
 Red. masses --      1.9635                 2.1748                 2.2870
 Frc consts  --      1.6396                 1.8512                 2.0196
 IR Inten    --      3.1607                13.5406                20.2614

                     46                     47                     48
                      A                      A                      A
 Frequencies --   1248.0528              1321.1580              1346.3624
 Red. masses --      1.9148                 4.9937                 3.0240
 Frc consts  --      1.7572                 5.1355                 3.2297
 IR Inten    --     66.5726                21.6587                17.0472

                     49                     50                     51
                      A                      A                      A
 Frequencies --   1366.4193              1393.5521              1432.7085
 Red. masses --     10.7610                 3.4339                 2.4443
 Frc consts  --     11.8378                 3.9290                 2.9561
 IR Inten    --      5.8714               240.7433               104.2004

                     52                     53                     54
                      A                      A                      A
 Frequencies --   1478.0035              1482.8123              1521.2814
 Red. masses --      3.2859                 2.4674                 5.5944
 Frc consts  --      4.2292                 3.1964                 7.6283
 IR Inten    --     38.6498                15.3460               514.2001

                     55                     56                     57
                      A                      A                      A
 Frequencies --   1538.9382              1556.4640              1609.2534
 Red. masses --      6.1089                 6.1084                 5.8741
 Frc consts  --      8.5242                 8.7188                 8.9627
 IR Inten    --    146.5766                76.6555                 8.0413

                     58                     59                     60
                      A                      A                      A
 Frequencies --   1614.8374              1630.8096              3135.1292
 Red. masses --      8.8719                 6.4050                 1.0848
 Frc consts  --     13.6309                10.0364                 6.2823
 IR Inten    --      4.1554                19.0837                18.5680

                     61                     62                     63
                      A                      A                      A
 Frequencies --   3149.8936              3154.2499              3184.6239
 Red. masses --      1.0869                 1.0914                 1.0916
 Frc consts  --      6.3537                 6.3977                 6.5228
 IR Inten    --     28.0655                51.5199                10.8474

                     64                     65                     66
                      A                      A                      A
 Frequencies --   3185.1511              3188.0170              3192.6575
 Red. masses --      1.0915                 1.0924                 1.0930
 Frc consts  --      6.5241                 6.5413                 6.5639
 IR Inten    --     13.5748                27.1697                15.8081

 - Thermochemistry -
 -------------------
 Temperature   298.150 Kelvin.  Pressure   1.00000 Atm.
 Atom     1 has atomic number 17 and mass  34.96885

 Molecular mass:   242.01346 amu.
 Principal axes and moments of inertia in atomic units:
                           1         2         3
     Eigenvalues --  2378.068705173.102487551.17118
           X            0.96224  -0.25692  -0.08992
           Y            0.25587   0.96643  -0.02318
           Z            0.09286  -0.00070   0.99568
 This molecule is an asymmetric top.
 Rotational symmetry number  1.
 Warning -- assumption of classical behavior for rotation
           may cause significant error
 Rotational temperatures (Kelvin)      0.03642     0.01674     0.01147
 Rotational constants (GHZ):           0.75891     0.34887     0.23900
 Zero-point vibrational energy     437942.4 (Joules/Mol)
                                  104.67075 (Kcal/Mol)
 Warning -- explicit consideration of  19 degrees of freedom as
           vibrations may cause significant error
 Vibrational temperatures:     50.41    81.78   182.14   235.58   256.00
          (Kelvin)            287.99   359.79   390.44   466.20   526.81
                              560.45   587.51   596.26   629.27   667.19
                              714.24   720.11   766.55   882.34   917.32
                              940.90   996.49  1017.78  1045.86  1082.49
                             1107.38  1136.06  1170.31  1180.92  1255.71
                             1278.43  1343.33  1377.07  1413.92  1419.13
                             1421.79  1494.66  1560.17  1598.36  1614.76
                             1642.75  1684.96  1712.88  1729.35  1761.43
                             1795.67  1900.85  1937.12  1965.97  2005.01
                             2061.35  2126.52  2133.44  2188.78  2214.19
                             2239.40  2315.36  2323.39  2346.37  4510.75
                             4531.99  4538.26  4581.96  4582.72  4586.85
                             4593.52

 Zero-point correction=                           0.166803 (Hartree/Particle)
 Thermal correction to Energy=                    0.179328
 Thermal correction to Enthalpy=                  0.180272
 Thermal correction to Gibbs Free Energy=         0.126379
 Sum of electronic and zero-point Energies=          -1148.467619
 Sum of electronic and thermal Energies=             -1148.455095
 Sum of electronic and thermal Enthalpies=           -1148.454150
 Sum of electronic and thermal Free Energies=        -1148.508043

                     E (Thermal)             CV                S
                      KCal/Mol        Cal/Mol-Kelvin    Cal/Mol-Kelvin
 Total                  112.530             50.169            113.427
 Electronic               0.000              0.000              1.377
 Translational            0.889              2.981             42.353
 Rotational               0.889              2.981             32.896
 Vibrational            110.752             44.208             36.801
 Vibration     1          0.594              1.982              5.522
 Vibration     2          0.596              1.975              4.564
 Vibration     3          0.611              1.927              2.997
 Vibration     4          0.623              1.887              2.506
 Vibration     5          0.628              1.869              2.350
 Vibration     6          0.638              1.840              2.132
 Vibration     7          0.663              1.763              1.730
 Vibration     8          0.675              1.726              1.587
 Vibration     9          0.709              1.627              1.290
 Vibration    10          0.739              1.542              1.096
 Vibration    11          0.757              1.493              1.002
 Vibration    12          0.773              1.452              0.932
 Vibration    13          0.778              1.439              0.911
 Vibration    14          0.798              1.389              0.835
 Vibration    15          0.821              1.331              0.755
 Vibration    16          0.852              1.258              0.667
 Vibration    17          0.856              1.249              0.657
 Vibration    18          0.888              1.177              0.581
 Vibration    19          0.973              1.004              0.427

 Optimization completed.
    -- Stationary point found.
 Normal termination of Gaussian 16 at Thu Dec 21 07:16:54 2023.
