 Gaussian 16, Revision A.03,
 Gaussian 16:  ES64L-G16RevA.03 25-Dec-2016

 --------------------------------------
 #P UB3LYP/6-311++G(d,p) nosym opt freq
 --------------------------------------

 -------
 Radical
 -------
 Symbolic Z-matrix:
 Charge = -1 Multiplicity = 2

 SCF Done:  E(UB3LYP) =  -1279.24359388     A.U. after   22 cycles
 SCF Done:  E(UB3LYP) =  -1279.24362990     A.U. after   17 cycles
 SCF Done:  E(UB3LYP) =  -1279.24363189     A.U. after   16 cycles
 SCF Done:  E(UB3LYP) =  -1279.24363359     A.U. after   14 cycles
 SCF Done:  E(UB3LYP) =  -1279.24363412     A.U. after   13 cycles
 SCF Done:  E(UB3LYP) =  -1279.24363425     A.U. after   12 cycles
 SCF Done:  E(UB3LYP) =  -1279.24363430     A.U. after   10 cycles
 SCF Done:  E(UB3LYP) =  -1279.24363438     A.U. after   11 cycles
 SCF Done:  E(UB3LYP) =  -1279.24363453     A.U. after   11 cycles
 SCF Done:  E(UB3LYP) =  -1279.24363473     A.U. after   11 cycles
 SCF Done:  E(UB3LYP) =  -1279.24363498     A.U. after   11 cycles
 SCF Done:  E(UB3LYP) =  -1279.24363524     A.U. after   11 cycles
 SCF Done:  E(UB3LYP) =  -1279.24363547     A.U. after   12 cycles
 SCF Done:  E(UB3LYP) =  -1279.24363560     A.U. after   12 cycles
 SCF Done:  E(UB3LYP) =  -1279.24363561     A.U. after   10 cycles
 Optimization completed.
    -- Stationary point found.
 Normal termination of Gaussian 16 at Mon Jan  8 23:33:56 2024.

 ----------------------------------------------------------------------
 #P Geom=AllCheck Guess=TCheck SCRF=Check GenChk UB3LYP/6-311++G(d,p) F
 req
 ----------------------------------------------------------------------

 Structure from the checkpoint file:  "297-rad.chk"
 -------
 Radical
 -------
 Charge = -1 Multiplicity = 2

                          Input orientation:
 ---------------------------------------------------------------------
 Center     Atomic      Atomic             Coordinates (Angstroms)
 Number     Number       Type             X           Y           Z
 ---------------------------------------------------------------------
      1          6           0       -0.843924    2.782634    0.348016
      2          6           0       -1.510656    2.885388   -0.858442
      3          6           0       -0.998858    2.247769   -2.005040
      4          6           0        0.353659    2.041418    0.449155
      5          6           0        0.871182    1.397573   -0.706904
      6          6           0        0.174996    1.516014   -1.921082
      7          6           0        1.048377    1.933755    1.713900
      8          6           0        2.267298    1.151735    1.735501
      9          6           0        2.793962    0.517286    0.618410
     10          6           0        2.127070    0.602966   -0.671107
     11          8           0        0.668217    2.467109    2.806253
     12          8           0        2.553551    0.043884   -1.699595
     13          8           0        2.847566    1.098449    2.952521
     14          1           0       -1.218387    3.264000    1.244080
     15          1           0       -2.430847    3.458625   -0.922851
     16          1           0       -1.523756    2.329120   -2.951852
     17          1           0        0.592361    1.013705   -2.786109
     18          1           0        2.229795    1.638523    3.496647
     19         16           0        4.362616   -0.317909    0.729980
     20          6           0        3.956021   -2.053359    0.805669
     21          6           0        2.651553   -2.552835    0.850080
     22          6           0        5.020407   -2.965333    0.840823
     23          6           0        2.426053   -3.924979    0.925700
     24          6           0        4.780913   -4.333473    0.918254
     25          6           0        3.478779   -4.844533    0.959130
     26          6           0        3.221218   -6.332673    1.002061
     27          1           0        1.816406   -1.864294    0.823981
     28          1           0        6.041596   -2.598697    0.809050
     29          1           0        1.401373   -4.285503    0.958933
     30          1           0        5.625837   -5.016697    0.947253
     31          1           0        4.018713   -6.861244    1.532776
     32          1           0        3.162056   -6.761295   -0.006039
     33          1           0        2.277115   -6.558669    1.505845
 ---------------------------------------------------------------------

 SCF Done:  E(UB3LYP) =  -1279.24363561     A.U. after    1 cycles

 Alpha  occ. eigenvalues --  -88.73371 -19.03133 -18.96933 -18.95507 -10.11872
 Alpha  occ. eigenvalues --  -10.11294 -10.10492 -10.10097 -10.08955 -10.08630
 Alpha  occ. eigenvalues --  -10.08045 -10.07755 -10.07752 -10.07105 -10.07086
 Alpha  occ. eigenvalues --  -10.06956 -10.06724 -10.06460 -10.06302 -10.06241
 Alpha  occ. eigenvalues --  -10.06140  -7.81941  -5.78356  -5.77939  -5.77333
 Alpha  occ. eigenvalues --   -0.95547  -0.88545  -0.87988  -0.76772  -0.74965
 Alpha  occ. eigenvalues --   -0.70921  -0.68666  -0.65203  -0.64919  -0.64184
 Alpha  occ. eigenvalues --   -0.61506  -0.57650  -0.55003  -0.51588  -0.51097
 Alpha  occ. eigenvalues --   -0.49589  -0.47484  -0.45995  -0.42710  -0.40726
 Alpha  occ. eigenvalues --   -0.39082  -0.37780  -0.37003  -0.35781  -0.34960
 Alpha  occ. eigenvalues --   -0.34065  -0.33931  -0.32863  -0.32183  -0.31726
 Alpha  occ. eigenvalues --   -0.31011  -0.30459  -0.29716  -0.28596  -0.27449
 Alpha  occ. eigenvalues --   -0.27012  -0.26712  -0.26477  -0.25575  -0.24749
 Alpha  occ. eigenvalues --   -0.24021  -0.23024  -0.22980  -0.21240  -0.17975
 Alpha  occ. eigenvalues --   -0.15978  -0.15473  -0.14667  -0.14338  -0.12549
 Alpha  occ. eigenvalues --   -0.11950  -0.09714  -0.03646
 Alpha virt. eigenvalues --    0.06209   0.07523   0.07767   0.07981   0.08114
 Alpha virt. eigenvalues --    0.08260   0.09209   0.09496   0.09768   0.10603
 Alpha virt. eigenvalues --    0.10796   0.11007   0.12162   0.12719   0.13361

  Beta  occ. eigenvalues --  -88.73373 -19.03057 -18.96215 -18.95009 -10.11710
  Beta  occ. eigenvalues --  -10.11243 -10.10219 -10.10084 -10.08955 -10.08630
  Beta  occ. eigenvalues --  -10.08045 -10.07755 -10.07752 -10.07104 -10.07011
  Beta  occ. eigenvalues --  -10.06974 -10.06618 -10.06458 -10.06243 -10.06205
  Beta  occ. eigenvalues --  -10.06095  -7.81943  -5.78359  -5.77943  -5.77333
  Beta  occ. eigenvalues --   -0.95276  -0.87709  -0.86769  -0.76763  -0.74751
  Beta  occ. eigenvalues --   -0.70762  -0.68413  -0.65156  -0.64792  -0.64005
  Beta  occ. eigenvalues --   -0.61388  -0.57281  -0.54436  -0.51570  -0.50942
  Beta  occ. eigenvalues --   -0.49378  -0.47378  -0.45751  -0.42554  -0.40626
  Beta  occ. eigenvalues --   -0.38922  -0.37727  -0.36752  -0.35748  -0.34846
  Beta  occ. eigenvalues --   -0.34053  -0.33845  -0.32686  -0.31750  -0.31445
  Beta  occ. eigenvalues --   -0.30828  -0.29977  -0.29168  -0.28229  -0.27013
  Beta  occ. eigenvalues --   -0.26634  -0.26553  -0.26342  -0.24790  -0.24253
  Beta  occ. eigenvalues --   -0.23634  -0.22773  -0.21213  -0.20986  -0.17954
  Beta  occ. eigenvalues --   -0.15965  -0.14057  -0.13706  -0.13455  -0.11591
  Beta  occ. eigenvalues --   -0.11424  -0.09632
  Beta virt. eigenvalues --    0.02979   0.06211   0.07762   0.07974   0.08029
  Beta virt. eigenvalues --    0.08263   0.08280   0.09252   0.09764   0.10474
  Beta virt. eigenvalues --    0.10623   0.10831   0.11049   0.12165   0.12724

 Mulliken charges and spin densities:
               1          2
     1  C   -0.107026   0.078255
     2  C   -0.486244  -0.017718
     3  C   -0.410022   0.085176
     4  C    0.241080  -0.019783
     5  C    0.425742   0.100777
     6  C    0.016144  -0.024591
     7  C   -0.892654   0.176594
     8  C   -0.720787   0.093724
     9  C    2.293977   0.036180
    10  C   -1.023817   0.025839
    11  O   -0.442715   0.265532
    12  O   -0.306350   0.184775
    13  O   -0.174777   0.025154
    14  H    0.180662  -0.004690
    15  H    0.122993   0.000468
    16  H    0.126888  -0.006152
    17  H    0.180958   0.000743
    18  H    0.269476  -0.004242
    19  S    0.185933   0.005384
    20  C   -0.094556   0.001939
    21  C   -0.042960  -0.009967
    22  C   -0.405584   0.005944
    23  C   -0.270181  -0.003374
    24  C   -0.739309   0.000714
    25  C    0.577393   0.000337
    26  C   -0.532737  -0.001252
    27  H    0.193627   0.003638
    28  H    0.148031   0.000134
    29  H    0.156298   0.000073
    30  H    0.123520   0.000403
    31  H    0.126542   0.000036
    32  H    0.149331  -0.000042
    33  H    0.131127  -0.000010
 Sum of Mulliken charges =  -1.00000   1.00000

 Dipole moment (field-independent basis, Debye):
    X=            -10.5351    Y=             -3.2410    Z=             -2.6646  Tot=             11.3399
 Quadrupole moment (field-independent basis, Debye-Ang):
   XX=           -168.8441   YY=           -152.4633   ZZ=           -158.2206
   XY=              4.4829   XZ=             -2.3444   YZ=             -8.1354

  Exact polarizability: 269.171 -80.176 297.817  27.140   1.948 230.703
 Approx polarizability: 429.647 -85.711 403.973  20.169  37.780 416.704

                      1                      2                      3
                      A                      A                      A
 Frequencies --     13.6441                27.1846                31.9734
 Red. masses --      6.6114                 2.9187                 5.2873
 Frc consts  --      0.0007                 0.0013                 0.0032
 IR Inten    --      0.6974                 0.0451                 0.7872

                      4                      5                      6
                      A                      A                      A
 Frequencies --     37.1203                83.9365               103.1177
 Red. masses --      1.1292                 8.8890                 4.2242
 Frc consts  --      0.0009                 0.0369                 0.0265
 IR Inten    --      0.2070                 5.2758                 0.0056

                      7                      8                      9
                      A                      A                      A
 Frequencies --    109.2975               151.8830               181.5643
 Red. masses --      5.8100                 6.2531                 7.0323
 Frc consts  --      0.0409                 0.0850                 0.1366
 IR Inten    --      0.0778                 0.0304                 1.0448

                     10                     11                     12
                      A                      A                      A
 Frequencies --    199.3693               205.4725               266.7436
 Red. masses --      7.5377                 6.9122                 6.3855
 Frc consts  --      0.1765                 0.1719                 0.2677
 IR Inten    --      0.9236                 1.8508                 0.8408

                     13                     14                     15
                      A                      A                      A
 Frequencies --    289.0604               296.9651               341.5799
 Red. masses --      4.6041                 6.6368                 3.9822
 Frc consts  --      0.2267                 0.3448                 0.2738
 IR Inten    --      0.7563                 2.6134                 1.6428

                     16                     17                     18
                      A                      A                      A
 Frequencies --    359.1036               377.3740               392.1473
 Red. masses --      4.5714                10.7546                 8.2684
 Frc consts  --      0.3473                 0.9024                 0.7491
 IR Inten    --      7.7251                 9.3757                 3.1525

                     19                     20                     21
                      A                      A                      A
 Frequencies --    401.1088               413.9019               425.5317
 Red. masses --      6.3961                 3.0050                10.0938
 Frc consts  --      0.6063                 0.3033                 1.0769
 IR Inten    --      6.2952                 0.1810                 2.2607

                     22                     23                     24
                      A                      A                      A
 Frequencies --    440.9466               468.7368               485.4068
 Red. masses --      5.1203                 4.6444                 2.6751
 Frc consts  --      0.5866                 0.6012                 0.3714
 IR Inten    --      4.1927                 5.4431                15.6125

                     25                     26                     27
                      A                      A                      A
 Frequencies --    505.7502               554.0425               589.5317
 Red. masses --     11.0367                 5.4919                 8.7088
 Frc consts  --      1.6633                 0.9932                 1.7833
 IR Inten    --      0.6754                 4.4538                 9.4624

                     28                     29                     30
                      A                      A                      A
 Frequencies --    627.8385               653.0857               667.0506
 Red. masses --      5.5553                 7.0004                 6.8502
 Frc consts  --      1.2902                 1.7592                 1.7958
 IR Inten    --      7.5626                 1.8121                 5.6697

                     31                     32                     33
                      A                      A                      A
 Frequencies --    699.9882               704.1998               711.1107
 Red. masses --      4.7691                 3.7585                 3.3352
 Frc consts  --      1.3768                 1.0981                 0.9937
 IR Inten    --     11.6925                 0.3710                26.1282

                     34                     35                     36
                      A                      A                      A
 Frequencies --    715.3979               761.2135               769.1245
 Red. masses --      7.1926                 1.1868                 2.0524
 Frc consts  --      2.1689                 0.4052                 0.7153
 IR Inten    --      2.7261               115.5365                 0.8302

                     37                     38                     39
                      A                      A                      A
 Frequencies --    786.4519               804.3024               808.7928
 Red. masses --      2.9819                 1.8197                 2.8534
 Frc consts  --      1.0866                 0.6936                 1.0997
 IR Inten    --      3.5749                23.7913                10.4850

                     40                     41                     42
                      A                      A                      A
 Frequencies --    829.9725               835.3951               871.2809
 Red. masses --      8.4762                 1.2651                 1.4134
 Frc consts  --      3.4402                 0.5202                 0.6321
 IR Inten    --     20.4861                 0.9887                 0.2242

                     43                     44                     45
                      A                      A                      A
 Frequencies --    884.8580               937.7390               969.4542
 Red. masses --      7.0017                 1.2724                 1.3393
 Frc consts  --      3.2300                 0.6592                 0.7416
 IR Inten    --     23.4061                 0.1882                 0.2891

                     46                     47                     48
                      A                      A                      A
 Frequencies --    976.3351               984.6923               999.5305
 Red. masses --      1.3374                 1.2914                 1.4124
 Frc consts  --      0.7511                 0.7377                 0.8314
 IR Inten    --      1.6562                 0.5823                 0.5169

                     49                     50                     51
                      A                      A                      A
 Frequencies --   1027.0533              1031.0344              1053.9866
 Red. masses --      4.4949                 3.0977                 2.5503
 Frc consts  --      2.7936                 1.9401                 1.6692
 IR Inten    --     56.4196                 6.9194                15.7138

                     52                     53                     54
                      A                      A                      A
 Frequencies --   1055.5609              1091.1677              1103.4585
 Red. masses --      1.4973                 4.3073                 2.5543
 Frc consts  --      0.9830                 3.0216                 1.8325
 IR Inten    --     14.5856                53.2940                11.7440

                     55                     56                     57
                      A                      A                      A
 Frequencies --   1136.7654              1142.9645              1159.1277
 Red. masses --      1.3149                 1.9186                 1.8338
 Frc consts  --      1.0011                 1.4767                 1.4516
 IR Inten    --      4.6926                 2.7405                 8.2157

                     58                     59                     60
                      A                      A                      A
 Frequencies --   1203.0791              1204.2344              1228.6762
 Red. masses --      2.4212                 1.1707                 2.9898
 Frc consts  --      2.0648                 1.0003                 2.6593
 IR Inten    --     24.1120                 7.8089                 0.6988

                     61                     62                     63
                      A                      A                      A
 Frequencies --   1234.8362              1262.9959              1309.9105
 Red. masses --      2.9914                 2.1938                 4.9505
 Frc consts  --      2.6875                 2.0619                 5.0048
 IR Inten    --      4.6051                 3.4039                 5.9836

                     64                     65                     66
                      A                      A                      A
 Frequencies --   1327.0522              1332.4904              1351.9863
 Red. masses --      2.0874                 1.4778                 9.7352
 Frc consts  --      2.1659                 1.5459                10.4843
 IR Inten    --     42.6321                 3.4459                 8.6551

                     67                     68                     69
                      A                      A                      A
 Frequencies --   1407.7433              1425.3397              1427.9327
 Red. masses --      1.2545                 2.7411                 2.7017
 Frc consts  --      1.4647                 3.2810                 3.2457
 IR Inten    --      2.6101               349.5944               196.8590

                     70                     71                     72
                      A                      A                      A
 Frequencies --   1465.1789              1479.0359              1486.7958
 Red. masses --      2.8233                 3.1930                 1.0478
 Frc consts  --      3.5709                 4.1153                 1.3647
 IR Inten    --     14.6256                77.9938                 6.7695

                     73                     74                     75
                      A                      A                      A
 Frequencies --   1494.2864              1520.7390              1532.0272
 Red. masses --      1.0982                 2.2949                 5.2868
 Frc consts  --      1.4448                 3.1270                 7.3110
 IR Inten    --     10.3873                91.0465               236.3144

                     76                     77                     78
                      A                      A                      A
 Frequencies --   1559.0100              1571.0414              1595.8069
 Red. masses --      4.9914                 5.0920                 5.5881
 Frc consts  --      7.1478                 7.4048                 8.3845
 IR Inten    --    183.6111                75.4409                 1.0668

                     79                     80                     81
                      A                      A                      A
 Frequencies --   1609.8514              1633.9507              1637.8398
 Red. masses --      6.2315                 6.5136                 5.8778
 Frc consts  --      9.5151                10.2458                 9.2898
 IR Inten    --     16.0238                36.4355                39.8610

                     82                     83                     84
                      A                      A                      A
 Frequencies --   3001.2073              3051.1142              3080.0533
 Red. masses --      1.0429                 1.0914                 1.1013
 Frc consts  --      5.5347                 5.9862                 6.1559
 IR Inten    --     91.8715                33.7946                24.1530

                     85                     86                     87
                      A                      A                      A
 Frequencies --   3133.7157              3137.7622              3140.4913
 Red. masses --      1.0869                 1.0849                 1.0887
 Frc consts  --      6.2887                 6.2935                 6.3265
 IR Inten    --     33.1774                14.8473                28.6009

                     88                     89                     90
                      A                      A                      A
 Frequencies --   3156.8089              3160.1518              3183.2701
 Red. masses --      1.0911                 1.0928                 1.0917
 Frc consts  --      6.4066                 6.4297                 6.5180
 IR Inten    --     46.9485                28.8823                11.6246

                     91                     92                     93
                      A                      A                      A
 Frequencies --   3186.3096              3192.3748              3456.5064
 Red. masses --      1.0929                 1.0913                 1.0632
 Frc consts  --      6.5374                 6.5529                 7.4843
 IR Inten    --     24.2524                 2.5039               108.0813

 - Thermochemistry -
 -------------------
 Temperature   298.150 Kelvin.  Pressure   1.00000 Atm.
 Atom     1 has atomic number  6 and mass  12.00000

 Molecular mass:   296.05072 amu.
 Principal axes and moments of inertia in atomic units:
                           1         2         3
     Eigenvalues --  3307.82659********************
           X           -0.52213   0.43816   0.73171
           Y            0.84308   0.39477   0.36520
           Z           -0.12883   0.80757  -0.57553
 This molecule is an asymmetric top.
 Rotational symmetry number  1.
 Warning -- assumption of classical behavior for rotation
           may cause significant error
 Rotational temperatures (Kelvin)      0.02618     0.00773     0.00706
 Rotational constants (GHZ):           0.54560     0.16108     0.14719
 Zero-point vibrational energy     638405.3 (Joules/Mol)
                                  152.58253 (Kcal/Mol)
 Warning -- explicit consideration of  27 degrees of freedom as
           vibrations may cause significant error
 Vibrational temperatures:     19.63    39.11    46.00    53.41   120.77
          (Kelvin)            148.36   157.25   218.53   261.23   286.85
                              295.63   383.78   415.89   427.27   491.46
                              516.67   542.96   564.21   577.11   595.51
                              612.25   634.42   674.41   698.39   727.66
                              797.14   848.20   903.32   939.64   959.74
                             1007.13  1013.19  1023.13  1029.30  1095.22
                             1106.60  1131.53  1157.21  1163.67  1194.15
                             1201.95  1253.58  1273.11  1349.20  1394.83
                             1404.73  1416.75  1438.10  1477.70  1483.43
                             1516.45  1518.72  1569.95  1587.63  1635.55
                             1644.47  1667.73  1730.96  1732.62  1767.79
                             1776.65  1817.17  1884.67  1909.33  1917.16
                             1945.21  2025.43  2050.75  2054.48  2108.07
                             2128.00  2139.17  2149.94  2188.00  2204.25
                             2243.07  2260.38  2296.01  2316.22  2350.89
                             2356.49  4318.07  4389.87  4431.51  4508.72
                             4514.54  4518.47  4541.94  4546.75  4580.02
                             4584.39  4593.12  4973.14

 Zero-point correction=                           0.243156 (Hartree/Particle)
 Thermal correction to Energy=                    0.261128
 Thermal correction to Enthalpy=                  0.262072
 Thermal correction to Gibbs Free Energy=         0.193563
 Sum of electronic and zero-point Energies=          -1279.000480
 Sum of electronic and thermal Energies=             -1278.982508
 Sum of electronic and thermal Enthalpies=           -1278.981564
 Sum of electronic and thermal Free Energies=        -1279.050073

                     E (Thermal)             CV                S
                      KCal/Mol        Cal/Mol-Kelvin    Cal/Mol-Kelvin
 Total                  163.860             69.067            144.189
 Electronic               0.000              0.000              1.377
 Translational            0.889              2.981             42.953
 Rotational               0.889              2.981             34.473
 Vibrational            162.083             63.105             65.385
 Vibration     1          0.593              1.986              7.394
 Vibration     2          0.593              1.984              6.025
 Vibration     3          0.594              1.983              5.703
 Vibration     4          0.594              1.982              5.407
 Vibration     5          0.601              1.960              3.797
 Vibration     6          0.605              1.947              3.395
 Vibration     7          0.606              1.942              3.281
 Vibration     8          0.619              1.901              2.649
 Vibration     9          0.630              1.865              2.312
 Vibration    10          0.637              1.841              2.139
 Vibration    11          0.640              1.832              2.084
 Vibration    12          0.672              1.734              1.617
 Vibration    13          0.686              1.694              1.479
 Vibration    14          0.691              1.679              1.434
 Vibration    15          0.721              1.592              1.205
 Vibration    16          0.734              1.557              1.126
 Vibration    17          0.748              1.518              1.050
 Vibration    18          0.760              1.487              0.992
 Vibration    19          0.767              1.468              0.959
 Vibration    20          0.777              1.440              0.913
 Vibration    21          0.787              1.415              0.873
 Vibration    22          0.801              1.381              0.824
 Vibration    23          0.826              1.319              0.741
 Vibration    24          0.841              1.282              0.696
 Vibration    25          0.861              1.237              0.644
 Vibration    26          0.909              1.131              0.536
 Vibration    27          0.947              1.054              0.468

                           ! Non-Optimized Parameters !
 Normal termination of Gaussian 16 at Tue Jan  9 04:37:09 2024.
