 Q-Chem 5.4, Q-Chem, Inc., Pleasanton, CA (2021)
 Q-Chem 5.4.0 for Intel X86 EM64T Linux

User input:
--------------------------------------------------------------
$molecule
-1 2
C                 -0.8439240000      2.7826340000      0.3480160000
C                 -1.5106560000      2.8853880000     -0.8584420000
C                 -0.9988580000      2.2477690000     -2.0050400000
C                  0.3536590000      2.0414180000      0.4491550000
C                  0.8711820000      1.3975730000     -0.7069040000
C                  0.1749960000      1.5160140000     -1.9210820000
C                  1.0483770000      1.9337550000      1.7139000000
C                  2.2672980000      1.1517350000      1.7355010000
C                  2.7939620000      0.5172860000      0.6184100000
C                  2.1270700000      0.6029660000     -0.6711070000
O                  0.6682170000      2.4671090000      2.8062530000
O                  2.5535510000      0.0438840000     -1.6995950000
O                  2.8475660000      1.0984490000      2.9525210000
H                 -1.2183870000      3.2640000000      1.2440800000
H                 -2.4308470000      3.4586250000     -0.9228510000
H                 -1.5237560000      2.3291200000     -2.9518520000
H                  0.5923610000      1.0137050000     -2.7861090000
H                  2.2297950000      1.6385230000      3.4966470000
S                  4.3626160000     -0.3179090000      0.7299800000
C                  3.9560210000     -2.0533590000      0.8056690000
C                  2.6515530000     -2.5528350000      0.8500800000
C                  5.0204070000     -2.9653330000      0.8408230000
C                  2.4260530000     -3.9249790000      0.9257000000
C                  4.7809130000     -4.3334730000      0.9182540000
C                  3.4787790000     -4.8445330000      0.9591300000
C                  3.2212180000     -6.3326730000      1.0020610000
H                  1.8164060000     -1.8642940000      0.8239810000
H                  6.0415960000     -2.5986970000      0.8090500000
H                  1.4013730000     -4.2855030000      0.9589330000
H                  5.6258370000     -5.0166970000      0.9472530000
H                  4.0187130000     -6.8612440000      1.5327760000
H                  3.1620560000     -6.7612950000     -0.0060390000
H                  2.2771150000     -6.5586690000      1.5058450000
$end
$rem
MAX_SCF_CYCLES=200
BASIS  =  6-311++G(d,p)
GUI  =  2
JOB_TYPE  =  SP
METHOD  =  B3LYP
SOLVENT_METHOD = PCM
$end
$pcm
theory = CPCM
$end
$solvent
dielectric 37.219
opticaldielectric 1.43
$end

--------------------------------------------------------------

             Standard Nuclear Orientation (Angstroms)
    I     Atom           X                Y                Z
 ----------------------------------------------------------------
    1      C      -0.8439240000     2.7826340000     0.3480160000
    2      C      -1.5106560000     2.8853880000    -0.8584420000
    3      C      -0.9988580000     2.2477690000    -2.0050400000
    4      C       0.3536590000     2.0414180000     0.4491550000
    5      C       0.8711820000     1.3975730000    -0.7069040000
    6      C       0.1749960000     1.5160140000    -1.9210820000
    7      C       1.0483770000     1.9337550000     1.7139000000
    8      C       2.2672980000     1.1517350000     1.7355010000
    9      C       2.7939620000     0.5172860000     0.6184100000
   10      C       2.1270700000     0.6029660000    -0.6711070000
   11      O       0.6682170000     2.4671090000     2.8062530000
   12      O       2.5535510000     0.0438840000    -1.6995950000
   13      O       2.8475660000     1.0984490000     2.9525210000
   14      H      -1.2183870000     3.2640000000     1.2440800000
   15      H      -2.4308470000     3.4586250000    -0.9228510000
   16      H      -1.5237560000     2.3291200000    -2.9518520000
   17      H       0.5923610000     1.0137050000    -2.7861090000
   18      H       2.2297950000     1.6385230000     3.4966470000
   19      S       4.3626160000    -0.3179090000     0.7299800000
   20      C       3.9560210000    -2.0533590000     0.8056690000
   21      C       2.6515530000    -2.5528350000     0.8500800000
   22      C       5.0204070000    -2.9653330000     0.8408230000
   23      C       2.4260530000    -3.9249790000     0.9257000000
   24      C       4.7809130000    -4.3334730000     0.9182540000
   25      C       3.4787790000    -4.8445330000     0.9591300000
   26      C       3.2212180000    -6.3326730000     1.0020610000
   27      H       1.8164060000    -1.8642940000     0.8239810000
   28      H       6.0415960000    -2.5986970000     0.8090500000
   29      H       1.4013730000    -4.2855030000     0.9589330000
   30      H       5.6258370000    -5.0166970000     0.9472530000
   31      H       4.0187130000    -6.8612440000     1.5327760000
   32      H       3.1620560000    -6.7612950000    -0.0060390000
   33      H       2.2771150000    -6.5586690000     1.5058450000
 ----------------------------------------------------------------

    8   -1279.3250708181      6.60e-06  Convergence criterion met
 Total energy in the final basis set =    -1279.3250708181

                    Orbital Energies (a.u.)
 --------------------------------------------------------------

 Alpha MOs
 -- Occupied --
-88.8509 -19.1545 -19.0943 -19.0839 -10.2404 -10.2391 -10.2295 -10.2048
-10.1921 -10.1815 -10.1798 -10.1798 -10.1762 -10.1751 -10.1749 -10.1745
-10.1737 -10.1729 -10.1724 -10.1719 -10.1616  -7.9368  -5.9008  -5.8967
 -5.8910  -1.0787  -1.0152  -1.0053  -0.8677  -0.8640  -0.8225  -0.7909
 -0.7576  -0.7549  -0.7479  -0.7188  -0.6830  -0.6602  -0.6263  -0.6136
 -0.6043  -0.5780  -0.5738  -0.5437  -0.5164  -0.5006  -0.4855  -0.4711
 -0.4647  -0.4551  -0.4465  -0.4450  -0.4306  -0.4246  -0.4203  -0.4180
 -0.4153  -0.4066  -0.3975  -0.3869  -0.3844  -0.3767  -0.3697  -0.3659
 -0.3512  -0.3499  -0.3430  -0.3409  -0.3284  -0.2862  -0.2742  -0.2688
 -0.2619  -0.2585  -0.2498  -0.2434  -0.2099  -0.1599

 Beta MOs
 -- Occupied --
-88.8509 -19.1536 -19.0879 -19.0796 -10.2386 -10.2380 -10.2265 -10.2047
-10.1914 -10.1816 -10.1798 -10.1788 -10.1763 -10.1751 -10.1743 -10.1739
-10.1737 -10.1729 -10.1724 -10.1719 -10.1616  -7.9369  -5.9008  -5.8967
 -5.8910  -1.0757  -1.0076  -0.9942  -0.8673  -0.8620  -0.8200  -0.7889
 -0.7558  -0.7533  -0.7479  -0.7170  -0.6769  -0.6574  -0.6242  -0.6129
 -0.6023  -0.5765  -0.5725  -0.5419  -0.5145  -0.4989  -0.4833  -0.4707
 -0.4633  -0.4546  -0.4458  -0.4326  -0.4293  -0.4201  -0.4190  -0.4175
 -0.4130  -0.4038  -0.3866  -0.3850  -0.3832  -0.3702  -0.3669  -0.3601
 -0.3503  -0.3419  -0.3408  -0.3336  -0.3264  -0.2857  -0.2633  -0.2590
 -0.2553  -0.2547  -0.2455  -0.2358  -0.2094

          Ground-State Mulliken Net Atomic Charges

     Atom                 Charge (a.u.)    Spin (a.u.)
  --------------------------------------------------------
      1 C                    -0.094434       0.079465
      2 C                    -0.575270      -0.014450
      3 C                    -0.477061       0.073153
      4 C                     0.139314      -0.030886
      5 C                     0.289945       0.076795
      6 C                     0.019193      -0.007780
      7 C                    -0.672083       0.203875
      8 C                    -0.720335       0.104060
      9 C                     2.262343       0.024526
     10 C                    -0.822344       0.066720
     11 O                    -0.523310       0.241995
     12 O                    -0.433520       0.162984
     13 O                    -0.228921       0.028533
     14 H                     0.201777      -0.004340
     15 H                     0.195194      -0.000079
     16 H                     0.200570      -0.004861
     17 H                     0.196051      -0.000091
     18 H                     0.308115      -0.003493
     19 S                     0.159825       0.005390
     20 C                    -0.199428       0.003050
     21 C                    -0.145184      -0.009961
     22 C                    -0.293689       0.006151
     23 C                    -0.291563      -0.003936
     24 C                    -0.776174       0.000444
     25 C                     0.485874       0.000263
     26 C                    -0.544066      -0.000662
     27 H                     0.224116       0.002975
     28 H                     0.210269      -0.000061
     29 H                     0.218089       0.000026
     30 H                     0.195206       0.000215
     31 H                     0.156268       0.000009
     32 H                     0.179137      -0.000016
     33 H                     0.156093      -0.000011
  --------------------------------------------------------
  Sum of atomic charges =    -1.000004

                    Cartesian Multipole Moments
 -----------------------------------------------------------------
    Charge (ESU x 10^10)
                -4.8032
    Dipole Moment (Debye)
         X     -12.0747      Y      -4.9266      Z      -2.9370
       Tot      13.3677
    Quadrupole Moments (Debye-Ang)
        XX    -165.6913     XY      -8.1929     YY    -132.8392
        XZ       1.8606     YZ     -14.1585     ZZ    -157.7727

 Total job time:  366.13s(wall), 650.17s(cpu)
        *  Thank you very much for using Q-Chem.  Have a nice day.  *
