 Q-Chem 5.4, Q-Chem, Inc., Pleasanton, CA (2021)
 Q-Chem 5.4.0 for Intel X86 EM64T Linux

User input:
--------------------------------------------------------------
$molecule
-1 2
O                  2.3848220000      2.8801830000     -1.1795100000
N                  2.6613190000      2.3196040000     -0.1297210000
O                  3.2665190000      2.8384470000      0.8039710000
C                  2.3787240000      0.8649700000     -0.0335800000
C                  3.4979790000      0.0632760000     -0.0635790000
C                  3.3397830000     -1.3350460000     -0.1223290000
C                  2.0719330000     -1.8780040000     -0.1488490000
C                  0.9218140000     -1.0656320000     -0.0884450000
C                 -0.3921080000     -1.7149660000     -0.1072990000
O                 -0.5105780000     -2.9597140000     -0.1978050000
C                 -1.5543820000     -0.8289870000     -0.0113150000
C                 -2.8512600000     -1.3851900000     -0.0484440000
C                 -3.9721190000     -0.5858000000      0.0546850000
C                 -3.8293650000      0.8101190000      0.2047220000
C                 -2.5700030000      1.3744460000      0.2480700000
C                 -1.4106950000      0.5769540000      0.1374620000
C                 -0.0968720000      1.2277560000      0.1921220000
O                  0.0268450000      2.4523700000      0.4158180000
C                  1.0586310000      0.3570720000     -0.0016540000
H                  4.4817550000      0.5169650000     -0.0704110000
H                  4.2163270000     -1.9727330000     -0.1600110000
H                  1.9148620000     -2.9484390000     -0.2095850000
H                 -2.9298020000     -2.4604530000     -0.1590100000
H                 -4.9627850000     -1.0290780000      0.0221100000
H                 -4.7105370000      1.4392400000      0.2863960000
H                 -2.4308070000      2.4426410000      0.3661900000
$end

$rem
BASIS  =  6-311++G(d,p)
GUI  =  2
JOB_TYPE  =  SP
METHOD  =  B3LYP
SCF_CONVERGENCE  = 8
SOLVENT_METHOD = sm12
$end

$smx
solvent dimethylformamide
charges CM5
$end

--------------------------------------------------------------

             Standard Nuclear Orientation (Angstroms)
    I     Atom           X                Y                Z
 ----------------------------------------------------------------
    1      O       2.3848220000     2.8801830000    -1.1795100000
    2      N       2.6613190000     2.3196040000    -0.1297210000
    3      O       3.2665190000     2.8384470000     0.8039710000
    4      C       2.3787240000     0.8649700000    -0.0335800000
    5      C       3.4979790000     0.0632760000    -0.0635790000
    6      C       3.3397830000    -1.3350460000    -0.1223290000
    7      C       2.0719330000    -1.8780040000    -0.1488490000
    8      C       0.9218140000    -1.0656320000    -0.0884450000
    9      C      -0.3921080000    -1.7149660000    -0.1072990000
   10      O      -0.5105780000    -2.9597140000    -0.1978050000
   11      C      -1.5543820000    -0.8289870000    -0.0113150000
   12      C      -2.8512600000    -1.3851900000    -0.0484440000
   13      C      -3.9721190000    -0.5858000000     0.0546850000
   14      C      -3.8293650000     0.8101190000     0.2047220000
   15      C      -2.5700030000     1.3744460000     0.2480700000
   16      C      -1.4106950000     0.5769540000     0.1374620000
   17      C      -0.0968720000     1.2277560000     0.1921220000
   18      O       0.0268450000     2.4523700000     0.4158180000
   19      C       1.0586310000     0.3570720000    -0.0016540000
   20      H       4.4817550000     0.5169650000    -0.0704110000
   21      H       4.2163270000    -1.9727330000    -0.1600110000
   22      H       1.9148620000    -2.9484390000    -0.2095850000
   23      H      -2.9298020000    -2.4604530000    -0.1590100000
   24      H      -4.9627850000    -1.0290780000     0.0221100000
   25      H      -4.7105370000     1.4392400000     0.2863960000
   26      H      -2.4308070000     2.4426410000     0.3661900000
 ----------------------------------------------------------------

   20    -893.5773278168      9.14e-09  Convergence criterion met
 Total energy in the final basis set =     -893.6612841677

                    Orbital Energies (a.u.)
 --------------------------------------------------------------

 Alpha MOs
 -- Occupied --
-19.1639 -19.1638 -19.0855 -19.0844 -14.5544 -10.2405 -10.2361 -10.2357
-10.2009 -10.1998 -10.1917 -10.1916 -10.1884 -10.1862 -10.1857 -10.1852
-10.1851 -10.1822 -10.1819  -1.2383  -1.0649  -1.0150  -1.0119  -0.8898
 -0.8679  -0.8122  -0.7987  -0.7622  -0.7569  -0.7084  -0.6788  -0.6483
 -0.6369  -0.5937  -0.5755  -0.5616  -0.5468  -0.5318  -0.5234  -0.5151
 -0.4841  -0.4795  -0.4701  -0.4642  -0.4367  -0.4360  -0.4281  -0.4198
 -0.4137  -0.3941  -0.3910  -0.3864  -0.3809  -0.3623  -0.3544  -0.3499
 -0.3225  -0.3160  -0.3151  -0.2812  -0.2707  -0.2668  -0.2645  -0.2547
 -0.2466  -0.1530

 Beta MOs
 -- Occupied --
-19.1637 -19.1636 -19.0797 -19.0783 -14.5542 -10.2403 -10.2348 -10.2345
-10.2007 -10.1986 -10.1908 -10.1904 -10.1887 -10.1856 -10.1853 -10.1847
-10.1845 -10.1822 -10.1819  -1.2380  -1.0646  -1.0047  -1.0018  -0.8878
 -0.8663  -0.8097  -0.7956  -0.7604  -0.7551  -0.7057  -0.6735  -0.6463
 -0.6344  -0.5930  -0.5742  -0.5597  -0.5453  -0.5304  -0.5230  -0.5135
 -0.4819  -0.4779  -0.4687  -0.4633  -0.4357  -0.4269  -0.4246  -0.4142
 -0.4104  -0.3924  -0.3836  -0.3796  -0.3680  -0.3609  -0.3486  -0.3437
 -0.3210  -0.3147  -0.3133  -0.2675  -0.2613  -0.2582  -0.2560  -0.2491
 -0.2411

          Ground-State Mulliken Net Atomic Charges

     Atom                 Charge (a.u.)    Spin (a.u.)
  --------------------------------------------------------
      1 O                    -0.004623       0.003965
      2 N                    -0.244609       0.001537
      3 O                     0.056686       0.007986
      4 C                    -0.937686       0.040479
      5 C                     2.010902       0.019146
      6 C                     1.300250       0.072935
      7 C                     0.085642      -0.002673
      8 C                     0.099335       0.071212
      9 C                    -1.960918       0.055988
     10 O                    -0.277427       0.216942
     11 C                    -0.428856       0.021185
     12 C                     0.160305       0.019581
     13 C                     1.033286       0.033228
     14 C                     0.994954       0.028429
     15 C                    -0.157260       0.036384
     16 C                    -1.065479       0.039595
     17 C                    -2.628652       0.053584
     18 O                    -0.299540       0.231680
     19 C                    -0.710970       0.062898
     20 H                     0.318259      -0.001404
     21 H                     0.430713      -0.004601
     22 H                     0.186904       0.000100
     23 H                     0.170302      -0.001497
     24 H                     0.367317      -0.002628
     25 H                     0.351956      -0.002142
     26 H                     0.149207      -0.001908
  --------------------------------------------------------
  Sum of atomic charges =    -1.000000

                    Cartesian Multipole Moments
 -----------------------------------------------------------------
    Charge (ESU x 10^10)
                -4.8032
    Dipole Moment (Debye)
         X      -1.4682      Y      -3.8610      Z      -0.1878
       Tot       4.1350
    Quadrupole Moments (Debye-Ang)
        XX    -113.8283     XY     -19.3098     YY    -153.6243
        XZ      -1.3901     YZ      -1.7078     ZZ    -118.5156

 Total job time:  804.47s(wall), 6044.68s(cpu)
        *  Thank you very much for using Q-Chem.  Have a nice day.  *
