 Q-Chem 5.4, Q-Chem, Inc., Pleasanton, CA (2021)
 Q-Chem 5.4.0 for Intel X86 EM64T Linux

User input:
--------------------------------------------------------------
$molecule
0 1
C                 -0.3479110000      0.7320900000      0.4395880000
C                 -1.4425130000     -0.1387450000     -0.0445970000
C                 -1.2403400000     -1.2984660000     -0.6941600000
C                  0.1670630000     -1.7380070000     -0.9451000000
C                  1.2692740000     -0.8713540000     -0.4605270000
C                  1.0593410000      0.2778410000      0.2048730000
O                 -0.6068250000      1.7923630000      0.9877190000
O                  0.4115540000     -2.7791890000     -1.5311040000
C                  2.2700440000      1.0643680000      0.6829820000
C                  2.1591760000      1.9149630000      1.9220480000
O                  3.3120410000      0.9512410000      0.0719900000
H                 -2.4401970000      0.2384390000      0.1558740000
H                  1.5310120000      2.7849890000      1.7193370000
H                  3.1582160000      2.2283900000      2.2222470000
H                  1.6708560000      1.3665380000      2.7324080000
C                 -2.3364890000     -2.1857610000     -1.1955340000
H                  2.2761340000     -1.2174440000     -0.6676410000
H                 -3.3168990000     -1.7720030000     -0.9579470000
H                 -2.2520660000     -3.1839620000     -0.7570210000
H                 -2.2561690000     -2.3195700000     -2.2778740000
$end
$rem
MAX_SCF_CYCLES=200
BASIS  =  6-311++G(d,p)
GUI  =  2
JOB_TYPE  =  SP
METHOD  =  B3LYP
SOLVENT_METHOD = COSMO
$end
$solvent
dielectric 37.219
opticaldielectric 1.43
$end

--------------------------------------------------------------

             Standard Nuclear Orientation (Angstroms)
    I     Atom           X                Y                Z
 ----------------------------------------------------------------
    1      C       0.3168662909    -1.2103428027     0.1210011485
    2      C      -1.1487463164    -1.4130781257     0.0783358946
    3      C      -2.0378491067    -0.4083304982    -0.0096257106
    4      C      -1.5232067987     0.9948036073    -0.0671440157
    5      C      -0.0552822440     1.2054507864    -0.0272344800
    6      C       0.8283951783     0.1946019374     0.0418812948
    7      O       1.0637005080    -2.1692002651     0.2413917876
    8      O      -2.2821829415     1.9461813872    -0.1450672399
    9      C       2.3110693362     0.5332637890     0.0414526838
   10      C       3.2959358176    -0.4508652241    -0.5352762120
   11      O       2.6583039768     1.6133943361     0.4711185955
   12      H      -1.4616718736    -2.4506776743     0.1357338736
   13      H       3.3779739552    -1.3204462209     0.1202584057
   14      H       4.2625033387     0.0405938650    -0.6384849149
   15      H       2.9533984890    -0.8278332153    -1.5029915858
   16      C      -3.5221400084    -0.5973093551    -0.0467531409
   17      H       0.2811033727     2.2360094391    -0.0623789952
   18      H      -3.7851243208    -1.6544741096    -0.0010479288
   19      H      -3.9409930440    -0.1621023479    -0.9583358996
   20      H      -3.9960151559    -0.0732380883     0.7878771236
 ----------------------------------------------------------------

    9    -573.5784428734      8.31e-06  Convergence criterion met
 Total energy in the final basis set =     -573.5784428734
    5    -573.5951276811      5.77e-06  Convergence criterion met
 Total energy in the final basis set =     -573.5951276811

                    Orbital Energies (a.u.)
 --------------------------------------------------------------

 Alpha MOs
 -- Occupied --
-19.1519 -19.1475 -19.1388 -10.2960 -10.2946 -10.2912 -10.2270 -10.2240
-10.2234 -10.2071 -10.1772 -10.1747  -1.0826  -1.0799  -1.0742  -0.8742
 -0.8208  -0.7595  -0.7340  -0.7031  -0.6366  -0.6206  -0.5597  -0.5381
 -0.5075  -0.4912  -0.4751  -0.4711  -0.4561  -0.4542  -0.4523  -0.4325
 -0.4277  -0.4123  -0.4119  -0.4012  -0.3938  -0.3812  -0.3190  -0.2996
 -0.2983  -0.2936  -0.2758

          Ground-State Mulliken Net Atomic Charges

     Atom                 Charge (a.u.)
  ----------------------------------------
      1 C                    -1.429379
      2 C                    -0.470270
      3 C                     1.149394
      4 C                    -0.823969
      5 C                     0.124099
      6 C                     1.417453
      7 O                    -0.270271
      8 O                    -0.271422
      9 C                     0.220380
     10 C                    -0.641323
     11 O                    -0.314205
     12 H                     0.232493
     13 H                     0.217518
     14 H                     0.190515
     15 H                     0.195259
     16 C                    -0.377229
     17 H                     0.264867
     18 H                     0.184466
     19 H                     0.200581
     20 H                     0.201046
  ----------------------------------------
  Sum of atomic charges =     0.000000

                    Cartesian Multipole Moments
 -----------------------------------------------------------------
    Charge (ESU x 10^10)
                 0.0000
    Dipole Moment (Debye)
         X      -2.2366      Y      -3.2214      Z      -1.5893
       Tot       4.2315
    Quadrupole Moments (Debye-Ang)
        XX     -69.6530     XY       4.8681     YY     -83.6115
        XZ      -5.1060     YZ      -0.6786     ZZ     -68.3701

 Total job time:  25.69s(wall), 187.35s(cpu)
        *  Thank you very much for using Q-Chem.  Have a nice day.  *
