 Q-Chem 5.4, Q-Chem, Inc., Pleasanton, CA (2021)
 Q-Chem 5.4.0 for Intel X86 EM64T Linux

User input:
--------------------------------------------------------------
$molecule
0 1
O                  3.1022000000     -2.1811470000      0.2142240000
C                  2.7805010000     -0.8826250000      0.2560140000
C                  3.8157390000      0.0496190000      0.4188680000
C                  3.5277260000      1.4031740000      0.4673110000
C                  2.2121500000      1.8664570000      0.3561240000
C                  1.1744610000      0.9593030000      0.1944920000
C                 -0.2247360000      1.4920750000      0.0785090000
O                 -0.4213050000      2.6931320000      0.1273740000
C                 -1.3262780000      0.5023220000     -0.0943160000
C                 -2.6775400000      0.9023750000     -0.2125370000
O                 -2.9977330000      2.2159670000     -0.1695730000
C                 -3.6805890000     -0.0625640000     -0.3737690000
C                 -3.3714130000     -1.4138000000     -0.4201430000
C                 -2.0495960000     -1.8295690000     -0.3058820000
C                 -1.0402240000     -0.8823120000     -0.1449090000
C                  0.3576650000     -1.3877190000     -0.0276240000
O                  0.5785180000     -2.6071690000     -0.0753750000
C                  1.4420360000     -0.4272800000      0.1420400000
H                  2.2609650000     -2.6853830000      0.0965430000
H                  4.8303130000     -0.3199780000      0.5038450000
H                  4.3364870000      2.1143380000      0.5935320000
H                  1.9806210000      2.9225890000      0.3931680000
H                 -3.9523660000      2.3128390000     -0.2641250000
H                 -4.7130060000      0.2636870000     -0.4628590000
H                 -4.1644240000     -2.1418690000     -0.5456340000
H                 -1.7801700000     -2.8764610000     -0.3386170000
$end
$rem
MAX_SCF_CYCLES=200
BASIS  =  6-311++G(d,p)
GUI  =  2
JOB_TYPE  =  SP
METHOD  =  B3LYP
SOLVENT_METHOD = COSMO
$end
$solvent
dielectric 37.219
opticaldielectric 1.43
$end

--------------------------------------------------------------

             Standard Nuclear Orientation (Angstroms)
    I     Atom           X                Y                Z
 ----------------------------------------------------------------
    1      O       3.2334621049    -1.9286313067     0.0000685036
    2      C       2.8056318049    -0.6604210451     0.0001133016
    3      C       3.7667734994     0.3611094984     0.0002097910
    4      C       3.3682014242     1.6872126808     0.0001764524
    5      C       2.0127598519     2.0343610932     0.0000260968
    6      C       1.0471246609     1.0376663476    -0.0000499565
    7      C      -0.3977338752     1.4468534308    -0.0002657526
    8      O      -0.6923387377     2.6287049191    -0.0006002016
    9      C      -1.4205799281     0.3621137569    -0.0000392504
   10      C      -2.8065862104     0.6430303503     0.0001915852
   11      O      -3.2341197620     1.9264275738     0.0003754476
   12      C      -3.7328122347    -0.4083095935     0.0002408870
   13      C      -3.3132589969    -1.7302604598    -0.0000089318
   14      C      -1.9554641290    -2.0294471568    -0.0001985813
   15      C      -1.0214561860    -0.9951990605    -0.0001428975
   16      C       0.4198517031    -1.3771901962    -0.0000775522
   17      O       0.7402405725    -2.5752993231    -0.0001040382
   18      C       1.4279163882    -0.3232001637     0.0000372336
   19      H       2.4318303650    -2.5058363121    -0.0000795720
   20      H       4.8130877932     0.0810919466     0.0002712843
   21      H       4.1204685756     2.4681572751     0.0002421827
   22      H       1.6949501479     3.0684741067    -0.0000406369
   23      H      -4.1982150257     1.9394178597     0.0003061671
   24      H      -4.7934463456    -0.1731142667     0.0004552895
   25      H      -4.0483692755    -2.5266973903    -0.0000141430
   26      H      -1.6004662916    -3.0510250181    -0.0003328153
 ----------------------------------------------------------------

    9    -839.4517519971      5.32e-06  Convergence criterion met
 Total energy in the final basis set =     -839.4517519971
    5    -839.4745138137      3.81e-06  Convergence criterion met
 Total energy in the final basis set =     -839.4745138137

                    Orbital Energies (a.u.)
 --------------------------------------------------------------

 Alpha MOs
 -- Occupied --
-19.1727 -19.1648 -19.1398 -19.1262 -10.2898 -10.2836 -10.2692 -10.2672
-10.2126 -10.2106 -10.2097 -10.2071 -10.2003 -10.2002 -10.1976 -10.1925
-10.1920 -10.1903  -1.0937  -1.0906  -1.0636  -1.0625  -0.8929  -0.8784
 -0.8150  -0.7761  -0.7750  -0.7678  -0.6940  -0.6734  -0.6608  -0.6229
 -0.6134  -0.5753  -0.5651  -0.5405  -0.5262  -0.5125  -0.4946  -0.4891
 -0.4753  -0.4669  -0.4624  -0.4525  -0.4525  -0.4423  -0.4172  -0.4170
 -0.4129  -0.4092  -0.3935  -0.3901  -0.3801  -0.3743  -0.3602  -0.3567
 -0.2944  -0.2933  -0.2790  -0.2717  -0.2550  -0.2497

          Ground-State Mulliken Net Atomic Charges

     Atom                 Charge (a.u.)
  ----------------------------------------
      1 O                    -0.332003
      2 C                    -0.119017
      3 C                    -0.152663
      4 C                    -0.388366
      5 C                    -0.078818
      6 C                     0.492987
      7 C                    -0.382651
      8 O                    -0.302894
      9 C                    -0.245928
     10 C                     0.004293
     11 O                    -0.224444
     12 C                    -0.162702
     13 C                    -0.379866
     14 C                     0.069346
     15 C                     0.571952
     16 C                    -0.451887
     17 O                    -0.333493
     18 C                     0.421040
     19 H                     0.363993
     20 H                     0.233392
     21 H                     0.237608
     22 H                     0.187448
     23 H                     0.328326
     24 H                     0.208964
     25 H                     0.238790
     26 H                     0.196593
  ----------------------------------------
  Sum of atomic charges =     0.000000

                    Cartesian Multipole Moments
 -----------------------------------------------------------------
    Charge (ESU x 10^10)
                 0.0000
    Dipole Moment (Debye)
         X      -4.2656      Y      -0.6923      Z       0.0012
       Tot       4.3215
    Quadrupole Moments (Debye-Ang)
        XX     -66.5993     XY      14.8482     YY    -113.9685
        XZ      -0.0018     YZ       0.0028     ZZ    -105.2392

 Total job time:  59.04s(wall), 445.37s(cpu)
        *  Thank you very much for using Q-Chem.  Have a nice day.  *
