 Q-Chem 5.4, Q-Chem, Inc., Pleasanton, CA (2021)
 Q-Chem 5.4.0 for Intel X86 EM64T Linux

User input:
--------------------------------------------------------------
$molecule
-3 1
C                  5.0501380000     -2.8934330000     -0.3568480000
C                  5.8212790000     -2.0439660000     -1.1246940000
C                  5.2650520000     -0.8212910000     -1.5965520000
C                  3.7072170000     -2.5913600000     -0.0153310000
C                  3.1527870000     -1.3371840000     -0.4687320000
C                  3.9657320000     -0.4925660000     -1.2713610000
C                  2.9362350000     -3.5160190000      0.7755660000
C                  1.5821840000     -3.1341760000      1.1117690000
C                  1.0392840000     -1.8787770000      0.6578560000
C                  1.8126910000     -0.9528810000     -0.1335900000
C                  0.7675680000     -4.0215610000      1.9071620000
C                 -0.5432510000     -3.6617940000      2.2295830000
C                 -0.3082010000     -1.5567960000      1.0141700000
C                 -1.0619740000     -2.4297230000      1.7749270000
O                  3.4486960000     -4.6431160000      1.1766470000
O                  1.3050690000      0.1828300000     -0.5381670000
O                  1.2963610000     -5.1887650000      2.3259370000
H                  5.4488500000     -3.8326530000      0.0122350000
H                  6.8491760000     -2.3026680000     -1.3757790000
H                  5.8698840000     -0.1527780000     -2.2089780000
H                  2.2394320000     -5.1880630000      1.9521710000
O                 -0.8555140000     -0.3725450000      0.5951600000
H                 -2.0803100000     -2.1729910000      2.0363430000
H                 -0.0992700000      0.0621680000      0.0685150000
H                  3.5184490000      0.4338650000     -1.6163700000
S                 -1.6602240000     -4.7206970000      3.2378390000
O                 -1.8308010000     -6.0063670000      2.4993230000
O                 -1.0201490000     -4.8830410000      4.5763590000
O                 -2.9399690000     -3.9412650000      3.3158120000
$end
$rem
MAX_SCF_CYCLES=200
BASIS  =  6-311++G(d,p)
GUI  =  2
JOB_TYPE  =  SP
METHOD  =  B3LYP
SOLVENT_METHOD = PCM
$end
$pcm
theory = CPCM
$end
$solvent
dielectric 37.219
opticaldielectric 1.43
$end

--------------------------------------------------------------

             Standard Nuclear Orientation (Angstroms)
    I     Atom           X                Y                Z
 ----------------------------------------------------------------
    1      C       5.0501380000    -2.8934330000    -0.3568480000
    2      C       5.8212790000    -2.0439660000    -1.1246940000
    3      C       5.2650520000    -0.8212910000    -1.5965520000
    4      C       3.7072170000    -2.5913600000    -0.0153310000
    5      C       3.1527870000    -1.3371840000    -0.4687320000
    6      C       3.9657320000    -0.4925660000    -1.2713610000
    7      C       2.9362350000    -3.5160190000     0.7755660000
    8      C       1.5821840000    -3.1341760000     1.1117690000
    9      C       1.0392840000    -1.8787770000     0.6578560000
   10      C       1.8126910000    -0.9528810000    -0.1335900000
   11      C       0.7675680000    -4.0215610000     1.9071620000
   12      C      -0.5432510000    -3.6617940000     2.2295830000
   13      C      -0.3082010000    -1.5567960000     1.0141700000
   14      C      -1.0619740000    -2.4297230000     1.7749270000
   15      O       3.4486960000    -4.6431160000     1.1766470000
   16      O       1.3050690000     0.1828300000    -0.5381670000
   17      O       1.2963610000    -5.1887650000     2.3259370000
   18      H       5.4488500000    -3.8326530000     0.0122350000
   19      H       6.8491760000    -2.3026680000    -1.3757790000
   20      H       5.8698840000    -0.1527780000    -2.2089780000
   21      H       2.2394320000    -5.1880630000     1.9521710000
   22      O      -0.8555140000    -0.3725450000     0.5951600000
   23      H      -2.0803100000    -2.1729910000     2.0363430000
   24      H      -0.0992700000     0.0621680000     0.0685150000
   25      H       3.5184490000     0.4338650000    -1.6163700000
   26      S      -1.6602240000    -4.7206970000     3.2378390000
   27      O      -1.8308010000    -6.0063670000     2.4993230000
   28      O      -1.0201490000    -4.8830410000     4.5763590000
   29      O      -2.9399690000    -3.9412650000     3.3158120000
 ----------------------------------------------------------------

    9   -1463.1963665716      4.13e-06  Convergence criterion met
 Total energy in the final basis set =    -1463.1963665716

                    Orbital Energies (a.u.)
 --------------------------------------------------------------

 Alpha MOs
 -- Occupied --
-89.0340 -19.1090 -19.1022 -19.0794 -19.0793 -19.0774 -19.0472 -19.0439
-10.2157 -10.2026 -10.1930 -10.1889 -10.1663 -10.1549 -10.1540 -10.1533
-10.1529 -10.1526 -10.1503 -10.1469 -10.1465 -10.1412  -8.0924  -6.0553
 -6.0552  -6.0539  -1.0936  -1.0331  -1.0190  -0.9605  -0.9593  -0.9559
 -0.9533  -0.8360  -0.8211  -0.7655  -0.7314  -0.7214  -0.7087  -0.6543
 -0.6269  -0.6099  -0.5854  -0.5644  -0.5468  -0.5163  -0.5031  -0.4950
 -0.4810  -0.4656  -0.4445  -0.4420  -0.4409  -0.4346  -0.4133  -0.4097
 -0.4038  -0.3978  -0.3894  -0.3878  -0.3778  -0.3758  -0.3687  -0.3538
 -0.3362  -0.3321  -0.3318  -0.3236  -0.3218  -0.3211  -0.3112  -0.2979
 -0.2824  -0.2782  -0.2761  -0.2452  -0.2388  -0.2374  -0.2299  -0.2245
 -0.2175  -0.1899  -0.1171

          Ground-State Mulliken Net Atomic Charges

     Atom                 Charge (a.u.)
  ----------------------------------------
      1 C                    -0.147937
      2 C                    -0.463948
      3 C                    -0.521569
      4 C                     0.201042
      5 C                     0.132985
      6 C                    -0.129834
      7 C                    -0.255223
      8 C                     0.327868
      9 C                     0.767344
     10 C                    -0.298781
     11 C                    -0.481383
     12 C                    -0.420927
     13 C                    -0.390159
     14 C                    -0.278836
     15 O                    -0.656396
     16 O                    -0.673228
     17 O                    -0.435060
     18 H                     0.157036
     19 H                     0.182244
     20 H                     0.180154
     21 H                     0.410033
     22 O                    -0.483597
     23 H                     0.216255
     24 H                     0.379164
     25 H                     0.161108
     26 S                     0.784060
     27 O                    -0.417918
     28 O                    -0.420391
     29 O                    -0.424108
  ----------------------------------------
  Sum of atomic charges =    -3.000000

                    Cartesian Multipole Moments
 -----------------------------------------------------------------
    Charge (ESU x 10^10)
               -14.4096
    Dipole Moment (Debye)
         X      -4.5891      Y      48.4318      Z     -24.9711
       Tot      54.6833
    Quadrupole Moments (Debye-Ang)
        XX    -228.8645     XY      -4.0233     YY    -382.9051
        XZ      30.9284     YZ     125.9367     ZZ    -236.2824

 Total job time:  62.97s(wall), 466.84s(cpu)
        *  Thank you very much for using Q-Chem.  Have a nice day.  *
