 Gaussian 16, Revision A.03,
 Gaussian 16:  ES64L-G16RevA.03 25-Dec-2016

 --------------------------------------
 #P UB3LYP/6-311++G(d,p) nosym opt freq
 --------------------------------------

 -------
 Reduced
 -------
 Symbolic Z-matrix:
 Charge = -3 Multiplicity = 1

 SCF Done:  E(UB3LYP) =  -1462.68657387     A.U. after   38 cycles
 SCF Done:  E(UB3LYP) =  -1462.68657373     A.U. after   17 cycles
 SCF Done:  E(UB3LYP) =  -1462.68657383     A.U. after   21 cycles
 Optimization completed.
    -- Stationary point found.
 Normal termination of Gaussian 16 at Sun Jan  7 05:44:23 2024.

 ----------------------------------------------------------------------
 #P Geom=AllCheck Guess=TCheck SCRF=Check GenChk UB3LYP/6-311++G(d,p) F
 req
 ----------------------------------------------------------------------

 Structure from the checkpoint file:  "194-an.chk"
 -------
 Reduced
 -------
 Charge = -3 Multiplicity = 1

                          Input orientation:
 ---------------------------------------------------------------------
 Center     Atomic      Atomic             Coordinates (Angstroms)
 Number     Number       Type             X           Y           Z
 ---------------------------------------------------------------------
      1          6           0        5.050138   -2.893433   -0.356848
      2          6           0        5.821279   -2.043966   -1.124694
      3          6           0        5.265052   -0.821291   -1.596552
      4          6           0        3.707217   -2.591360   -0.015331
      5          6           0        3.152787   -1.337184   -0.468732
      6          6           0        3.965732   -0.492566   -1.271361
      7          6           0        2.936235   -3.516019    0.775566
      8          6           0        1.582184   -3.134176    1.111769
      9          6           0        1.039284   -1.878777    0.657856
     10          6           0        1.812691   -0.952881   -0.133590
     11          6           0        0.767568   -4.021561    1.907162
     12          6           0       -0.543251   -3.661794    2.229583
     13          6           0       -0.308201   -1.556796    1.014170
     14          6           0       -1.061974   -2.429723    1.774927
     15          8           0        3.448696   -4.643116    1.176647
     16          8           0        1.305069    0.182830   -0.538167
     17          8           0        1.296361   -5.188765    2.325937
     18          1           0        5.448850   -3.832653    0.012235
     19          1           0        6.849176   -2.302668   -1.375779
     20          1           0        5.869884   -0.152778   -2.208978
     21          1           0        2.239432   -5.188063    1.952171
     22          8           0       -0.855514   -0.372545    0.595160
     23          1           0       -2.080310   -2.172991    2.036343
     24          1           0       -0.099270    0.062168    0.068515
     25          1           0        3.518449    0.433865   -1.616370
     26         16           0       -1.660224   -4.720697    3.237839
     27          8           0       -1.830801   -6.006367    2.499323
     28          8           0       -1.020149   -4.883041    4.576359
     29          8           0       -2.939969   -3.941265    3.315812
 ---------------------------------------------------------------------

 SCF Done:  E(UB3LYP) =  -1462.68657383     A.U. after    2 cycles

 Alpha  occ. eigenvalues --  -88.70709 -18.80517 -18.79839 -18.75786 -18.75752
 Alpha  occ. eigenvalues --  -18.74955 -18.74818 -18.74814  -9.91326  -9.90701
 Alpha  occ. eigenvalues --   -9.90589  -9.90469  -9.87813  -9.87721  -9.87398
 Alpha  occ. eigenvalues --   -9.87396  -9.86342  -9.86097  -9.86058  -9.85907
 Alpha  occ. eigenvalues --   -9.85843  -9.84592  -7.76515  -5.72791  -5.72771
 Alpha  occ. eigenvalues --   -5.72711  -0.76284  -0.72377  -0.72148  -0.66635
 Alpha  occ. eigenvalues --   -0.66280  -0.62631  -0.62551  -0.55138  -0.52522
 Alpha  occ. eigenvalues --   -0.47409  -0.44937  -0.43037  -0.41104  -0.36027
 Alpha  occ. eigenvalues --   -0.33265  -0.32106  -0.28580  -0.26203  -0.25433
 Alpha  occ. eigenvalues --   -0.22739  -0.21026  -0.18642  -0.18281  -0.16197
 Alpha  occ. eigenvalues --   -0.15786  -0.14728  -0.12527  -0.11623  -0.11429
 Alpha  occ. eigenvalues --   -0.11319  -0.10626  -0.10231  -0.09763  -0.09260
 Alpha  occ. eigenvalues --   -0.07899  -0.07594  -0.07180  -0.05778  -0.04613
 Alpha  occ. eigenvalues --   -0.04013  -0.03471  -0.03286  -0.02058   0.00839
 Alpha  occ. eigenvalues --    0.01164   0.01795   0.04041   0.04137   0.04603
 Alpha  occ. eigenvalues --    0.05047   0.05492   0.06431   0.07477   0.07788
 Alpha  occ. eigenvalues --    0.08887   0.11309   0.18095
 Alpha virt. eigenvalues --    0.19663   0.21525   0.24952   0.25866   0.25919
 Alpha virt. eigenvalues --    0.26790   0.28407   0.28829   0.29806   0.30824
 Alpha virt. eigenvalues --    0.31759   0.32016   0.32184   0.32704   0.33208

  Beta  occ. eigenvalues --  -88.70709 -18.80517 -18.79839 -18.75786 -18.75752
  Beta  occ. eigenvalues --  -18.74955 -18.74818 -18.74814  -9.91326  -9.90701
  Beta  occ. eigenvalues --   -9.90589  -9.90469  -9.87813  -9.87721  -9.87398
  Beta  occ. eigenvalues --   -9.87396  -9.86342  -9.86097  -9.86058  -9.85907
  Beta  occ. eigenvalues --   -9.85843  -9.84592  -7.76515  -5.72791  -5.72771
  Beta  occ. eigenvalues --   -5.72711  -0.76284  -0.72377  -0.72148  -0.66635
  Beta  occ. eigenvalues --   -0.66280  -0.62631  -0.62551  -0.55138  -0.52522
  Beta  occ. eigenvalues --   -0.47409  -0.44937  -0.43037  -0.41104  -0.36027
  Beta  occ. eigenvalues --   -0.33265  -0.32106  -0.28580  -0.26203  -0.25433
  Beta  occ. eigenvalues --   -0.22739  -0.21026  -0.18642  -0.18281  -0.16197
  Beta  occ. eigenvalues --   -0.15786  -0.14728  -0.12527  -0.11623  -0.11429
  Beta  occ. eigenvalues --   -0.11319  -0.10626  -0.10231  -0.09763  -0.09260
  Beta  occ. eigenvalues --   -0.07899  -0.07594  -0.07180  -0.05778  -0.04613
  Beta  occ. eigenvalues --   -0.04013  -0.03471  -0.03286  -0.02058   0.00839
  Beta  occ. eigenvalues --    0.01164   0.01795   0.04041   0.04137   0.04603
  Beta  occ. eigenvalues --    0.05047   0.05492   0.06431   0.07477   0.07788
  Beta  occ. eigenvalues --    0.08887   0.11309   0.18095
  Beta virt. eigenvalues --    0.19663   0.21525   0.24952   0.25866   0.25919
  Beta virt. eigenvalues --    0.26790   0.28407   0.28829   0.29806   0.30824
  Beta virt. eigenvalues --    0.31759   0.32016   0.32184   0.32704   0.33208

 Mulliken charges and spin densities:
               1          2
     1  C   -1.006624   0.000000
     2  C    0.916790  -0.000000
     3  C    0.896565   0.000000
     4  C    0.575839   0.000000
     5  C    0.762538  -0.000000
     6  C   -0.819436  -0.000000
     7  C   -0.419854   0.000000
     8  C    0.316096   0.000000
     9  C    0.828642   0.000000
    10  C   -0.416750  -0.000000
    11  C   -0.603630   0.000000
    12  C   -0.158224  -0.000000
    13  C   -0.433955  -0.000000
    14  C   -0.175205   0.000000
    15  O   -0.525230  -0.000000
    16  O   -0.539893   0.000000
    17  O   -0.341311  -0.000000
    18  H    0.232065  -0.000000
    19  H   -1.080943  -0.000000
    20  H   -1.373082   0.000000
    21  H    0.388977   0.000000
    22  O   -0.440078   0.000000
    23  H    0.208299  -0.000000
    24  H    0.356441  -0.000000
    25  H    0.232427  -0.000000
    26  S    0.685280  -0.000000
    27  O   -0.350593  -0.000000
    28  O   -0.346136  -0.000000
    29  O   -0.369018  -0.000000
 Sum of Mulliken charges =  -3.00000  -0.00000

 Dipole moment (field-independent basis, Debye):
    X=            -20.4374    Y=             42.6459    Z=            -15.5794  Tot=             49.7903
 Quadrupole moment (field-independent basis, Debye-Ang):
   XX=           -367.5633   YY=           -360.2197   ZZ=           -252.3268
   XY=              3.8307   XZ=             77.0921   YZ=            108.7270

  Exact polarizability:1726.473  15.652 989.340-561.008-549.065 741.024
 Approx polarizability:5874.6871310.2311183.638****************2004.156

                      1                      2                      3
                      A                      A                      A
 Frequencies --     38.4439                41.7232                83.1677
 Red. masses --     13.1945                 9.0413                 8.3748
 Frc consts  --      0.0115                 0.0093                 0.0341
 IR Inten    --      0.4747                 7.5384                 0.1067

                      4                      5                      6
                      A                      A                      A
 Frequencies --     95.6215               118.9380               142.8306
 Red. masses --      9.3793                10.6742                 5.2366
 Frc consts  --      0.0505                 0.0890                 0.0629
 IR Inten    --      0.0190                 1.7232                 0.5419

                      7                      8                      9
                      A                      A                      A
 Frequencies --    153.1287               183.8556               206.7960
 Red. masses --     10.6543                 8.8286                 9.3993
 Frc consts  --      0.1472                 0.1758                 0.2368
 IR Inten    --      1.6986                16.3217                 3.7851

                     10                     11                     12
                      A                      A                      A
 Frequencies --    229.5057               262.1290               292.7796
 Red. masses --      7.7987                 8.8989                13.4308
 Frc consts  --      0.2420                 0.3603                 0.6783
 IR Inten    --      0.2804                 5.8144                28.8640

                     13                     14                     15
                      A                      A                      A
 Frequencies --    302.2058               340.3720               359.7420
 Red. masses --      5.9792                 7.0479                 6.4460
 Frc consts  --      0.3217                 0.4811                 0.4915
 IR Inten    --      6.1348               148.6712                33.4491

                     16                     17                     18
                      A                      A                      A
 Frequencies --    392.2032               403.4874               422.8806
 Red. masses --      9.7656                12.2137                 7.0823
 Frc consts  --      0.8851                 1.1715                 0.7462
 IR Inten    --      0.3412                10.7711                 6.9781

                     19                     20                     21
                      A                      A                      A
 Frequencies --    433.7550               443.8318               461.3135
 Red. masses --      8.7103                 3.6674                12.8320
 Frc consts  --      0.9655                 0.4256                 1.6089
 IR Inten    --      0.7500                12.9694               337.8272

                     22                     23                     24
                      A                      A                      A
 Frequencies --    481.6699               491.0894               493.4906
 Red. masses --     10.6149                 7.1454                14.2713
 Frc consts  --      1.4510                 1.0153                 2.0477
 IR Inten    --    190.7224                 3.2465                 6.6953

                     25                     26                     27
                      A                      A                      A
 Frequencies --    536.4151               542.6260               547.4664
 Red. masses --      8.4997                 7.9852                 8.6476
 Frc consts  --      1.4410                 1.3853                 1.5271
 IR Inten    --     51.5019                16.0466                85.1687

                     28                     29                     30
                      A                      A                      A
 Frequencies --    606.6827               612.8159               652.1968
 Red. masses --     13.7735                 4.6471                 6.6659
 Frc consts  --      2.9869                 1.0282                 1.6706
 IR Inten    --    609.5940                 2.1452                 3.1989

                     31                     32                     33
                      A                      A                      A
 Frequencies --    659.3933               682.9438               714.7205
 Red. masses --      7.2360                 7.3805                 7.0131
 Frc consts  --      1.8537                 2.0282                 2.1107
 IR Inten    --      5.7743               413.1658                 4.8247

                     34                     35                     36
                      A                      A                      A
 Frequencies --    729.3147               740.3282               782.0836
 Red. masses --      6.3382                 6.6372                 6.3056
 Frc consts  --      1.9863                 2.1433                 2.2724
 IR Inten    --    147.7329                 0.4823                 1.8461

                     37                     38                     39
                      A                      A                      A
 Frequencies --    782.8717               842.2799               865.3266
 Red. masses --      7.7213                 1.4667                 1.5103
 Frc consts  --      2.7882                 0.6130                 0.6663
 IR Inten    --     12.4396                38.7240                49.0321

                     40                     41                     42
                      A                      A                      A
 Frequencies --    872.9067               890.8197               907.9515
 Red. masses --      1.3702                 8.5321                 8.1677
 Frc consts  --      0.6151                 3.9892                 3.9671
 IR Inten    --     31.0514               111.2850               216.1168

                     43                     44                     45
                      A                      A                      A
 Frequencies --    944.4406               955.1098               979.1750
 Red. masses --      1.0531                12.9029                 1.2160
 Frc consts  --      0.5534                 6.9349                 0.6869
 IR Inten    --     59.9034              1259.6797                15.3012

                     46                     47                     48
                      A                      A                      A
 Frequencies --    982.9391               995.3387              1010.6519
 Red. masses --      1.0535                 6.8051                 2.2812
 Frc consts  --      0.5997                 3.9722                 1.3728
 IR Inten    --     64.7011               415.4882               318.1118

                     49                     50                     51
                      A                      A                      A
 Frequencies --   1044.1763              1087.6257              1095.5207
 Red. masses --      1.2561                 4.2687                 2.4286
 Frc consts  --      0.8069                 2.9751                 1.7173
 IR Inten    --    759.5663               169.9825                60.1824

                     52                     53                     54
                      A                      A                      A
 Frequencies --   1109.6346              1134.7010              1136.5113
 Red. masses --     11.9625                20.6285                 1.2989
 Frc consts  --      8.6783                15.6488                 0.9885
 IR Inten    --    152.9231               343.8073               199.0903

                     55                     56                     57
                      A                      A                      A
 Frequencies --   1173.6897              1202.5389              1234.5989
 Red. masses --      1.8312                 1.8701                 4.8514
 Frc consts  --      1.4862                 1.5933                 4.3568
 IR Inten    --    198.0739                 9.2258               239.3195

                     58                     59                     60
                      A                      A                      A
 Frequencies --   1252.1210              1267.9440              1286.9107
 Red. masses --      2.9730                 3.9201                 7.0435
 Frc consts  --      2.7462                 3.7132                 6.8728
 IR Inten    --    511.5177              1604.7072              1232.6607

                     61                     62                     63
                      A                      A                      A
 Frequencies --   1302.4872              1327.4395              1356.3468
 Red. masses --      7.9956                 4.0385                 6.3441
 Frc consts  --      7.9919                 4.1928                 6.8764
 IR Inten    --   2584.5438               138.1052                43.1628

                     64                     65                     66
                      A                      A                      A
 Frequencies --   1387.4236              1413.7309              1463.6852
 Red. masses --      2.8539                 9.2801                 4.9637
 Frc consts  --      3.2367                10.9279                 6.2654
 IR Inten    --    131.0888               508.5439               497.7670

                     67                     68                     69
                      A                      A                      A
 Frequencies --   1468.5195              1480.8844              1519.5402
 Red. masses --      2.9591                 3.9322                 3.7484
 Frc consts  --      3.7598                 5.0808                 5.0994
 IR Inten    --    739.4935                34.4319               267.2676

                     70                     71                     72
                      A                      A                      A
 Frequencies --   1534.7914              1570.2695              1587.8811
 Red. masses --      4.8107                 5.4076                 5.0683
 Frc consts  --      6.6766                 7.8560                 7.5292
 IR Inten    --     47.5642              3846.0771                95.3445

                     73                     74                     75
                      A                      A                      A
 Frequencies --   1646.9588              1670.6692              2741.2180
 Red. masses --      1.3659                 1.7243                 1.0793
 Frc consts  --      2.1829                 2.8356                 4.7783
 IR Inten    --    115.7586                35.0896               725.5238

                     76                     77                     78
                      A                      A                      A
 Frequencies --   2806.2385              3089.5884              3114.7529
 Red. masses --      1.0794                 1.0852                 1.0912
 Frc consts  --      5.0084                 6.1030                 6.2374
 IR Inten    --   1120.8514              1257.5980               117.2726

                     79                     80                     81
                      A                      A                      A
 Frequencies --   3162.3799              3164.4678              3198.4157
 Red. masses --      1.0904                 1.0908                 1.0885
 Frc consts  --      6.4246                 6.4355                 6.5608
 IR Inten    --      2.6837                43.3259                 9.4924

 - Thermochemistry -
 -------------------
 Temperature   298.150 Kelvin.  Pressure   1.00000 Atm.
 Atom     1 has atomic number  6 and mass  12.00000

 Molecular mass:   318.99125 amu.
 Principal axes and moments of inertia in atomic units:
                           1         2         3
     Eigenvalues --  3072.26108********************
           X            0.75502  -0.56774   0.32804
           Y            0.40614   0.79770   0.44580
           Z           -0.51478  -0.20336   0.83286
 This molecule is an asymmetric top.
 Rotational symmetry number  1.
 Warning -- assumption of classical behavior for rotation
           may cause significant error
 Rotational temperatures (Kelvin)      0.02819     0.00778     0.00625
 Rotational constants (GHZ):           0.58743     0.16212     0.13032
 Zero-point vibrational energy     488946.2 (Joules/Mol)
                                  116.86094 (Kcal/Mol)
 Warning -- explicit consideration of  29 degrees of freedom as
           vibrations may cause significant error
 Vibrational temperatures:     55.31    60.03   119.66   137.58   171.13
          (Kelvin)            205.50   220.32   264.53   297.53   330.21
                              377.15   421.24   434.81   489.72   517.59
                              564.29   580.53   608.43   624.08   638.57
                              663.73   693.02   706.57   710.02   771.78
                              780.72   787.68   872.88   881.71   938.37
                              948.72   982.60  1028.32  1049.32  1065.17
                             1125.24  1126.38  1211.85  1245.01  1255.92
                             1281.69  1306.34  1358.84  1374.19  1408.81
                             1414.23  1432.07  1454.10  1502.34  1564.85
                             1576.21  1596.52  1632.58  1635.19  1688.68
                             1730.19  1776.31  1801.52  1824.29  1851.58
                             1873.99  1909.89  1951.48  1996.19  2034.04
                             2105.92  2112.87  2130.66  2186.28  2208.22
                             2259.27  2284.61  2369.61  2403.72  3944.00
                             4037.55  4445.23  4481.43  4549.96  4552.96
                             4601.81

 Zero-point correction=                           0.186230 (Hartree/Particle)
 Thermal correction to Energy=                    0.202987
 Thermal correction to Enthalpy=                  0.203931
 Thermal correction to Gibbs Free Energy=         0.141442
 Sum of electronic and zero-point Energies=          -1462.500344
 Sum of electronic and thermal Energies=             -1462.483587
 Sum of electronic and thermal Enthalpies=           -1462.482643
 Sum of electronic and thermal Free Energies=        -1462.545131

                     E (Thermal)             CV                S
                      KCal/Mol        Cal/Mol-Kelvin    Cal/Mol-Kelvin
 Total                  127.376             66.567            131.518
 Electronic               0.000              0.000              0.000
 Translational            0.889              2.981             43.176
 Rotational               0.889              2.981             34.515
 Vibrational            125.599             60.605             53.828
 Vibration     1          0.594              1.982              5.338
 Vibration     2          0.594              1.981              5.176
 Vibration     3          0.600              1.961              3.815
 Vibration     4          0.603              1.952              3.542
 Vibration     5          0.609              1.934              3.118
 Vibration     6          0.616              1.910              2.766
 Vibration     7          0.619              1.899              2.633
 Vibration     8          0.631              1.862              2.289
 Vibration     9          0.641              1.830              2.072
 Vibration    10          0.652              1.796              1.883
 Vibration    11          0.669              1.742              1.648
 Vibration    12          0.688              1.687              1.458
 Vibration    13          0.694              1.670              1.405
 Vibration    14          0.720              1.595              1.210
 Vibration    15          0.734              1.555              1.123
 Vibration    16          0.760              1.487              0.992
 Vibration    17          0.769              1.463              0.950
 Vibration    18          0.785              1.420              0.882
 Vibration    19          0.794              1.397              0.846
 Vibration    20          0.803              1.374              0.815
 Vibration    21          0.819              1.336              0.762
 Vibration    22          0.838              1.291              0.706
 Vibration    23          0.847              1.270              0.681
 Vibration    24          0.849              1.264              0.675
 Vibration    25          0.891              1.169              0.573
 Vibration    26          0.898              1.156              0.560
 Vibration    27          0.903              1.145              0.549
 Vibration    28          0.965              1.018              0.438
 Vibration    29          0.972              1.005              0.428

 Optimization completed.
    -- Stationary point found.
 Normal termination of Gaussian 16 at Sun Jan  7 07:33:19 2024.
