 Gaussian 16, Revision A.03,
 Gaussian 16:  ES64L-G16RevA.03 25-Dec-2016

 ----------------------------------------------------------------------
 #P UB3LYP/6-311++G(d,p) nosym opt freq SCRF=(PCM,Solvent=n,n-DiMethylF
 ormamide)
 ----------------------------------------------------------------------

 -------
 Radical
 -------
 Symbolic Z-matrix:
 Charge = -1 Multiplicity = 2

 SCF Done:  E(UB3LYP) =  -726.199855707     A.U. after   20 cycles
 SCF Done:  E(UB3LYP) =  -726.199855492     A.U. after   19 cycles
 SCF Done:  E(UB3LYP) =  -726.200549227     A.U. after   16 cycles
 SCF Done:  E(UB3LYP) =  -726.200248177     A.U. after   17 cycles
 SCF Done:  E(UB3LYP) =  -726.200670988     A.U. after   16 cycles
 SCF Done:  E(UB3LYP) =  -726.200719518     A.U. after   15 cycles
 SCF Done:  E(UB3LYP) =  -726.200743902     A.U. after   14 cycles
 SCF Done:  E(UB3LYP) =  -726.200748286     A.U. after   15 cycles
 SCF Done:  E(UB3LYP) =  -726.200749597     A.U. after   13 cycles
 SCF Done:  E(UB3LYP) =  -726.200749742     A.U. after   11 cycles
 Optimization completed.
    -- Stationary point found.
 Normal termination of Gaussian 16 at Sat Feb 10 12:14:37 2024.

 ----------------------------------------------------------------------
 #P Geom=AllCheck Guess=TCheck SCRF=Check GenChk UB3LYP/6-311++G(d,p) F
 req
 ----------------------------------------------------------------------

 Structure from the checkpoint file:  "076-rad.chk"
 -------
 Radical
 -------
 Charge = -1 Multiplicity = 2

                          Input orientation:
 ---------------------------------------------------------------------
 Center     Atomic      Atomic             Coordinates (Angstroms)
 Number     Number       Type             X           Y           Z
 ---------------------------------------------------------------------
      1          6           0        0.214562    1.771482   -1.928952
      2          6           0       -1.198641    1.889226   -1.621252
      3          6           0       -2.025808    0.808510   -1.530623
      4          6           0       -1.546541   -0.542558   -1.742689
      5          6           0       -0.142911   -0.669281   -2.039831
      6          6           0        0.713308    0.411369   -2.097377
      7          8           0        0.941390    2.793182   -2.086011
      8          8           0       -2.315374   -1.551103   -1.667966
      9          6           0        3.215927    0.777949   -1.549456
     10          6           0        4.511544    0.911435   -2.067543
     11          6           0        2.965876    1.163216   -0.226165
     12          6           0        3.993861    1.669274    0.565522
     13          6           0        5.533370    1.438430   -1.283888
     14          6           0        5.277022    1.814603    0.036497
     15          1           0       -1.580163    2.896057   -1.480601
     16          1           0       -3.080417    0.932561   -1.303305
     17          1           0        0.243135   -1.671243   -2.198441
     18          1           0        4.703087    0.606070   -3.089125
     19          1           0        1.970318    1.055680    0.186898
     20          1           0        3.794357    1.952939    1.592594
     21          1           0        6.528734    1.553370   -1.697845
     22          1           0        6.074406    2.218410    0.650281
     23          6           0        2.153357    0.152915   -2.398358
     24          8           0        2.471121   -0.617593   -3.302204
 ---------------------------------------------------------------------

 SCF Done:  E(UB3LYP) =  -726.200749742     A.U. after    1 cycles

 Alpha  occ. eigenvalues --  -19.11651 -19.08443 -19.08398 -10.26739 -10.23216
 Alpha  occ. eigenvalues --  -10.22561 -10.18999 -10.18590 -10.18584 -10.18433
 Alpha  occ. eigenvalues --  -10.18254 -10.18236 -10.17954 -10.17505 -10.17211
 Alpha  occ. eigenvalues --  -10.17107  -1.04686  -1.00633  -1.00089  -0.86832
 Alpha  occ. eigenvalues --   -0.83299  -0.77675  -0.75867  -0.75459  -0.69571
 Alpha  occ. eigenvalues --   -0.65297  -0.61902  -0.60731  -0.58778  -0.55373
 Alpha  occ. eigenvalues --   -0.51443  -0.48417  -0.48205  -0.46903  -0.46436
 Alpha  occ. eigenvalues --   -0.44724  -0.44179  -0.43226  -0.42809  -0.41285
 Alpha  occ. eigenvalues --   -0.40999  -0.40412  -0.38202  -0.38066  -0.36999
 Alpha  occ. eigenvalues --   -0.36881  -0.36398  -0.35187  -0.29092  -0.27828
 Alpha  occ. eigenvalues --   -0.26888  -0.26668  -0.25924  -0.24810  -0.24065
 Alpha  occ. eigenvalues --   -0.17236
 Alpha virt. eigenvalues --   -0.07094  -0.02374  -0.02083  -0.00295   0.00660
 Alpha virt. eigenvalues --    0.01104   0.01462   0.01907   0.02361   0.03568
 Alpha virt. eigenvalues --    0.03820   0.04231   0.04289   0.05236   0.05340

  Beta  occ. eigenvalues --  -19.11614 -19.07777 -19.07634 -10.26739 -10.23114
  Beta  occ. eigenvalues --  -10.22445 -10.18999 -10.18586 -10.18582 -10.18432
  Beta  occ. eigenvalues --  -10.18254 -10.18236 -10.17853 -10.17315 -10.17144
  Beta  occ. eigenvalues --  -10.17006  -1.04613  -0.99479  -0.98745  -0.86823
  Beta  occ. eigenvalues --   -0.82674  -0.77565  -0.75822  -0.75301  -0.68621
  Beta  occ. eigenvalues --   -0.65030  -0.61837  -0.60541  -0.58423  -0.55264
  Beta  occ. eigenvalues --   -0.51295  -0.48205  -0.47976  -0.46621  -0.46361
  Beta  occ. eigenvalues --   -0.44591  -0.44007  -0.43181  -0.42700  -0.40562
  Beta  occ. eigenvalues --   -0.40332  -0.39203  -0.37830  -0.36879  -0.36781
  Beta  occ. eigenvalues --   -0.36422  -0.35291  -0.34812  -0.27805  -0.26772
  Beta  occ. eigenvalues --   -0.26488  -0.25639  -0.25160  -0.24148  -0.23506
  Beta virt. eigenvalues --   -0.10071  -0.06648  -0.02148  -0.01256  -0.00263
  Beta virt. eigenvalues --    0.00683   0.01438   0.01791   0.02360   0.02408
  Beta virt. eigenvalues --    0.03648   0.04069   0.04326   0.04916   0.05264

 Mulliken charges and spin densities:
               1          2
     1  C   -1.049825   0.043616
     2  C    0.009049   0.095326
     3  C    0.087238   0.044989
     4  C   -0.512488   0.126778
     5  C    0.117054   0.089277
     6  C    1.740512   0.078366
     7  O   -0.438710   0.241124
     8  O   -0.493410   0.267896
     9  C    1.385925   0.003150
    10  C    0.536617  -0.010096
    11  C   -1.050629   0.011416
    12  C   -0.378707  -0.003676
    13  C   -0.472975   0.002094
    14  C   -0.305223   0.001943
    15  H    0.202903  -0.007013
    16  H    0.199083  -0.004308
    17  H    0.221633  -0.010951
    18  H    0.211981  -0.000483
    19  H    0.175223   0.002340
    20  H    0.207251  -0.000139
    21  H    0.199627   0.000093
    22  H    0.183764  -0.000029
    23  C   -1.489380   0.017664
    24  O   -0.286513   0.010622
 Sum of Mulliken charges =  -1.00000   1.00000

 Dipole moment (field-independent basis, Debye):
    X=              1.6836    Y=              0.0958    Z=             12.4446  Tot=             12.5583
 Quadrupole moment (field-independent basis, Debye-Ang):
   XX=           -103.9718   YY=           -121.1132   ZZ=           -124.6135
   XY=            -10.3236   XZ=              6.4868   YZ=              3.5128

  Exact polarizability: 334.325  61.560 255.301  -7.950  27.886 188.554
 Approx polarizability: 343.795  72.224 298.412 -17.209  34.433 225.817

                      1                      2                      3
                      A                      A                      A
 Frequencies --     29.9418                45.6476                73.8403
 Red. masses --      8.6399                 4.4643                 4.7324
 Frc consts  --      0.0046                 0.0055                 0.0152
 IR Inten    --      3.5438                 0.8399                 3.0146

                      4                      5                      6
                      A                      A                      A
 Frequencies --    113.2823               131.2116               181.9295
 Red. masses --      7.3971                 9.8478                 6.2860
 Frc consts  --      0.0559                 0.0999                 0.1226
 IR Inten    --      5.7499                26.2739                 3.0360

                      7                      8                      9
                      A                      A                      A
 Frequencies --    203.1109               256.5427               312.8923
 Red. masses --      6.0812                 6.4520                 7.2951
 Frc consts  --      0.1478                 0.2502                 0.4208
 IR Inten    --      5.5406                 6.3935                 2.0112

                     10                     11                     12
                      A                      A                      A
 Frequencies --    344.6219               410.0078               414.6051
 Red. masses --      6.4748                 4.7675                 3.3597
 Frc consts  --      0.4531                 0.4722                 0.3403
 IR Inten    --      1.3534                11.4150                 8.8642

                     13                     14                     15
                      A                      A                      A
 Frequencies --    423.8082               428.1475               480.6151
 Red. masses --      4.7972                 5.4668                11.1001
 Frc consts  --      0.5077                 0.5904                 1.5107
 IR Inten    --      1.8922                 4.4925                 0.7003

                     16                     17                     18
                      A                      A                      A
 Frequencies --    507.6714               551.4248               629.5559
 Red. masses --      4.1708                 3.1270                 5.8328
 Frc consts  --      0.6333                 0.5602                 1.3621
 IR Inten    --      4.3393                26.1118                 1.2846

                     19                     20                     21
                      A                      A                      A
 Frequencies --    631.1393               638.0979               694.7466
 Red. masses --      5.1830                 6.5456                 4.7681
 Frc consts  --      1.2164                 1.5703                 1.3560
 IR Inten    --      7.6490                20.2269                22.5140

                     22                     23                     24
                      A                      A                      A
 Frequencies --    705.4338               724.4321               759.2381
 Red. masses --      1.9341                 3.3536                 2.8357
 Frc consts  --      0.5671                 1.0369                 0.9631
 IR Inten    --     66.7479                77.5041                 9.2515

                     25                     26                     27
                      A                      A                      A
 Frequencies --    790.5270               826.9356               843.4577
 Red. masses --      2.7900                 2.4870                 3.8926
 Frc consts  --      1.0273                 1.0020                 1.6316
 IR Inten    --     28.5227                87.8792                65.2108

                     28                     29                     30
                      A                      A                      A
 Frequencies --    856.6742               860.5858               899.8448
 Red. masses --      4.2992                 1.2977                 1.6949
 Frc consts  --      1.8589                 0.5663                 0.8086
 IR Inten    --     68.5969                 0.8498                38.5991

                     31                     32                     33
                      A                      A                      A
 Frequencies --    953.1306               972.3539               976.3974
 Red. masses --      1.4604                 3.0780                 1.3267
 Frc consts  --      0.7817                 1.7146                 0.7452
 IR Inten    --      5.9863                96.6115                 6.9533

                     34                     35                     36
                      A                      A                      A
 Frequencies --    998.4911              1013.9344              1014.5432
 Red. masses --      1.3791                 2.8459                 1.7334
 Frc consts  --      0.8101                 1.7238                 1.0512
 IR Inten    --      2.1567                 3.0323                 0.1936

                     37                     38                     39
                      A                      A                      A
 Frequencies --   1043.6653              1080.7920              1100.6749
 Red. masses --      2.2116                 2.7585                 1.5833
 Frc consts  --      1.4193                 1.8985                 1.1301
 IR Inten    --      8.2578                26.7940                10.0632

                     40                     41                     42
                      A                      A                      A
 Frequencies --   1138.7693              1177.1907              1190.1517
 Red. masses --      1.6895                 1.1099                 1.1752
 Frc consts  --      1.2908                 0.9062                 0.9808
 IR Inten    --     57.2647                 1.2662                63.9264

                     43                     44                     45
                      A                      A                      A
 Frequencies --   1209.5531              1253.9546              1270.6692
 Red. masses --      2.1770                 1.6935                 5.2979
 Frc consts  --      1.8766                 1.5689                 5.0398
 IR Inten    --     62.1954                91.4003               239.6451

                     46                     47                     48
                      A                      A                      A
 Frequencies --   1330.8580              1346.5194              1350.1646
 Red. masses --      3.5592                 1.8202                 2.1315
 Frc consts  --      3.7143                 1.9445                 2.2893
 IR Inten    --     18.9827                 4.7505                26.5664

                     49                     50                     51
                      A                      A                      A
 Frequencies --   1428.5677              1463.8375              1473.1667
 Red. masses --      5.1034                 7.5565                 2.2418
 Frc consts  --      6.1364                 9.5402                 2.8664
 IR Inten    --    186.1048               207.5698                21.4448

                     52                     53                     54
                      A                      A                      A
 Frequencies --   1502.0337              1514.1331              1518.5205
 Red. masses --      4.9614                 3.3097                 3.2834
 Frc consts  --      6.5949                 4.4706                 4.4608
 IR Inten    --    399.5360               530.5612               503.4314

                     55                     56                     57
                      A                      A                      A
 Frequencies --   1611.0579              1629.7309              1639.3753
 Red. masses --      5.7176                 5.8320                 6.7826
 Frc consts  --      8.7435                 9.1264                10.7399
 IR Inten    --     67.9468                89.7587                 8.1255

                     58                     59                     60
                      A                      A                      A
 Frequencies --   1659.3069              3149.7654              3165.4918
 Red. masses --     10.6284                 1.0861                 1.0904
 Frc consts  --     17.2413                 6.3484                 6.4377
 IR Inten    --    435.1599                25.9875                27.2669

                     61                     62                     63
                      A                      A                      A
 Frequencies --   3166.0865              3169.0507              3174.9531
 Red. masses --      1.0860                 1.0946                 1.0888
 Frc consts  --      6.4137                 6.4770                 6.4663
 IR Inten    --      0.3680                25.1656                 9.6363

                     64                     65                     66
                      A                      A                      A
 Frequencies --   3184.0575              3192.0325              3195.4062
 Red. masses --      1.0922                 1.0934                 1.0969
 Frc consts  --      6.5239                 6.5638                 6.5989
 IR Inten    --     24.7425                28.2902                12.2992

 - Thermochemistry -
 -------------------
 Temperature   298.150 Kelvin.  Pressure   1.00000 Atm.
 Atom     1 has atomic number  6 and mass  12.00000

 Molecular mass:   212.04734 amu.
 Principal axes and moments of inertia in atomic units:
                           1         2         3
     Eigenvalues --  1507.080655701.069016207.43973
           X            0.96316  -0.26811  -0.02123
           Y            0.22337   0.84140  -0.49208
           Z            0.14979   0.46921   0.87029
 This molecule is an asymmetric top.
 Rotational symmetry number  1.
 Warning -- assumption of classical behavior for rotation
           may cause significant error
 Rotational temperatures (Kelvin)      0.05747     0.01519     0.01395
 Rotational constants (GHZ):           1.19751     0.31656     0.29074
 Zero-point vibrational energy     454750.6 (Joules/Mol)
                                  108.68799 (Kcal/Mol)
 Warning -- explicit consideration of  17 degrees of freedom as
           vibrations may cause significant error
 Vibrational temperatures:     43.08    65.68   106.24   162.99   188.78
          (Kelvin)            261.76   292.23   369.11   450.18   495.83
                              589.91   596.52   609.77   616.01   691.50
                              730.43   793.38   905.79   908.07   918.08
                              999.59  1014.96  1042.30  1092.37  1137.39
                             1189.78  1213.55  1232.56  1238.19  1294.68
                             1371.34  1399.00  1404.82  1436.61  1458.83
                             1459.70  1501.60  1555.02  1583.63  1638.44
                             1693.71  1712.36  1740.28  1804.16  1828.21
                             1914.81  1937.34  1942.59  2055.39  2106.14
                             2119.56  2161.09  2178.50  2184.81  2317.95
                             2344.82  2358.70  2387.37  4531.81  4554.44
                             4555.29  4559.56  4568.05  4581.15  4592.62
                             4597.48

 Zero-point correction=                           0.173205 (Hartree/Particle)
 Thermal correction to Energy=                    0.185870
 Thermal correction to Enthalpy=                  0.186814
 Thermal correction to Gibbs Free Energy=         0.131988
 Sum of electronic and zero-point Energies=           -726.027544
 Sum of electronic and thermal Energies=              -726.014880
 Sum of electronic and thermal Enthalpies=            -726.013936
 Sum of electronic and thermal Free Energies=         -726.068761

                     E (Thermal)             CV                S
                      KCal/Mol        Cal/Mol-Kelvin    Cal/Mol-Kelvin
 Total                  116.635             48.859            115.390
 Electronic               0.000              0.000              1.377
 Translational            0.889              2.981             41.958
 Rotational               0.889              2.981             32.345
 Vibrational            114.858             42.897             39.709
 Vibration     1          0.594              1.984              5.833
 Vibration     2          0.595              1.979              4.998
 Vibration     3          0.599              1.966              4.048
 Vibration     4          0.607              1.938              3.212
 Vibration     5          0.612              1.922              2.928
 Vibration     6          0.630              1.864              2.309
 Vibration     7          0.639              1.835              2.105
 Vibration     8          0.666              1.752              1.685
 Vibration     9          0.701              1.649              1.347
 Vibration    10          0.723              1.586              1.191
 Vibration    11          0.774              1.448              0.927
 Vibration    12          0.778              1.439              0.910
 Vibration    13          0.786              1.418              0.879
 Vibration    14          0.790              1.409              0.865
 Vibration    15          0.837              1.293              0.708
 Vibration    16          0.863              1.233              0.639
 Vibration    17          0.907              1.137              0.541

 Optimization completed.
    -- Stationary point found.
 Normal termination of Gaussian 16 at Sat Feb 10 13:09:14 2024.
