 Q-Chem 5.4, Q-Chem, Inc., Pleasanton, CA (2021)
 Q-Chem 5.4.0 for Intel X86 EM64T Linux

User input:
--------------------------------------------------------------
$molecule
0 1
C                  1.3505880000      4.2125280000      5.2280880000
C                  1.8316280000      4.0647430000      3.8300850000
C                  1.6453550000      2.9454210000      3.1139020000
C                  0.9817780000      1.7592570000      3.7390210000
C                  0.4061570000      1.9478340000      5.0946020000
C                  0.5317400000      3.0920030000      5.7852930000
O                  1.6623070000      5.1868750000      5.8854910000
O                  0.9428060000      0.6742420000      3.1938140000
H                  2.3632610000      4.9212260000      3.4311290000
C                 -0.1000180000      3.2018640000      7.1458710000
O                 -0.0880110000      2.3111200000      7.9599310000
O                 -0.7111250000      4.3783800000      7.3061970000
C                 -1.3524020000      4.5936360000      8.5812900000
H                 -1.7817210000      5.5903050000      8.5203820000
H                 -0.6161610000      4.5380290000      9.3834810000
H                 -2.1281030000      3.8451160000      8.7460250000
C                  2.0447260000      2.8529240000      1.6700670000
O                  3.3131550000      3.2525530000      1.4815160000
O                  1.2959490000      2.4997450000      0.7971510000
C                  3.7788110000      3.2380070000      0.1136050000
H                 -0.1175100000      1.0921720000      5.5065370000
H                  4.8140240000      3.5664840000      0.1597280000
H                  3.1822670000      3.9182970000     -0.4950860000
H                  3.7092580000      2.2297760000     -0.2950980000
$end
$rem
MAX_SCF_CYCLES=200
BASIS  =  6-311++G(d,p)
GUI  =  2
JOB_TYPE  =  SP
METHOD  =  B3LYP
SOLVENT_METHOD = PCM
$end
$pcm
theory = CPCM
$end
$solvent
dielectric 37.219
opticaldielectric 1.43
$end

--------------------------------------------------------------

             Standard Nuclear Orientation (Angstroms)
    I     Atom           X                Y                Z
 ----------------------------------------------------------------
    1      C       1.3505880000     4.2125280000     5.2280880000
    2      C       1.8316280000     4.0647430000     3.8300850000
    3      C       1.6453550000     2.9454210000     3.1139020000
    4      C       0.9817780000     1.7592570000     3.7390210000
    5      C       0.4061570000     1.9478340000     5.0946020000
    6      C       0.5317400000     3.0920030000     5.7852930000
    7      O       1.6623070000     5.1868750000     5.8854910000
    8      O       0.9428060000     0.6742420000     3.1938140000
    9      H       2.3632610000     4.9212260000     3.4311290000
   10      C      -0.1000180000     3.2018640000     7.1458710000
   11      O      -0.0880110000     2.3111200000     7.9599310000
   12      O      -0.7111250000     4.3783800000     7.3061970000
   13      C      -1.3524020000     4.5936360000     8.5812900000
   14      H      -1.7817210000     5.5903050000     8.5203820000
   15      H      -0.6161610000     4.5380290000     9.3834810000
   16      H      -2.1281030000     3.8451160000     8.7460250000
   17      C       2.0447260000     2.8529240000     1.6700670000
   18      O       3.3131550000     3.2525530000     1.4815160000
   19      O       1.2959490000     2.4997450000     0.7971510000
   20      C       3.7788110000     3.2380070000     0.1136050000
   21      H      -0.1175100000     1.0921720000     5.5065370000
   22      H       4.8140240000     3.5664840000     0.1597280000
   23      H       3.1822670000     3.9182970000    -0.4950860000
   24      H       3.7092580000     2.2297760000    -0.2950980000
 ----------------------------------------------------------------

    9    -837.4558747381      5.63e-06  Convergence criterion met
 Total energy in the final basis set =     -837.4558747381

                    Orbital Energies (a.u.)
 --------------------------------------------------------------

 Alpha MOs
 -- Occupied --
-19.1918 -19.1914 -19.1595 -19.1585 -19.1422 -19.1403 -10.3343 -10.3338
-10.3076 -10.3074 -10.2407 -10.2407 -10.2320 -10.2316 -10.2282 -10.2280
 -1.1360  -1.1353  -1.0921  -1.0899  -1.0516  -1.0504  -0.8886  -0.8341
 -0.7602  -0.7503  -0.7227  -0.6764  -0.6418  -0.6006  -0.5807  -0.5552
 -0.5498  -0.5433  -0.5064  -0.5050  -0.5006  -0.4989  -0.4885  -0.4797
 -0.4670  -0.4655  -0.4434  -0.4389  -0.4370  -0.4290  -0.4153  -0.4116
 -0.3805  -0.3795  -0.3367  -0.3325  -0.3321  -0.3290  -0.3147  -0.3099
 -0.3076  -0.2886

          Ground-State Mulliken Net Atomic Charges

     Atom                 Charge (a.u.)
  ----------------------------------------
      1 C                    -0.942527
      2 C                    -0.030770
      3 C                     1.098941
      4 C                    -0.985640
      5 C                    -0.046029
      6 C                     1.163775
      7 O                    -0.233583
      8 O                    -0.242434
      9 H                     0.274847
     10 C                    -0.137561
     11 O                    -0.285188
     12 O                    -0.059978
     13 C                    -0.285352
     14 H                     0.188091
     15 H                     0.206846
     16 H                     0.193400
     17 C                    -0.111672
     18 O                    -0.054764
     19 O                    -0.276516
     20 C                    -0.291058
     21 H                     0.270432
     22 H                     0.189888
     23 H                     0.202266
     24 H                     0.194588
  ----------------------------------------
  Sum of atomic charges =     0.000000

                    Cartesian Multipole Moments
 -----------------------------------------------------------------
    Charge (ESU x 10^10)
                 0.0000
    Dipole Moment (Debye)
         X       0.7380      Y       3.4360      Z      -0.3171
       Tot       3.5287
    Quadrupole Moments (Debye-Ang)
        XX     -76.0211     XY       1.4104     YY     -80.4715
        XZ     -18.8996     YZ      10.2883     ZZ     -90.3670

 Total job time:  75.38s(wall), 256.96s(cpu)
        *  Thank you very much for using Q-Chem.  Have a nice day.  *
