 Q-Chem 5.4, Q-Chem, Inc., Pleasanton, CA (2021)
 Q-Chem 5.4.0 for Intel X86 EM64T Linux

User input:
--------------------------------------------------------------
$molecule
0 1
C                  4.1848950000      1.5888670000      0.2560090000
C                  3.2239290000      0.5106690000      0.6572640000
O                  2.8397170000      0.2564260000      1.7626580000
O                  2.8231790000     -0.2036950000     -0.4567920000
C                  1.7843850000     -1.1070390000     -0.3283390000
C                  2.1230560000     -2.4532910000     -0.4046070000
C                  1.1340000000     -3.4295310000     -0.3555400000
C                 -0.1982760000     -3.0573990000     -0.2303710000
C                 -0.5462040000     -1.7082720000     -0.1612180000
C                 -2.0014990000     -1.3787060000     -0.0423000000
O                 -2.8413980000     -2.2617520000      0.0161260000
C                 -2.3849260000      0.0565460000     -0.0048490000
C                 -3.7368490000      0.4014120000      0.0949260000
C                 -4.1137920000      1.7378820000      0.1278620000
C                 -3.1419130000      2.7407740000      0.0623370000
C                 -1.7971480000      2.4052780000     -0.0352960000
C                 -1.4079560000      1.0620740000     -0.0706000000
C                  0.0491830000      0.7418120000     -0.1673670000
O                  0.8678580000      1.6461950000     -0.2138690000
C                  0.4421380000     -0.6987450000     -0.2103660000
H                  4.9214550000      1.2089880000     -0.4535940000
H                  4.6742670000      1.9889310000      1.1416030000
H                  3.6150050000      2.3788330000     -0.2393440000
H                  3.1696420000     -2.7148030000     -0.5014460000
H                  1.4061230000     -4.4770400000     -0.4118650000
H                 -0.9898590000     -3.7942010000     -0.1872290000
H                 -4.4703060000     -0.3936670000      0.1449850000
H                 -5.1620990000      2.0028150000      0.2052750000
H                 -3.4371140000      3.7835450000      0.0893190000
H                 -1.0294940000      3.1670920000     -0.0833710000
$end
$rem
MAX_SCF_CYCLES=200
BASIS  =  6-311++G(d,p)
GUI  =  2
JOB_TYPE  =  SP
METHOD  =  B3LYP
SOLVENT_METHOD = COSMO
$end
$solvent
dielectric 37.219
opticaldielectric 1.43
$end

--------------------------------------------------------------

             Standard Nuclear Orientation (Angstroms)
    I     Atom           X                Y                Z
 ----------------------------------------------------------------
    1      C       3.8553353150    -2.4479650220     0.1017923559
    2      C       3.1156912691    -1.2587740574    -0.4327389250
    3      O       2.8129198276    -1.0449840511    -1.5715003341
    4      O       2.8212956267    -0.3835979934     0.5965498202
    5      C       1.9663842121     0.6736213215     0.3454774737
    6      C       2.5403869122     1.9395951666     0.3182667130
    7      C       1.7454481702     3.0668363053     0.1419610382
    8      C       0.3716469957     2.9268490248    -0.0069776686
    9      C      -0.2121636469     1.6603662036     0.0271703901
   10      C      -1.6994001172     1.5844843376    -0.1245148101
   11      O      -2.3642616160     2.5930937141    -0.2956302059
   12      C      -2.3344956690     0.2428886530    -0.0528084330
   13      C      -3.7233606165     0.1354743517    -0.1796931521
   14      C      -4.3343679155    -1.1100734594    -0.1118433397
   15      C      -3.5615623261    -2.2588386218     0.0824368771
   16      C      -2.1813703299    -2.1595348455     0.2077025443
   17      C      -1.5571663037    -0.9093407769     0.1421442082
   18      C      -0.0692132220    -0.8449736893     0.2726745532
   19      O       0.5712426017    -1.8718380217     0.4328799935
   20      C       0.5760620483     0.5006484467     0.2064332592
   21      H       4.6294310672    -2.1400428674     0.8062955986
   22      H       4.2875886456    -3.0095662298    -0.7237826152
   23      H       3.1393660505    -3.0744551565     0.6394666175
   24      H       3.6140690019     2.0192297276     0.4364770357
   25      H       2.2006161275     4.0500726839     0.1181515392
   26      H      -0.2725112477     3.7850457140    -0.1480473867
   27      H      -4.2996661334     1.0398075509    -0.3302557858
   28      H      -5.4108710380    -1.1909365563    -0.2104943416
   29      H      -4.0393381387    -3.2305943545     0.1340516638
   30      H      -1.5653845087    -3.0375297270     0.3548449786
 ----------------------------------------------------------------

    9    -916.8924708057      4.90e-06  Convergence criterion met
 Total energy in the final basis set =     -916.8924708057
    5    -916.9113736637      3.75e-06  Convergence criterion met
 Total energy in the final basis set =     -916.9113736637

                    Orbital Energies (a.u.)
 --------------------------------------------------------------

 Alpha MOs
 -- Occupied --
-19.1893 -19.1366 -19.1344 -19.1341 -10.3268 -10.2900 -10.2867 -10.2686
-10.2201 -10.2155 -10.2095 -10.2084 -10.2030 -10.2017 -10.1986 -10.1973
-10.1971 -10.1965 -10.1963 -10.1802  -1.1341  -1.0712  -1.0694  -1.0543
 -0.8980  -0.8845  -0.8167  -0.7968  -0.7784  -0.7745  -0.7530  -0.6959
 -0.6746  -0.6543  -0.6427  -0.6040  -0.5729  -0.5661  -0.5522  -0.5146
 -0.5078  -0.5049  -0.5020  -0.4883  -0.4852  -0.4746  -0.4612  -0.4580
 -0.4506  -0.4481  -0.4420  -0.4291  -0.4217  -0.4144  -0.4050  -0.3935
 -0.3907  -0.3866  -0.3788  -0.3709  -0.3679  -0.3440  -0.3079  -0.2940
 -0.2918  -0.2792  -0.2790  -0.2779  -0.2734

          Ground-State Mulliken Net Atomic Charges

     Atom                 Charge (a.u.)
  ----------------------------------------
      1 C                    -0.507509
      2 C                     0.065457
      3 O                    -0.285599
      4 O                    -0.012864
      5 C                     0.082416
      6 C                     0.130052
      7 C                    -0.462151
      8 C                     0.064334
      9 C                     0.524844
     10 C                    -0.594289
     11 O                    -0.287455
     12 C                    -0.137653
     13 C                     0.053074
     14 C                    -0.481806
     15 C                    -0.402017
     16 C                     0.170365
     17 C                     0.034391
     18 C                    -0.347814
     19 O                    -0.267155
     20 C                     0.532659
     21 H                     0.196217
     22 H                     0.184002
     23 H                     0.207636
     24 H                     0.242766
     25 H                     0.244132
     26 H                     0.202519
     27 H                     0.197774
     28 H                     0.226512
     29 H                     0.230367
     30 H                     0.196795
  ----------------------------------------
  Sum of atomic charges =     0.000000

                    Cartesian Multipole Moments
 -----------------------------------------------------------------
    Charge (ESU x 10^10)
                -0.0000
    Dipole Moment (Debye)
         X       0.1492      Y      -0.6206      Z       2.3727
       Tot       2.4570
    Quadrupole Moments (Debye-Ang)
        XX     -89.2532     XY      16.9475     YY    -104.1332
        XZ       6.0015     YZ      -0.5155     ZZ    -123.0229

 Total job time:  78.22s(wall), 583.62s(cpu)
        *  Thank you very much for using Q-Chem.  Have a nice day.  *
