 Q-Chem 5.4, Q-Chem, Inc., Pleasanton, CA (2021)
 Q-Chem 5.4.0 for Intel X86 EM64T Linux

User input:
--------------------------------------------------------------
$molecule
0 1
C                 -1.8186380000      2.8111510000     -0.7528290000
C                 -2.9172350000      1.9849110000     -0.5315540000
C                 -2.7206600000      0.6533920000     -0.1688140000
C                 -0.5229380000      2.3140590000     -0.6136330000
C                 -0.3240120000      0.9673870000     -0.2467900000
C                 -1.4313810000      0.1437100000     -0.0261820000
C                  0.6394960000      3.2176600000     -0.8556580000
C                  2.0667950000      2.6137600000     -0.6872010000
C                  2.1512460000      1.2145550000     -0.3063700000
C                  1.0467670000      0.4554920000     -0.1032890000
O                  0.5088560000      4.3772190000     -1.1713050000
O                  3.0395800000      3.3174050000     -0.8755600000
H                 -1.9427450000      3.8495300000     -1.0355680000
H                 -3.9216950000      2.3768090000     -0.6412470000
H                 -3.5730450000      0.0065600000      0.0044640000
H                 -1.2792310000     -0.8896000000      0.2553490000
H                  3.1482960000      0.8002740000     -0.1906140000
O                  1.1060900000     -0.8483430000      0.2516090000
H                  2.0264060000     -1.1275640000      0.3306320000
$end
$rem
MAX_SCF_CYCLES=200
BASIS  =  6-311++G(d,p)
GUI  =  2
JOB_TYPE  =  SP
METHOD  =  B3LYP
SOLVENT_METHOD = COSMO
$end
$solvent
dielectric 37.219
opticaldielectric 1.43
$end

--------------------------------------------------------------

             Standard Nuclear Orientation (Angstroms)
    I     Atom           X                Y                Z
 ----------------------------------------------------------------
    1      C      -1.4274177885    -1.6823810893     0.0000244840
    2      C      -2.7518000499    -1.2527741100     0.0000510579
    3      C      -3.0374502022     0.1116191163     0.0000402532
    4      C      -0.3852933403    -0.7554015277     0.0000296569
    5      C      -0.6740849787     0.6245514443     0.0000432577
    6      C      -2.0058109248     1.0486785430     0.0000146401
    7      C       1.0264067192    -1.2385439506    -0.0000851492
    8      C       2.1544955775    -0.1625927914     0.0001072400
    9      C       1.7395535404     1.2294423943     0.0000671991
   10      C       0.4333672160     1.5916159353     0.0000033761
   11      O       1.3132641886    -2.4128478693    -0.0001926126
   12      O       3.3173291589    -0.5157558093     0.0001148027
   13      H      -1.1772246781    -2.7364106159    -0.0000170152
   14      H      -3.5573709623    -1.9777651398     0.0000530286
   15      H      -4.0670574407     0.4505675255     0.0000355348
   16      H      -2.2278649303     2.1073715578    -0.0000246563
   17      H       2.5302530276     1.9737079531     0.0000665204
   18      O       0.0284941821     2.8821721441    -0.0001154513
   19      H       0.7947701348     3.4686972105    -0.0003434188
 ----------------------------------------------------------------

    9    -610.5013124983      7.59e-06  Convergence criterion met
 Total energy in the final basis set =     -610.5013124983
    5    -610.5254933417      6.51e-06  Convergence criterion met
 Total energy in the final basis set =     -610.5254933417

                    Orbital Energies (a.u.)
 --------------------------------------------------------------

 Alpha MOs
 -- Occupied --
-19.1896 -19.1478 -19.1328 -10.2883 -10.2864 -10.2794 -10.2188 -10.2100
-10.2006 -10.1997 -10.1991 -10.1963 -10.1890  -1.1035  -1.0883  -1.0586
 -0.8959  -0.8330  -0.7852  -0.7673  -0.7103  -0.6581  -0.6283  -0.6217
 -0.5622  -0.5531  -0.5312  -0.4865  -0.4821  -0.4669  -0.4653  -0.4607
 -0.4551  -0.4356  -0.4316  -0.4134  -0.4045  -0.3813  -0.3797  -0.3712
 -0.3178  -0.3038  -0.2825  -0.2669  -0.2559

          Ground-State Mulliken Net Atomic Charges

     Atom                 Charge (a.u.)
  ----------------------------------------
      1 C                     0.358682
      2 C                    -0.376986
      3 C                    -0.409641
      4 C                    -0.151089
      5 C                    -0.317272
      6 C                     0.366158
      7 C                    -0.266466
      8 C                    -0.102958
      9 C                     0.260423
     10 C                     0.086311
     11 O                    -0.294901
     12 O                    -0.371216
     13 H                     0.195845
     14 H                     0.229748
     15 H                     0.228550
     16 H                     0.214558
     17 H                     0.223241
     18 O                    -0.202649
     19 H                     0.329664
  ----------------------------------------
  Sum of atomic charges =     0.000000

                    Cartesian Multipole Moments
 -----------------------------------------------------------------
    Charge (ESU x 10^10)
                 0.0000
    Dipole Moment (Debye)
         X      -7.0335      Y       6.2560      Z      -0.0010
       Tot       9.4131
    Quadrupole Moments (Debye-Ang)
        XX     -81.1003     XY      17.6478     YY     -67.4510
        XZ       0.0000     YZ      -0.0038     ZZ     -75.6295

 Total job time:  25.34s(wall), 185.66s(cpu)
        *  Thank you very much for using Q-Chem.  Have a nice day.  *
