 Q-Chem 5.4, Q-Chem, Inc., Pleasanton, CA (2021)
 Q-Chem 5.4.0 for Intel X86 EM64T Linux

User input:
--------------------------------------------------------------
$molecule
0 1
C                  5.0607930000     -2.4805110000      0.1160610000
C                  5.7806010000     -1.5361890000     -0.6059700000
C                  5.1111740000     -0.5301070000     -1.3085920000
C                  3.6636330000     -2.4293820000      0.1417960000
C                  2.9896500000     -1.4168340000     -0.5656040000
C                  3.7229910000     -0.4705960000     -1.2886000000
C                  2.9181490000     -3.4570340000      0.9231290000
C                  1.4252850000     -3.3740820000      0.9191750000
C                  0.7507180000     -2.3641570000      0.2128980000
C                  1.5021000000     -1.3278070000     -0.5617460000
C                  0.6977190000     -4.3292690000      1.6337110000
C                 -0.6466180000     -2.3189780000      0.2240290000
C                 -1.3730410000     -3.2647030000      0.9351850000
O                  3.4966760000     -4.3309100000      1.5451100000
O                  0.9125760000     -0.4477980000     -1.1652620000
H                  5.5592800000     -3.2682190000      0.6671830000
H                 -2.4556640000     -3.2520150000      0.9377180000
H                  3.1845550000      0.3003100000     -1.8257160000
H                  1.2257660000     -5.1152900000      2.1585300000
H                 -1.1451230000     -1.5375060000     -0.3355700000
C                 -0.6872830000     -4.2556000000      1.6397780000
H                  5.6752370000      0.2051020000     -1.8710080000
H                  6.8635300000     -1.5806320000     -0.6236970000
S                 -1.6305330000     -5.4813960000      2.5694750000
O                 -0.8160870000     -6.6883810000      2.6555080000
O                 -2.9880360000     -5.4818620000      2.0319870000
N                 -1.7088790000     -4.8060990000      4.1159200000
H                 -1.2136700000     -5.3849200000      4.7866100000
H                 -2.6738570000     -4.6469860000      4.3867820000
$end
$rem
MAX_SCF_CYCLES=200
BASIS  =  6-311++G(d,p)
GUI  =  2
JOB_TYPE  =  SP
METHOD  =  B3LYP
SOLVENT_METHOD = PCM
$end
$pcm
theory = CPCM
$end
$solvent
dielectric 37.219
opticaldielectric 1.43
$end

--------------------------------------------------------------

             Standard Nuclear Orientation (Angstroms)
    I     Atom           X                Y                Z
 ----------------------------------------------------------------
    1      C       5.0607930000    -2.4805110000     0.1160610000
    2      C       5.7806010000    -1.5361890000    -0.6059700000
    3      C       5.1111740000    -0.5301070000    -1.3085920000
    4      C       3.6636330000    -2.4293820000     0.1417960000
    5      C       2.9896500000    -1.4168340000    -0.5656040000
    6      C       3.7229910000    -0.4705960000    -1.2886000000
    7      C       2.9181490000    -3.4570340000     0.9231290000
    8      C       1.4252850000    -3.3740820000     0.9191750000
    9      C       0.7507180000    -2.3641570000     0.2128980000
   10      C       1.5021000000    -1.3278070000    -0.5617460000
   11      C       0.6977190000    -4.3292690000     1.6337110000
   12      C      -0.6466180000    -2.3189780000     0.2240290000
   13      C      -1.3730410000    -3.2647030000     0.9351850000
   14      O       3.4966760000    -4.3309100000     1.5451100000
   15      O       0.9125760000    -0.4477980000    -1.1652620000
   16      H       5.5592800000    -3.2682190000     0.6671830000
   17      H      -2.4556640000    -3.2520150000     0.9377180000
   18      H       3.1845550000     0.3003100000    -1.8257160000
   19      H       1.2257660000    -5.1152900000     2.1585300000
   20      H      -1.1451230000    -1.5375060000    -0.3355700000
   21      C      -0.6872830000    -4.2556000000     1.6397780000
   22      H       5.6752370000     0.2051020000    -1.8710080000
   23      H       6.8635300000    -1.5806320000    -0.6236970000
   24      S      -1.6305330000    -5.4813960000     2.5694750000
   25      O      -0.8160870000    -6.6883810000     2.6555080000
   26      O      -2.9880360000    -5.4818620000     2.0319870000
   27      N      -1.7088790000    -4.8060990000     4.1159200000
   28      H      -1.2136700000    -5.3849200000     4.7866100000
   29      H      -2.6738570000    -4.6469860000     4.3867820000
 ----------------------------------------------------------------

    9   -1292.9926155448      5.56e-06  Convergence criterion met
 Total energy in the final basis set =    -1292.9926155448

                    Orbital Energies (a.u.)
 --------------------------------------------------------------

 Alpha MOs
 -- Occupied --
-89.0893 -19.1430 -19.1426 -19.1386 -19.1382 -14.3498 -10.2904 -10.2903
-10.2391 -10.2219 -10.2214 -10.2173 -10.2166 -10.2124 -10.2119 -10.2094
-10.1997 -10.1995 -10.1991 -10.1988  -8.1508  -6.1136  -6.1134  -6.1116
 -1.1473  -1.0745  -1.0727  -1.0402  -0.9208  -0.9075  -0.8895  -0.8274
 -0.7967  -0.7828  -0.7810  -0.7136  -0.6911  -0.6663  -0.6392  -0.6254
 -0.5942  -0.5719  -0.5681  -0.5402  -0.5345  -0.5242  -0.5104  -0.4990
 -0.4939  -0.4725  -0.4675  -0.4658  -0.4625  -0.4581  -0.4522  -0.4493
 -0.4277  -0.4266  -0.4051  -0.3927  -0.3837  -0.3828  -0.3779  -0.3705
 -0.3535  -0.3417  -0.3388  -0.3224  -0.2960  -0.2954  -0.2901  -0.2827
 -0.2820  -0.2809

          Ground-State Mulliken Net Atomic Charges

     Atom                 Charge (a.u.)
  ----------------------------------------
      1 C                     0.088525
      2 C                    -0.406703
      3 C                    -0.475165
      4 C                     0.377668
      5 C                     0.264704
      6 C                     0.145568
      7 C                    -0.719053
      8 C                     0.459513
      9 C                     0.554091
     10 C                    -0.476472
     11 C                    -0.127597
     12 C                     0.082603
     13 C                    -0.401532
     14 O                    -0.265646
     15 O                    -0.266398
     16 H                     0.196875
     17 H                     0.288141
     18 H                     0.200125
     19 H                     0.252279
     20 H                     0.207581
     21 C                    -0.625351
     22 H                     0.226308
     23 H                     0.228104
     24 S                     0.508370
     25 O                    -0.285203
     26 O                    -0.288934
     27 N                    -0.448562
     28 H                     0.351569
     29 H                     0.354580
  ----------------------------------------
  Sum of atomic charges =    -0.000010

                    Cartesian Multipole Moments
 -----------------------------------------------------------------
    Charge (ESU x 10^10)
                -0.0001
    Dipole Moment (Debye)
         X       2.5815      Y       4.4958      Z       1.3982
       Tot       5.3695
    Quadrupole Moments (Debye-Ang)
        XX    -100.4715     XY       0.5841     YY    -170.3957
        XZ     -16.4268     YZ      -2.7062     ZZ    -104.3167

 Total job time:  88.08s(wall), 463.09s(cpu)
        *  Thank you very much for using Q-Chem.  Have a nice day.  *
