 Gaussian 16, Revision A.03,
 Gaussian 16:  ES64L-G16RevA.03 25-Dec-2016

 ----------------------------------------------------------------
 #P UB3LYP/6-311++G(d,p) SCRF=(PCM,Solvent=n,n-DiMethylFormamide)
 ----------------------------------------------------------------

 ------------------
 Quinone PCM in DMF
 ------------------
 Symbolic Z-matrix:
 Charge =  0 Multiplicity = 1

                         Standard orientation:
 ---------------------------------------------------------------------
 Center     Atomic      Atomic             Coordinates (Angstroms)
 Number     Number       Type             X           Y           Z
 ---------------------------------------------------------------------
      1          6           0        3.685165   -1.757967    0.001047
      2          6           0        5.008464   -1.334304    0.025237
      3          6           0        5.308174    0.030861    0.047832
      4          6           0        2.647571   -0.820567   -0.002250
      5          6           0        2.949125    0.553652    0.020271
      6          6           0        4.283994    0.970033    0.045382
      7          6           0        1.237866   -1.304534   -0.030606
      8          6           0        0.156742   -0.271780   -0.042044
      9          6           0        0.456059    1.100718   -0.020237
     10          6           0        1.871788    1.583259    0.018929
     11          6           0       -1.174739   -0.693780   -0.079068
     12          6           0       -0.578531    2.040928   -0.038758
     13          6           0       -1.902947    1.625479   -0.072710
     14          8           0        0.970413   -2.493472   -0.041044
     15          8           0        2.126286    2.775152    0.047338
     16          1           0        3.430770   -2.810427   -0.016845
     17          1           0       -2.713236    2.342837   -0.105391
     18          1           0        4.493909    2.032266    0.062704
     19          1           0       -1.394945   -1.753149   -0.115717
     20          1           0       -0.323733    3.093250   -0.031381
     21          6           0       -2.183508    0.258090   -0.083921
     22          1           0        6.341304    0.358429    0.066591
     23          1           0        5.809330   -2.064808    0.026651
     24         16           0       -3.904763   -0.282732   -0.121678
     25          8           0       -3.937308   -1.598339   -0.750689
     26          8           0       -4.701574    0.842124   -0.602822
     27          7           0       -4.273209   -0.488748    1.514006
     28          1           0       -4.474824   -1.462446    1.717364
     29          1           0       -5.033773    0.124737    1.787949
 ---------------------------------------------------------------------

 SCF Done:  E(UB3LYP) =  -1292.98480864     A.U. after   16 cycles

 The electronic state is 1-A.
 Alpha  occ. eigenvalues --  -89.09181 -19.14486 -19.14450 -19.14001 -19.13960
 Alpha  occ. eigenvalues --  -14.35624 -10.29185 -10.29183 -10.24200 -10.22459
 Alpha  occ. eigenvalues --  -10.22406 -10.22047 -10.22009 -10.21497 -10.21446
 Alpha  occ. eigenvalues --  -10.21271 -10.20314 -10.20276 -10.20233 -10.20219
 Alpha  occ. eigenvalues --   -8.15327  -6.11610  -6.11588  -6.11410  -1.14951
 Alpha  occ. eigenvalues --   -1.07569  -1.07392  -1.04194  -0.92662  -0.91050
 Alpha  occ. eigenvalues --   -0.89235  -0.83026  -0.79968  -0.78573  -0.78380
 Alpha  occ. eigenvalues --   -0.71655  -0.69394  -0.66938  -0.64233  -0.62868
 Alpha  occ. eigenvalues --   -0.59703  -0.57521  -0.57117  -0.54713  -0.53760
 Alpha  occ. eigenvalues --   -0.52634  -0.51286  -0.50214  -0.49706  -0.47435
 Alpha  occ. eigenvalues --   -0.46978  -0.46795  -0.46452  -0.46037  -0.45555
 Alpha  occ. eigenvalues --   -0.45186  -0.43067  -0.42791  -0.40787  -0.39620
 Alpha  occ. eigenvalues --   -0.38707  -0.38504  -0.38014  -0.37379  -0.35495
 Alpha  occ. eigenvalues --   -0.34429  -0.34036  -0.32585  -0.29852  -0.29667
 Alpha  occ. eigenvalues --   -0.29309  -0.28485  -0.28407  -0.28337
 Alpha virt. eigenvalues --   -0.12812  -0.08720  -0.05424  -0.03808  -0.01426
 Alpha virt. eigenvalues --   -0.00366   0.00787   0.01064   0.01364   0.01926
 Alpha virt. eigenvalues --    0.02576   0.02926   0.03293   0.03710   0.04039

  Beta  occ. eigenvalues --  -89.09181 -19.14486 -19.14450 -19.14001 -19.13960
  Beta  occ. eigenvalues --  -14.35624 -10.29185 -10.29183 -10.24200 -10.22459
  Beta  occ. eigenvalues --  -10.22406 -10.22047 -10.22009 -10.21497 -10.21446
  Beta  occ. eigenvalues --  -10.21271 -10.20314 -10.20276 -10.20233 -10.20219
  Beta  occ. eigenvalues --   -8.15327  -6.11610  -6.11588  -6.11410  -1.14951
  Beta  occ. eigenvalues --   -1.07569  -1.07392  -1.04194  -0.92662  -0.91050
  Beta  occ. eigenvalues --   -0.89235  -0.83026  -0.79968  -0.78573  -0.78380
  Beta  occ. eigenvalues --   -0.71655  -0.69394  -0.66938  -0.64233  -0.62868
  Beta  occ. eigenvalues --   -0.59703  -0.57521  -0.57117  -0.54713  -0.53760
  Beta  occ. eigenvalues --   -0.52634  -0.51286  -0.50214  -0.49706  -0.47435
  Beta  occ. eigenvalues --   -0.46978  -0.46795  -0.46452  -0.46037  -0.45555
  Beta  occ. eigenvalues --   -0.45186  -0.43067  -0.42791  -0.40787  -0.39620
  Beta  occ. eigenvalues --   -0.38707  -0.38504  -0.38014  -0.37379  -0.35495
  Beta  occ. eigenvalues --   -0.34429  -0.34036  -0.32585  -0.29852  -0.29667
  Beta  occ. eigenvalues --   -0.29309  -0.28485  -0.28407  -0.28337
  Beta virt. eigenvalues --   -0.12812  -0.08720  -0.05424  -0.03808  -0.01426
  Beta virt. eigenvalues --   -0.00366   0.00787   0.01064   0.01364   0.01926
  Beta virt. eigenvalues --    0.02576   0.02926   0.03293   0.03710   0.04039

 Mulliken charges and spin densities:
               1          2
     1  C    0.093107  -0.000000
     2  C   -0.388571   0.000000
     3  C   -0.448632   0.000000
     4  C    0.390526  -0.000000
     5  C    0.269337  -0.000000
     6  C    0.156607   0.000000
     7  C   -0.754756   0.000000
     8  C    0.429082  -0.000000
     9  C    0.515005   0.000000
    10  C   -0.528272  -0.000000
    11  C   -0.117091   0.000000
    12  C    0.086158  -0.000000
    13  C   -0.408387  -0.000000
    14  O   -0.250453  -0.000000
    15  O   -0.250980  -0.000000
    16  H    0.185799   0.000000
    17  H    0.269484   0.000000
    18  H    0.188801  -0.000000
    19  H    0.238395   0.000000
    20  H    0.196422   0.000000
    21  C   -0.515222  -0.000000
    22  H    0.210611   0.000000
    23  H    0.212285  -0.000000
    24  S    0.495840   0.000000
    25  O   -0.264543   0.000000
    26  O   -0.269662  -0.000000
    27  N   -0.416644   0.000000
    28  H    0.336226  -0.000000
    29  H    0.339528  -0.000000
 Sum of Mulliken charges =  -0.00000  -0.00000

 Dipole moment (field-independent basis, Debye):
    X=              3.6270    Y=              0.4725    Z=              3.7634  Tot=              5.2480
 Quadrupole moment (field-independent basis, Debye-Ang):
   XX=            -99.9890   YY=           -132.9401   ZZ=           -122.5033
   XY=             -8.0603   XZ=            -19.9441   YZ=             -3.6102

 Normal termination of Gaussian 16 at Tue Jan 16 05:23:23 2024.
