 Gaussian 16, Revision A.03,
 Gaussian 16:  ES64L-G16RevA.03 25-Dec-2016

 ----------------------------------------------------------------------
 #P UB3LYP/6-311++G(d,p) nosym opt freq SCRF=(PCM,Solvent=n,n-DiMethylF
 ormamide)
 ----------------------------------------------------------------------

 --------
 Oxidized
 --------
 Symbolic Z-matrix:
 Charge =  0 Multiplicity = 1

 SCF Done:  E(UB3LYP) =  -801.345447604     A.U. after   15 cycles
 SCF Done:  E(UB3LYP) =  -801.345606686     A.U. after   12 cycles
 SCF Done:  E(UB3LYP) =  -801.345631938     A.U. after   12 cycles
 SCF Done:  E(UB3LYP) =  -801.345639374     A.U. after   10 cycles
 SCF Done:  E(UB3LYP) =  -801.345639742     A.U. after    8 cycles
 Optimization completed.
    -- Stationary point found.
 Normal termination of Gaussian 16 at Sun Feb 11 15:24:17 2024.

 ----------------------------------------------------------------------
 #P Geom=AllCheck Guess=TCheck SCRF=Check GenChk UB3LYP/6-311++G(d,p) F
 req
 ----------------------------------------------------------------------

 Structure from the checkpoint file:  "336.chk"
 --------
 Oxidized
 --------
 Charge =  0 Multiplicity = 1

                          Input orientation:
 ---------------------------------------------------------------------
 Center     Atomic      Atomic             Coordinates (Angstroms)
 Number     Number       Type             X           Y           Z
 ---------------------------------------------------------------------
      1          8           0        0.143433    0.411368    2.644862
      2          6           0        0.083159    0.219344    1.415241
      3          6           0       -1.188662    0.112550    0.716605
      4          6           0       -2.427654    0.221378    1.400924
      5          6           0       -3.616509    0.112830    0.687411
      6          6           0       -3.593715   -0.101173   -0.690897
      7          6           0       -2.396241   -0.211833   -1.388571
      8          6           0       -1.203036   -0.103266   -0.673202
      9          8           0       -0.057506   -0.219619   -1.407610
     10          6           0        1.161587   -0.125822   -0.796511
     11          6           0        2.284403   -0.255119   -1.615702
     12          6           0        3.544013   -0.167661   -1.043905
     13          6           0        3.694438    0.047462    0.335687
     14          6           0        2.574932    0.174035    1.137528
     15          6           0        1.284359    0.089280    0.584286
     16          8           0       -2.466637    0.429043    2.736410
     17          1           0       -4.558829    0.196514    1.213867
     18          1           0       -4.522330   -0.184960   -1.243095
     19          8           0       -2.412665   -0.421471   -2.739983
     20          1           0        2.151723   -0.420719   -2.677424
     21          1           0        4.420343   -0.267220   -1.673385
     22          1           0        4.685234    0.113521    0.767788
     23          1           0        2.664413    0.340260    2.203679
     24          1           0       -1.530359    0.475115    3.046189
     25          1           0       -1.505020   -0.470993   -3.068367
 ---------------------------------------------------------------------

 SCF Done:  E(UB3LYP) =  -801.345639742     A.U. after    1 cycles

 Alpha  occ. eigenvalues --  -19.21751 -19.16896 -19.15729 -19.13015 -10.28654
 Alpha  occ. eigenvalues --  -10.27501 -10.27208 -10.25997 -10.25233 -10.20971
 Alpha  occ. eigenvalues --  -10.20933 -10.20310 -10.20097 -10.20015 -10.19859
 Alpha  occ. eigenvalues --  -10.19306 -10.18807  -1.14059  -1.08186  -1.07787
 Alpha  occ. eigenvalues --   -1.05226  -0.89113  -0.87963  -0.81016  -0.79678
 Alpha  occ. eigenvalues --   -0.77574  -0.75213  -0.68958  -0.68145  -0.63248
 Alpha  occ. eigenvalues --   -0.62757  -0.59299  -0.58464  -0.57173  -0.55340
 Alpha  occ. eigenvalues --   -0.51246  -0.50681  -0.49776  -0.49774  -0.46616
 Alpha  occ. eigenvalues --   -0.46346  -0.45567  -0.43860  -0.43672  -0.43054
 Alpha  occ. eigenvalues --   -0.42842  -0.41919  -0.40154  -0.39575  -0.38739
 Alpha  occ. eigenvalues --   -0.38153  -0.37762  -0.36729  -0.32881  -0.28783
 Alpha  occ. eigenvalues --   -0.28749  -0.28287  -0.26591  -0.22286
 Alpha virt. eigenvalues --   -0.09170  -0.04450  -0.02664  -0.00926  -0.00160
 Alpha virt. eigenvalues --    0.00092   0.00430   0.01245   0.02131   0.03320
 Alpha virt. eigenvalues --    0.03419   0.03686   0.04102   0.04139   0.06105

  Beta  occ. eigenvalues --  -19.21751 -19.16896 -19.15729 -19.13015 -10.28654
  Beta  occ. eigenvalues --  -10.27501 -10.27208 -10.25997 -10.25233 -10.20971
  Beta  occ. eigenvalues --  -10.20933 -10.20310 -10.20097 -10.20015 -10.19859
  Beta  occ. eigenvalues --  -10.19306 -10.18807  -1.14059  -1.08186  -1.07787
  Beta  occ. eigenvalues --   -1.05226  -0.89113  -0.87963  -0.81016  -0.79678
  Beta  occ. eigenvalues --   -0.77574  -0.75213  -0.68958  -0.68145  -0.63248
  Beta  occ. eigenvalues --   -0.62757  -0.59299  -0.58464  -0.57173  -0.55340
  Beta  occ. eigenvalues --   -0.51246  -0.50681  -0.49776  -0.49774  -0.46616
  Beta  occ. eigenvalues --   -0.46346  -0.45567  -0.43860  -0.43672  -0.43054
  Beta  occ. eigenvalues --   -0.42842  -0.41919  -0.40154  -0.39575  -0.38739
  Beta  occ. eigenvalues --   -0.38153  -0.37762  -0.36729  -0.32881  -0.28783
  Beta  occ. eigenvalues --   -0.28749  -0.28287  -0.26591  -0.22286
  Beta virt. eigenvalues --   -0.09170  -0.04450  -0.02664  -0.00926  -0.00160
  Beta virt. eigenvalues --    0.00092   0.00430   0.01245   0.02131   0.03320
  Beta virt. eigenvalues --    0.03419   0.03686   0.04102   0.04139   0.06105

 Mulliken charges and spin densities:
               1          2
     1  O   -0.374862  -0.000000
     2  C   -0.019623   0.000000
     3  C    1.365091   0.000000
     4  C   -0.057500   0.000000
     5  C   -0.016223  -0.000000
     6  C    0.034101   0.000000
     7  C   -1.061981  -0.000000
     8  C   -0.500422  -0.000000
     9  O   -0.076640  -0.000000
    10  C   -1.330465  -0.000000
    11  C   -0.329355  -0.000000
    12  C   -0.399598  -0.000000
    13  C   -0.254527  -0.000000
    14  C    0.346619   0.000000
    15  C    1.366342   0.000000
    16  O   -0.326823   0.000000
    17  H    0.216443   0.000000
    18  H    0.228728   0.000000
    19  O   -0.282067  -0.000000
    20  H    0.212629  -0.000000
    21  H    0.211331   0.000000
    22  H    0.199900  -0.000000
    23  H    0.208710  -0.000000
    24  H    0.332171  -0.000000
    25  H    0.308021   0.000000
 Sum of Mulliken charges =  -0.00000   0.00000

 Dipole moment (field-independent basis, Debye):
    X=              4.0810    Y=             -0.7181    Z=             -4.6046  Tot=              6.1946
 Quadrupole moment (field-independent basis, Debye-Ang):
   XX=            -84.3525   YY=           -100.7972   ZZ=           -104.7707
   XY=             -0.2603   XZ=             -1.4600   YZ=             -0.6553

  Exact polarizability: 339.397  -1.722 113.131  -8.849  24.121 264.277
 Approx polarizability: 366.043  -1.577 133.078  -7.765  33.184 341.086

                      1                      2                      3
                      A                      A                      A
 Frequencies --     62.9400                89.1827               145.8337
 Red. masses --      6.4641                 5.5852                 6.8492
 Frc consts  --      0.0151                 0.0262                 0.0858
 IR Inten    --      1.7341                 0.0079                 0.2445

                      4                      5                      6
                      A                      A                      A
 Frequencies --    154.4778               186.2266               248.8489
 Red. masses --      6.5485                 5.7800                 5.7273
 Frc consts  --      0.0921                 0.1181                 0.2090
 IR Inten    --      0.0076                 0.5235                 0.3621

                      7                      8                      9
                      A                      A                      A
 Frequencies --    280.5047               294.2608               300.0709
 Red. masses --      4.7030                 5.1931                 1.3159
 Frc consts  --      0.2180                 0.2649                 0.0698
 IR Inten    --     24.3128                 6.8025               140.6861

                     10                     11                     12
                      A                      A                      A
 Frequencies --    335.5478               371.9734               397.9414
 Red. masses --      6.4307                 5.3581                10.0541
 Frc consts  --      0.4266                 0.4368                 0.9381
 IR Inten    --     34.8197                 4.5291                12.9702

                     13                     14                     15
                      A                      A                      A
 Frequencies --    432.4250               435.8706               476.7833
 Red. masses --      3.5507                 6.6993                10.6293
 Frc consts  --      0.3912                 0.7499                 1.4236
 IR Inten    --      1.8188                13.2742                 0.4266

                     16                     17                     18
                      A                      A                      A
 Frequencies --    490.5011               518.4898               531.8434
 Red. masses --      4.3400                 5.5464                 3.4881
 Frc consts  --      0.6152                 0.8785                 0.5813
 IR Inten    --      0.5843                34.9921                 8.3823

                     19                     20                     21
                      A                      A                      A
 Frequencies --    547.2042               619.6958               645.8655
 Red. masses --      9.4880                 4.0280                 7.4910
 Frc consts  --      1.6739                 0.9114                 1.8411
 IR Inten    --      4.2844                21.1390                21.1202

                     22                     23                     24
                      A                      A                      A
 Frequencies --    650.7924               680.7911               686.6224
 Red. masses --      6.2701                 6.7722                 4.5483
 Frc consts  --      1.5646                 1.8493                 1.2634
 IR Inten    --     32.3613                31.2286                 1.7107

                     25                     26                     27
                      A                      A                      A
 Frequencies --    716.1752               741.9466               756.8079
 Red. masses --      5.2922                 1.1192                 7.6982
 Frc consts  --      1.5993                 0.3630                 2.5978
 IR Inten    --      4.6336               163.5452                34.9691

                     28                     29                     30
                      A                      A                      A
 Frequencies --    766.5175               796.0905               836.4997
 Red. masses --      1.9052                 2.4309                 1.5219
 Frc consts  --      0.6595                 0.9077                 0.6274
 IR Inten    --    119.5863                11.7764                39.5235

                     31                     32                     33
                      A                      A                      A
 Frequencies --    858.5307               880.1492               912.6995
 Red. masses --      7.1270                 1.4610                 7.1695
 Frc consts  --      3.0950                 0.6668                 3.5188
 IR Inten    --      1.4971                 2.5975                92.6568

                     34                     35                     36
                      A                      A                      A
 Frequencies --    952.1965               985.5218              1009.1792
 Red. masses --      1.3214                 1.3593                 1.3087
 Frc consts  --      0.7059                 0.7778                 0.7853
 IR Inten    --      0.8011                 2.1109                 0.0455

                     37                     38                     39
                      A                      A                      A
 Frequencies --   1010.7952              1041.7847              1071.3387
 Red. masses --      6.0818                 2.4610                 2.0853
 Frc consts  --      3.6611                 1.5737                 1.4101
 IR Inten    --    172.8248                 7.5508                58.2361

                     40                     41                     42
                      A                      A                      A
 Frequencies --   1129.0670              1169.2951              1179.4636
 Red. masses --      1.9041                 1.2813                 1.6172
 Frc consts  --      1.4302                 1.0321                 1.3255
 IR Inten    --     68.3718                31.7068                42.4773

                     43                     44                     45
                      A                      A                      A
 Frequencies --   1188.3465              1219.8538              1243.5167
 Red. masses --      1.5613                 3.0873                 2.4027
 Frc consts  --      1.2990                 2.7067                 2.1890
 IR Inten    --    155.9350               250.6729               116.4224

                     46                     47                     48
                      A                      A                      A
 Frequencies --   1251.5600              1288.7267              1314.4335
 Red. masses --      2.1986                 2.2836                 6.6274
 Frc consts  --      2.0291                 2.2346                 6.7463
 IR Inten    --    389.2735               259.1634                50.3066

                     49                     50                     51
                      A                      A                      A
 Frequencies --   1339.4709              1359.9580              1397.9834
 Red. masses --      2.1095                 8.3990                 2.8290
 Frc consts  --      2.2299                 9.1522                 3.2575
 IR Inten    --    122.2396                47.9332               376.9696

                     52                     53                     54
                      A                      A                      A
 Frequencies --   1401.1118              1479.6564              1491.1821
 Red. masses --      3.1796                 3.8512                 2.6463
 Frc consts  --      3.6776                 4.9679                 3.4670
 IR Inten    --    158.4999               154.0362               270.0915

                     55                     56                     57
                      A                      A                      A
 Frequencies --   1500.6030              1514.0647              1604.2833
 Red. masses --      2.9604                 2.3907                 6.5744
 Frc consts  --      3.9276                 3.2290                 9.9694
 IR Inten    --    426.4635               171.1006               107.8780

                     58                     59                     60
                      A                      A                      A
 Frequencies --   1615.2175              1636.5132              1650.8129
 Red. masses --      6.3200                 5.8240                 7.2731
 Frc consts  --      9.7146                 9.1899                11.6779
 IR Inten    --    625.7230               279.4596               197.0397

                     61                     62                     63
                      A                      A                      A
 Frequencies --   1674.4790              3182.1059              3188.0667
 Red. masses --      6.0805                 1.0874                 1.0890
 Frc consts  --     10.0449                 6.4874                 6.5211
 IR Inten    --    190.1079                 3.3362                 8.0776

                     64                     65                     66
                      A                      A                      A
 Frequencies --   3193.0625              3202.4511              3202.4823
 Red. masses --      1.0900                 1.0940                 1.0944
 Frc consts  --      6.5479                 6.6107                 6.6130
 IR Inten    --      7.1658                 5.5425                 4.7770

                     67                     68                     69
                      A                      A                      A
 Frequencies --   3206.7955              3339.8964              3785.5450
 Red. masses --      1.0972                 1.0687                 1.0660
 Frc consts  --      6.6478                 7.0236                 9.0006
 IR Inten    --     13.1448               626.1865               162.6546

 - Thermochemistry -
 -------------------
 Temperature   298.150 Kelvin.  Pressure   1.00000 Atm.
 Atom     1 has atomic number  8 and mass  15.99491

 Molecular mass:   228.04226 amu.
 Principal axes and moments of inertia in atomic units:
                           1         2         3
     Eigenvalues --  2136.794474456.858596593.65237
           X            0.99863   0.05228   0.00151
           Y           -0.00952   0.15332   0.98813
           Z           -0.05143   0.98679  -0.15361
 This molecule is an asymmetric top.
 Rotational symmetry number  1.
 Warning -- assumption of classical behavior for rotation
           may cause significant error
 Rotational temperatures (Kelvin)      0.04053     0.01943     0.01314
 Rotational constants (GHZ):           0.84460     0.40494     0.27371
 Zero-point vibrational energy     477734.3 (Joules/Mol)
                                  114.18123 (Kcal/Mol)
 Warning -- explicit consideration of  20 degrees of freedom as
           vibrations may cause significant error
 Vibrational temperatures:     90.56   128.31   209.82   222.26   267.94
          (Kelvin)            358.04   403.58   423.38   431.74   482.78
                              535.19   572.55   622.16   627.12   685.98
                              705.72   745.99   765.20   787.30   891.60
                              929.26   936.35   979.51   987.90  1030.42
                             1067.50  1088.88  1102.85  1145.40  1203.54
                             1235.23  1266.34  1313.17  1370.00  1417.95
                             1451.98  1454.31  1498.90  1541.42  1624.48
                             1682.35  1696.99  1709.77  1755.10  1789.14
                             1800.72  1854.19  1891.18  1927.20  1956.68
                             2011.39  2015.89  2128.90  2145.48  2159.03
                             2178.40  2308.21  2323.94  2354.58  2375.15
                             2409.20  4578.34  4586.92  4594.10  4607.61
                             4607.66  4613.86  4805.37  5446.55

 Zero-point correction=                           0.181959 (Hartree/Particle)
 Thermal correction to Energy=                    0.194450
 Thermal correction to Enthalpy=                  0.195394
 Thermal correction to Gibbs Free Energy=         0.143454
 Sum of electronic and zero-point Energies=           -801.163680
 Sum of electronic and thermal Energies=              -801.151190
 Sum of electronic and thermal Enthalpies=            -801.150246
 Sum of electronic and thermal Free Energies=         -801.202186

                     E (Thermal)             CV                S
                      KCal/Mol        Cal/Mol-Kelvin    Cal/Mol-Kelvin
 Total                  122.019             51.218            109.317
 Electronic               0.000              0.000              0.000
 Translational            0.889              2.981             42.175
 Rotational               0.889              2.981             32.507
 Vibrational            120.242             45.256             34.634
 Vibration     1          0.597              1.972              4.363
 Vibration     2          0.602              1.957              3.678
 Vibration     3          0.617              1.907              2.726
 Vibration     4          0.620              1.898              2.616
 Vibration     5          0.632              1.859              2.265
 Vibration     6          0.662              1.765              1.739
 Vibration     7          0.680              1.710              1.531
 Vibration     8          0.689              1.684              1.449
 Vibration     9          0.693              1.674              1.417
 Vibration    10          0.717              1.605              1.233
 Vibration    11          0.744              1.530              1.072
 Vibration    12          0.764              1.475              0.970
 Vibration    13          0.793              1.400              0.851
 Vibration    14          0.796              1.392              0.840
 Vibration    15          0.833              1.302              0.719
 Vibration    16          0.846              1.271              0.682
 Vibration    17          0.873              1.209              0.613
 Vibration    18          0.887              1.180              0.583
 Vibration    19          0.902              1.146              0.550
 Vibration    20          0.980              0.990              0.417

                           ! Non-Optimized Parameters !
 Normal termination of Gaussian 16 at Sun Feb 11 16:03:30 2024.
