 Q-Chem 5.4, Q-Chem, Inc., Pleasanton, CA (2021)
 Q-Chem 5.4.0 for Intel X86 EM64T Linux

User input:
--------------------------------------------------------------
$molecule
0 1
C                 -4.8975970000     -0.7835000000     -2.6861910000
C                 -4.3003630000     -1.9165300000     -3.2286170000
C                 -2.9874400000     -2.2503100000     -2.8862720000
C                 -4.1852430000      0.0192610000     -1.7916710000
C                 -2.8684160000     -0.3145060000     -1.4505770000
C                 -2.2702750000     -1.4496110000     -2.0034680000
C                 -4.8309010000      1.2255610000     -1.2045630000
C                 -4.0862390000      2.0109290000     -0.1717630000
C                 -2.8165950000      1.6618980000      0.1737930000
C                 -2.0825470000      0.5527190000     -0.5267870000
O                 -5.9612520000      1.5552410000     -1.5309760000
O                 -0.8889420000      0.3815770000     -0.3704750000
H                 -5.9120290000     -0.5033130000     -2.9414100000
H                 -4.8548830000     -2.5405440000     -3.9202270000
H                 -2.5243810000     -3.1332580000     -3.3119100000
H                 -1.2485950000     -1.6844920000     -1.7321310000
C                 -4.8296190000      3.1712500000      0.4210430000
S                 -1.8969090000      2.6592260000      1.3257100000
C                 -1.0553070000      1.4483560000      2.3561560000
C                 -1.7649000000      0.5094870000      3.0690680000
C                 -1.0976200000     -0.4016920000      3.9276400000
C                  0.3227740000     -0.3091900000      4.0695350000
C                  1.0174350000      0.6869220000      3.3342110000
C                  0.3519190000      1.5412280000      2.4914940000
C                 -1.7984000000     -1.3928330000      4.6648190000
C                 -1.1265370000     -2.2540690000      5.4988350000
C                  0.2790200000     -2.1649160000      5.6363730000
C                  0.9853630000     -1.2142220000      4.9384440000
H                 -4.6503430000      4.0810280000     -0.1633130000
H                 -4.4971640000      3.3675190000      1.4410660000
H                 -5.9026800000      2.9848090000      0.3952740000
H                 -2.8447970000      0.4566130000      2.9849180000
H                  2.0956000000      0.7561110000      3.4338950000
H                  0.8934840000      2.2767580000      1.9099050000
H                 -2.8761890000     -1.4601640000      4.5591370000
H                 -1.6724050000     -3.0071880000      6.0558530000
H                  0.7969820000     -2.8507920000      6.2971650000
H                  2.0630020000     -1.1442060000      5.0436500000
$end
$rem
MAX_SCF_CYCLES=200
BASIS  =  6-311++G(d,p)
GUI  =  2
JOB_TYPE  =  SP
METHOD  =  B3LYP
SOLVENT_METHOD = COSMO
$end
$solvent
dielectric 37.219
opticaldielectric 1.43
$end

--------------------------------------------------------------

             Standard Nuclear Orientation (Angstroms)
    I     Atom           X                Y                Z
 ----------------------------------------------------------------
    1      C       4.4165925842     1.4622092360     0.5797467862
    2      C       4.4112529826     2.7625941204     0.0861456939
    3      C       3.3708479019     3.1958066837    -0.7398447021
    4      C       3.3756667005     0.5889656913     0.2542341275
    5      C       2.3341629279     1.0230118330    -0.5756168915
    6      C       2.3367690643     2.3278969027    -1.0748088763
    7      C       3.3787547186    -0.7991002621     0.7927442201
    8      C       2.2035208533    -1.6822574126     0.5155095918
    9      C       1.1824240334    -1.2413193625    -0.2694505316
   10      C       1.2360077563     0.0916370776    -0.9624676816
   11      O       4.3055295613    -1.2056570937     1.4773811061
   12      O       0.4335636298     0.3931278310    -1.8247916758
   13      H       5.2152771884     1.1039085822     1.2172711545
   14      H       5.2177353406     3.4404385718     0.3417301232
   15      H       3.3704099124     4.2094969114    -1.1240587643
   16      H       1.5258746322     2.6399486737    -1.7211035354
   17      C       2.2501880226    -3.0414088457     1.1486818891
   18      S      -0.1634337142    -2.3304095932    -0.6816976005
   19      C      -1.6154903957    -1.2761248503    -0.5538926063
   20      C      -1.9242464157    -0.6355064674     0.6240371676
   21      C      -3.1044719750     0.1439004982     0.7347081158
   22      C      -3.9893194114     0.2273828569    -0.3861333701
   23      C      -3.6473335424    -0.4654517989    -1.5771498316
   24      C      -2.4876499608    -1.1934115369    -1.6673210048
   25      C      -3.4440837484     0.8306445002     1.9305059613
   26      C      -4.6008114718     1.5681656520     2.0126859532
   27      C      -5.4743018542     1.6537224705     0.9026634211
   28      C      -5.1748524736     0.9978507429    -0.2678094533
   29      H       2.7394091528    -3.7595646654     0.4806828378
   30      H       1.2446231365    -3.4136186372     1.3481659707
   31      H       2.8379677206    -3.0106442644     2.0654439983
   32      H      -1.2692167188    -0.7211645088     1.4840681026
   33      H      -4.3124501745    -0.3992782479    -2.4317870129
   34      H      -2.2187746965    -1.6921253250    -2.5901067030
   35      H      -2.7739897382     0.7640941036     2.7813151876
   36      H      -4.8489468118     2.0887684433     2.9307440890
   37      H      -6.3833167074     2.2393806401     0.9804650485
   38      H      -5.8441661164     1.0619009410    -1.1193922013
 ----------------------------------------------------------------

    9   -1357.5828855011      5.01e-06  Convergence criterion met
 Total energy in the final basis set =    -1357.5828855011
    4   -1357.6001675765      8.73e-06  Convergence criterion met
 Total energy in the final basis set =    -1357.6001675765

                    Orbital Energies (a.u.)
 --------------------------------------------------------------

 Alpha MOs
 -- Occupied --
-88.8732 -19.1374 -19.1362 -10.2903 -10.2854 -10.2389 -10.2226 -10.2192
-10.2083 -10.2073 -10.1972 -10.1969 -10.1964 -10.1963 -10.1960 -10.1946
-10.1897 -10.1872 -10.1856 -10.1832 -10.1827 -10.1821 -10.1816 -10.1729
 -7.9592  -5.9230  -5.9191  -5.9134  -1.0742  -1.0698  -0.8932  -0.8906
 -0.8638  -0.8403  -0.7974  -0.7865  -0.7782  -0.7756  -0.7456  -0.7307
 -0.7054  -0.6815  -0.6453  -0.6330  -0.6221  -0.6083  -0.6055  -0.5869
 -0.5527  -0.5253  -0.5235  -0.5155  -0.5053  -0.4939  -0.4725  -0.4658
 -0.4643  -0.4580  -0.4551  -0.4506  -0.4500  -0.4349  -0.4298  -0.4280
 -0.4202  -0.4148  -0.4125  -0.4054  -0.3983  -0.3894  -0.3809  -0.3782
 -0.3693  -0.3678  -0.3492  -0.3438  -0.3421  -0.3099  -0.3012  -0.2940
 -0.2847  -0.2815  -0.2784  -0.2630  -0.2458  -0.2276

          Ground-State Mulliken Net Atomic Charges

     Atom                 Charge (a.u.)
  ----------------------------------------
      1 C                     0.013908
      2 C                    -0.510445
      3 C                    -0.494065
      4 C                     0.520565
      5 C                     0.179841
      6 C                    -0.011512
      7 C                    -0.592470
      8 C                     0.603170
      9 C                     0.692594
     10 C                    -0.794598
     11 O                    -0.289114
     12 O                    -0.196295
     13 H                     0.206435
     14 H                     0.228618
     15 H                     0.227159
     16 H                     0.219809
     17 C                    -0.399397
     18 S                    -0.444245
     19 C                     0.938993
     20 C                    -0.503199
     21 C                    -0.178841
     22 C                     0.135523
     23 C                    -0.098756
     24 C                    -0.233661
     25 C                    -0.300937
     26 C                    -0.334815
     27 C                    -0.323636
     28 C                    -0.317851
     29 H                     0.240972
     30 H                     0.177617
     31 H                     0.181315
     32 H                     0.231970
     33 H                     0.208433
     34 H                     0.228453
     35 H                     0.184361
     36 H                     0.213735
     37 H                     0.211999
     38 H                     0.178366
  ----------------------------------------
  Sum of atomic charges =     0.000001

                    Cartesian Multipole Moments
 -----------------------------------------------------------------
    Charge (ESU x 10^10)
                -0.0000
    Dipole Moment (Debye)
         X      -0.8885      Y       3.1994      Z       0.8759
       Tot       3.4340
    Quadrupole Moments (Debye-Ang)
        XX    -135.6932     XY       8.1169     YY    -133.9635
        XZ      -3.9028     YZ       2.9627     ZZ    -144.9108

 Total job time:  134.05s(wall), 1015.58s(cpu)
        *  Thank you very much for using Q-Chem.  Have a nice day.  *
