 Gaussian 16, Revision A.03,
 Gaussian 16:  ES64L-G16RevA.03 25-Dec-2016

 --------------------------------------
 #P UB3LYP/6-311++G(d,p) nosym opt freq
 --------------------------------------

 --------
 Oxidized
 --------
 Symbolic Z-matrix:
 Charge =  0 Multiplicity = 1

 SCF Done:  E(UB3LYP) =  -1357.58282679     A.U. after   18 cycles
 Optimization completed.
    -- Stationary point found.
 Normal termination of Gaussian 16 at Mon Jan  8 21:38:13 2024.

 ----------------------------------------------------------------------
 #P Geom=AllCheck Guess=TCheck SCRF=Check GenChk UB3LYP/6-311++G(d,p) F
 req
 ----------------------------------------------------------------------

 Structure from the checkpoint file:  "314.chk"
 --------
 Oxidized
 --------
 Charge =  0 Multiplicity = 1

                          Input orientation:
 ---------------------------------------------------------------------
 Center     Atomic      Atomic             Coordinates (Angstroms)
 Number     Number       Type             X           Y           Z
 ---------------------------------------------------------------------
      1          6           0       -4.897597   -0.783500   -2.686191
      2          6           0       -4.300363   -1.916530   -3.228617
      3          6           0       -2.987440   -2.250310   -2.886272
      4          6           0       -4.185243    0.019261   -1.791671
      5          6           0       -2.868416   -0.314506   -1.450577
      6          6           0       -2.270275   -1.449611   -2.003468
      7          6           0       -4.830901    1.225561   -1.204563
      8          6           0       -4.086239    2.010929   -0.171763
      9          6           0       -2.816595    1.661898    0.173793
     10          6           0       -2.082547    0.552719   -0.526787
     11          8           0       -5.961252    1.555241   -1.530976
     12          8           0       -0.888942    0.381577   -0.370475
     13          1           0       -5.912029   -0.503313   -2.941410
     14          1           0       -4.854883   -2.540544   -3.920227
     15          1           0       -2.524381   -3.133258   -3.311910
     16          1           0       -1.248595   -1.684492   -1.732131
     17          6           0       -4.829619    3.171250    0.421043
     18         16           0       -1.896909    2.659226    1.325710
     19          6           0       -1.055307    1.448356    2.356156
     20          6           0       -1.764900    0.509487    3.069068
     21          6           0       -1.097620   -0.401692    3.927640
     22          6           0        0.322774   -0.309190    4.069535
     23          6           0        1.017435    0.686922    3.334211
     24          6           0        0.351919    1.541228    2.491494
     25          6           0       -1.798400   -1.392833    4.664819
     26          6           0       -1.126537   -2.254069    5.498835
     27          6           0        0.279020   -2.164916    5.636373
     28          6           0        0.985363   -1.214222    4.938444
     29          1           0       -4.650343    4.081028   -0.163313
     30          1           0       -4.497164    3.367519    1.441066
     31          1           0       -5.902680    2.984809    0.395274
     32          1           0       -2.844797    0.456613    2.984918
     33          1           0        2.095600    0.756111    3.433895
     34          1           0        0.893484    2.276758    1.909905
     35          1           0       -2.876189   -1.460164    4.559137
     36          1           0       -1.672405   -3.007188    6.055853
     37          1           0        0.796982   -2.850792    6.297165
     38          1           0        2.063002   -1.144206    5.043650
 ---------------------------------------------------------------------

 SCF Done:  E(UB3LYP) =  -1357.58282679     A.U. after    2 cycles

 Alpha  occ. eigenvalues --  -88.87051 -19.13143 -19.12984 -10.28484 -10.27980
 Alpha  occ. eigenvalues --  -10.23774 -10.22100 -10.21851 -10.20990 -10.20900
 Alpha  occ. eigenvalues --  -10.20316 -10.20263 -10.20066 -10.20024 -10.19670
 Alpha  occ. eigenvalues --  -10.19506 -10.19033 -10.18762 -10.18673 -10.18614
 Alpha  occ. eigenvalues --  -10.18565 -10.18524 -10.18479 -10.17647  -7.95649
 Alpha  occ. eigenvalues --   -5.92042  -5.91639  -5.91053  -1.06738  -1.06276
 Alpha  occ. eigenvalues --   -0.89417  -0.89126  -0.86375  -0.84072  -0.79868
 Alpha  occ. eigenvalues --   -0.78838  -0.78081  -0.77652  -0.74620  -0.73196
 Alpha  occ. eigenvalues --   -0.70658  -0.68196  -0.64743  -0.63499  -0.62403
 Alpha  occ. eigenvalues --   -0.61101  -0.60676  -0.58734  -0.55247  -0.52834
 Alpha  occ. eigenvalues --   -0.52569  -0.51800  -0.50364  -0.49552  -0.47646
 Alpha  occ. eigenvalues --   -0.46391  -0.46152  -0.45688  -0.45498  -0.45371
 Alpha  occ. eigenvalues --   -0.45067  -0.43523  -0.43175  -0.42763  -0.42129
 Alpha  occ. eigenvalues --   -0.41654  -0.41203  -0.40380  -0.40016  -0.39317
 Alpha  occ. eigenvalues --   -0.38376  -0.37935  -0.37303  -0.36880  -0.34964
 Alpha  occ. eigenvalues --   -0.34589  -0.34168  -0.30799  -0.29998  -0.28729
 Alpha  occ. eigenvalues --   -0.28521  -0.28066  -0.27755  -0.26036  -0.24404
 Alpha  occ. eigenvalues --   -0.22657
 Alpha virt. eigenvalues --   -0.12315  -0.06095  -0.05808  -0.04010  -0.02951
 Alpha virt. eigenvalues --   -0.01153  -0.00657  -0.00256  -0.00176   0.00326
 Alpha virt. eigenvalues --    0.00974   0.01335   0.01886   0.02040   0.02296

  Beta  occ. eigenvalues --  -88.87051 -19.13143 -19.12984 -10.28484 -10.27980
  Beta  occ. eigenvalues --  -10.23774 -10.22100 -10.21851 -10.20990 -10.20900
  Beta  occ. eigenvalues --  -10.20316 -10.20263 -10.20066 -10.20024 -10.19670
  Beta  occ. eigenvalues --  -10.19506 -10.19033 -10.18762 -10.18673 -10.18614
  Beta  occ. eigenvalues --  -10.18565 -10.18524 -10.18479 -10.17647  -7.95649
  Beta  occ. eigenvalues --   -5.92042  -5.91639  -5.91053  -1.06738  -1.06276
  Beta  occ. eigenvalues --   -0.89417  -0.89126  -0.86375  -0.84072  -0.79868
  Beta  occ. eigenvalues --   -0.78838  -0.78081  -0.77652  -0.74620  -0.73196
  Beta  occ. eigenvalues --   -0.70658  -0.68196  -0.64743  -0.63499  -0.62403
  Beta  occ. eigenvalues --   -0.61101  -0.60676  -0.58734  -0.55247  -0.52834
  Beta  occ. eigenvalues --   -0.52569  -0.51800  -0.50364  -0.49552  -0.47646
  Beta  occ. eigenvalues --   -0.46391  -0.46152  -0.45688  -0.45498  -0.45371
  Beta  occ. eigenvalues --   -0.45067  -0.43523  -0.43175  -0.42763  -0.42129
  Beta  occ. eigenvalues --   -0.41654  -0.41203  -0.40380  -0.40016  -0.39317
  Beta  occ. eigenvalues --   -0.38376  -0.37935  -0.37303  -0.36880  -0.34964
  Beta  occ. eigenvalues --   -0.34589  -0.34168  -0.30799  -0.29998  -0.28729
  Beta  occ. eigenvalues --   -0.28521  -0.28066  -0.27755  -0.26036  -0.24404
  Beta  occ. eigenvalues --   -0.22657
  Beta virt. eigenvalues --   -0.12315  -0.06095  -0.05808  -0.04010  -0.02951
  Beta virt. eigenvalues --   -0.01153  -0.00657  -0.00256  -0.00176   0.00326
  Beta virt. eigenvalues --    0.00974   0.01335   0.01886   0.02040   0.02296

 Mulliken charges and spin densities:
               1          2
     1  C   -0.000817   0.000000
     2  C   -0.426121  -0.000000
     3  C   -0.406935  -0.000000
     4  C    0.540686   0.000000
     5  C    0.243722   0.000000
     6  C   -0.029850  -0.000000
     7  C   -0.714439  -0.000000
     8  C    0.559085   0.000000
     9  C    0.643216   0.000000
    10  C   -0.841986  -0.000000
    11  O   -0.210149   0.000000
    12  O   -0.125398   0.000000
    13  H    0.190024   0.000000
    14  H    0.178134   0.000000
    15  H    0.177015   0.000000
    16  H    0.200666   0.000000
    17  C   -0.343142  -0.000000
    18  S   -0.430666  -0.000000
    19  C    0.989204  -0.000000
    20  C   -0.484845   0.000000
    21  C   -0.159853  -0.000000
    22  C    0.124541  -0.000000
    23  C   -0.017057   0.000000
    24  C   -0.229563   0.000000
    25  C   -0.284782   0.000000
    26  C   -0.279227   0.000000
    27  C   -0.263349   0.000000
    28  C   -0.281368   0.000000
    29  H    0.209658  -0.000000
    30  H    0.166752  -0.000000
    31  H    0.183608   0.000000
    32  H    0.179245   0.000000
    33  H    0.157162   0.000000
    34  H    0.193760  -0.000000
    35  H    0.132954  -0.000000
    36  H    0.167382   0.000000
    37  H    0.166063  -0.000000
    38  H    0.126668  -0.000000
 Sum of Mulliken charges =  -0.00000  -0.00000

 Dipole moment (field-independent basis, Debye):
    X=              0.4628    Y=             -2.4068    Z=              0.4306  Tot=              2.4885
 Quadrupole moment (field-independent basis, Debye-Ang):
   XX=           -149.0724   YY=           -139.5201   ZZ=           -136.4851
   XY=              8.9952   XZ=              1.6264   YZ=              1.4425

  Exact polarizability: 303.528 -24.863 271.881  81.640 -20.792 294.567
 Approx polarizability: 570.888 -32.917 449.249 101.500 -46.390 408.015

                      1                      2                      3
                      A                      A                      A
 Frequencies --     16.1352                21.6427                25.1592
 Red. masses --      5.1794                 6.6983                 5.1910
 Frc consts  --      0.0008                 0.0018                 0.0019
 IR Inten    --      0.1061                 0.4042                 0.7900

                      4                      5                      6
                      A                      A                      A
 Frequencies --     55.7961                75.7311               102.9721
 Red. masses --      7.6312                 3.7893                 1.2569
 Frc consts  --      0.0140                 0.0128                 0.0079
 IR Inten    --      4.8854                 1.7368                 0.9332

                      7                      8                      9
                      A                      A                      A
 Frequencies --    109.1163               122.3698               164.1423
 Red. masses --      3.5793                 5.8768                 6.3063
 Frc consts  --      0.0251                 0.0518                 0.1001
 IR Inten    --      0.8541                 0.3574                 1.2561

                     10                     11                     12
                      A                      A                      A
 Frequencies --    179.6320               192.4959               207.0241
 Red. masses --      3.8227                 5.2232                 7.4700
 Frc consts  --      0.0727                 0.1140                 0.1886
 IR Inten    --      1.4235                 0.1524                 1.8076

                     13                     14                     15
                      A                      A                      A
 Frequencies --    258.3217               268.2201               279.0109
 Red. masses --      5.3709                 5.0256                 5.8003
 Frc consts  --      0.2112                 0.2130                 0.2660
 IR Inten    --      1.1243                 0.2433                 2.6582

                     16                     17                     18
                      A                      A                      A
 Frequencies --    336.6961               362.4998               377.5252
 Red. masses --      4.9120                 4.9841                 7.8445
 Frc consts  --      0.3281                 0.3859                 0.6587
 IR Inten    --      0.2697                 0.9274                 1.2267

                     19                     20                     21
                      A                      A                      A
 Frequencies --    394.1380               404.0926               410.5800
 Red. masses --      7.2610                 3.6643                 5.5945
 Frc consts  --      0.6646                 0.3525                 0.5557
 IR Inten    --     11.9170                 1.4359                10.8325

                     22                     23                     24
                      A                      A                      A
 Frequencies --    415.5576               433.2190               439.9523
 Red. masses --      4.7718                 4.2068                 4.7415
 Frc consts  --      0.4855                 0.4652                 0.5407
 IR Inten    --      6.9324                 2.3822                 1.1390

                     25                     26                     27
                      A                      A                      A
 Frequencies --    482.9847               492.7820               513.9418
 Red. masses --      2.5803                 9.7642                 3.9751
 Frc consts  --      0.3546                 1.3970                 0.6186
 IR Inten    --     19.7401                 0.7324                 0.0850

                     28                     29                     30
                      A                      A                      A
 Frequencies --    524.1892               540.3561               581.1306
 Red. masses --      6.7719                 4.8340                 6.7473
 Frc consts  --      1.0963                 0.8316                 1.3425
 IR Inten    --      0.0140                 3.0525                 3.3832

                     31                     32                     33
                      A                      A                      A
 Frequencies --    610.2918               641.1234               654.6643
 Red. masses --      7.0510                 3.8564                 5.8755
 Frc consts  --      1.5473                 0.9339                 1.4836
 IR Inten    --      2.5288                 3.4843                 2.4354

                     34                     35                     36
                      A                      A                      A
 Frequencies --    665.3365               698.8437               702.0443
 Red. masses --      6.3491                 5.1064                 4.9653
 Frc consts  --      1.6560                 1.4693                 1.4419
 IR Inten    --      8.8379                 0.2902                 2.4611

                     37                     38                     39
                      A                      A                      A
 Frequencies --    722.4574               754.9395               771.2661
 Red. masses --      2.7372                 1.2750                 3.1830
 Frc consts  --      0.8418                 0.4282                 1.1156
 IR Inten    --     77.8752                34.0384                 1.3832

                     40                     41                     42
                      A                      A                      A
 Frequencies --    778.9109               796.5847               805.1151
 Red. masses --      4.7402                 2.9478                 2.3784
 Frc consts  --      1.6944                 1.1021                 0.9083
 IR Inten    --      2.6601                12.3759                10.2676

                     43                     44                     45
                      A                      A                      A
 Frequencies --    810.3463               825.5966               847.7920
 Red. masses --      4.7901                 1.3906                 5.5230
 Frc consts  --      1.8532                 0.5584                 2.3389
 IR Inten    --     16.5215                30.0799                51.7276

                     46                     47                     48
                      A                      A                      A
 Frequencies --    861.0789               868.3044               902.3947
 Red. masses --      5.2482                 1.5291                 1.5540
 Frc consts  --      2.2927                 0.6792                 0.7456
 IR Inten    --      0.5421                26.5867                11.5618

                     49                     50                     51
                      A                      A                      A
 Frequencies --    914.4619               955.5503               964.9799
 Red. masses --      1.3799                 4.9891                 5.5545
 Frc consts  --      0.6799                 2.6840                 3.0474
 IR Inten    --      0.5653                16.7727                27.0416

                     52                     53                     54
                      A                      A                      A
 Frequencies --    966.7298               980.6961               992.9426
 Red. masses --      1.3448                 1.3553                 1.2931
 Frc consts  --      0.7405                 0.7680                 0.7512
 IR Inten    --      3.4933                 1.5906                 0.0071

                     55                     56                     57
                      A                      A                      A
 Frequencies --    998.8728              1016.0026              1038.4805
 Red. masses --      1.3790                 1.3229                 1.7524
 Frc consts  --      0.8107                 0.8046                 1.1135
 IR Inten    --      1.3138                 0.0364                40.8566

                     58                     59                     60
                      A                      A                      A
 Frequencies --   1040.2623              1049.6533              1056.1539
 Red. masses --      2.3532                 2.4001                 1.7993
 Frc consts  --      1.5004                 1.5580                 1.1825
 IR Inten    --      5.3048                 3.5394                26.4740

                     61                     62                     63
                      A                      A                      A
 Frequencies --   1090.1564              1110.7636              1117.2168
 Red. masses --      2.4795                 3.1277                 2.2059
 Frc consts  --      1.7362                 2.2736                 1.6222
 IR Inten    --      1.5650                13.0331                 7.7727

                     64                     65                     66
                      A                      A                      A
 Frequencies --   1155.3369              1171.7514              1178.9016
 Red. masses --      1.6171                 1.2759                 1.1858
 Frc consts  --      1.2717                 1.0322                 0.9710
 IR Inten    --     15.3171                 0.8469                 2.6231

                     67                     68                     69
                      A                      A                      A
 Frequencies --   1183.0833              1199.3324              1222.1490
 Red. masses --      1.1346                 2.5240                 2.0000
 Frc consts  --      0.9357                 2.1390                 1.7600
 IR Inten    --      6.5168                39.1504                 4.3089

                     70                     71                     72
                      A                      A                      A
 Frequencies --   1262.5068              1265.2961              1286.9214
 Red. masses --      2.5267                 1.5284                 1.8829
 Frc consts  --      2.3729                 1.4417                 1.8373
 IR Inten    --     73.6691                 6.2012                21.7247

                     73                     74                     75
                      A                      A                      A
 Frequencies --   1287.4544              1317.6147              1360.0467
 Red. masses --      3.2642                 3.0409                 7.5073
 Frc consts  --      3.1878                 3.1105                 8.1816
 IR Inten    --    315.0772               140.0840                 9.6694

                     76                     77                     78
                      A                      A                      A
 Frequencies --   1370.5355              1388.3087              1398.5907
 Red. masses --      2.2230                 2.9746                 8.1700
 Frc consts  --      2.4602                 3.3779                 9.4157
 IR Inten    --      1.3584                 5.0151                 0.0584

                     79                     80                     81
                      A                      A                      A
 Frequencies --   1409.1623              1462.8612              1467.0179
 Red. masses --      1.2429                 2.3213                 1.0780
 Frc consts  --      1.4541                 2.9267                 1.3669
 IR Inten    --     21.5536                 3.2933                10.7081

                     82                     83                     84
                      A                      A                      A
 Frequencies --   1481.2172              1485.8933              1486.7898
 Red. masses --      2.0114                 1.2007                 2.0228
 Frc consts  --      2.6001                 1.5619                 2.6346
 IR Inten    --      0.2958                11.0904                 4.9647

                     85                     86                     87
                      A                      A                      A
 Frequencies --   1508.0963              1535.8915              1593.5073
 Red. masses --      2.5691                 3.2097                 6.5379
 Frc consts  --      3.4427                 4.4611                 9.7813
 IR Inten    --      6.4249                20.9986                86.7131

                     88                     89                     90
                      A                      A                      A
 Frequencies --   1604.8337              1625.6509              1626.1177
 Red. masses --      6.9082                 6.8108                 5.6678
 Frc consts  --     10.4828                10.6049                 8.8301
 IR Inten    --      3.0015                16.4020                12.3146

                     91                     92                     93
                      A                      A                      A
 Frequencies --   1628.5986              1660.6421              1705.3155
 Red. masses --      5.9376                 6.0307                12.3138
 Frc consts  --      9.2788                 9.7988                21.0986
 IR Inten    --     66.0481                 2.0229               236.9537

                     94                     95                     96
                      A                      A                      A
 Frequencies --   1728.0097              3026.7609              3089.4586
 Red. masses --     12.7898                 1.0471                 1.0857
 Frc consts  --     22.5013                 5.6519                 6.1055
 IR Inten    --    210.3920                 7.4373                 6.9225

                     97                     98                     99
                      A                      A                      A
 Frequencies --   3136.5809              3158.1174              3162.5326
 Red. masses --      1.1027                 1.0857                 1.0885
 Frc consts  --      6.3920                 6.3801                 6.4144
 IR Inten    --      1.9532                 1.5707                 0.4886

                    100                    101                    102
                      A                      A                      A
 Frequencies --   3165.6781              3170.4825              3171.9688
 Red. masses --      1.0886                 1.0870                 1.0906
 Frc consts  --      6.4274                 6.4377                 6.4650
 IR Inten    --      8.5637                 3.2837                 0.4627

                    103                    104                    105
                      A                      A                      A
 Frequencies --   3175.8309              3184.8496              3187.8903
 Red. masses --      1.0935                 1.0919                 1.0973
 Frc consts  --      6.4980                 6.5252                 6.5703
 IR Inten    --     25.9652                10.3136                22.9289

                    106                    107                    108
                      A                      A                      A
 Frequencies --   3195.4721              3200.6425              3203.1785
 Red. masses --      1.0941                 1.0926                 1.0949
 Frc consts  --      6.5822                 6.5944                 6.6190
 IR Inten    --      5.0505                 0.4494                10.0705

 - Thermochemistry -
 -------------------
 Temperature   298.150 Kelvin.  Pressure   1.00000 Atm.
 Atom     1 has atomic number  6 and mass  12.00000

 Molecular mass:   330.07145 amu.
 Principal axes and moments of inertia in atomic units:
                           1         2         3
     Eigenvalues --  4670.70446********************
           X            0.54616  -0.13650   0.82648
           Y           -0.11038   0.96630   0.23254
           Z            0.83037   0.21823  -0.51269
 This molecule is an asymmetric top.
 Rotational symmetry number  1.
 Warning -- assumption of classical behavior for rotation
           may cause significant error
 Rotational temperatures (Kelvin)      0.01854     0.00642     0.00566
 Rotational constants (GHZ):           0.38640     0.13387     0.11802
 Zero-point vibrational energy     754151.6 (Joules/Mol)
                                  180.24656 (Kcal/Mol)
 Warning -- explicit consideration of  31 degrees of freedom as
           vibrations may cause significant error
 Vibrational temperatures:     23.21    31.14    36.20    80.28   108.96
          (Kelvin)            148.15   156.99   176.06   236.16   258.45
                              276.96   297.86   371.67   385.91   401.43
                              484.43   521.56   543.17   567.08   581.40
                              590.73   597.89   623.31   632.99   694.91
                              709.00   739.45   754.19   777.45   836.12
                              878.07   922.43   941.92   957.27  1005.48
                             1010.09  1039.46  1086.19  1109.68  1120.68
                             1146.11  1158.38  1165.91  1187.85  1219.78
                             1238.90  1249.30  1298.34  1315.71  1374.82
                             1388.39  1390.91  1411.00  1428.62  1437.16
                             1461.80  1494.14  1496.71  1510.22  1519.57
                             1568.49  1598.14  1607.43  1662.27  1685.89
                             1696.18  1702.19  1725.57  1758.40  1816.47
                             1820.48  1851.59  1852.36  1895.75  1956.80
                             1971.89  1997.47  2012.26  2027.47  2104.73
                             2110.71  2131.14  2137.87  2139.16  2169.81
                             2209.81  2292.70  2309.00  2338.95  2339.62
                             2343.19  2389.29  2453.57  2486.22  4354.83
                             4445.04  4512.84  4543.83  4550.18  4554.70
                             4561.62  4563.76  4569.31  4582.29  4586.66
                             4597.57  4605.01  4608.66

 Zero-point correction=                           0.287241 (Hartree/Particle)
 Thermal correction to Energy=                    0.306783
 Thermal correction to Enthalpy=                  0.307727
 Thermal correction to Gibbs Free Energy=         0.236696
 Sum of electronic and zero-point Energies=          -1357.295586
 Sum of electronic and thermal Energies=             -1357.276044
 Sum of electronic and thermal Enthalpies=           -1357.275100
 Sum of electronic and thermal Free Energies=        -1357.346131

                     E (Thermal)             CV                S
                      KCal/Mol        Cal/Mol-Kelvin    Cal/Mol-Kelvin
 Total                  192.509             76.771            149.497
 Electronic               0.000              0.000              0.000
 Translational            0.889              2.981             43.278
 Rotational               0.889              2.981             35.220
 Vibrational            190.732             70.809             70.999
 Vibration     1          0.593              1.986              7.061
 Vibration     2          0.593              1.985              6.477
 Vibration     3          0.593              1.985              6.179
 Vibration     4          0.596              1.975              4.601
 Vibration     5          0.599              1.965              3.999
 Vibration     6          0.605              1.947              3.397
 Vibration     7          0.606              1.942              3.285
 Vibration     8          0.610              1.930              3.063
 Vibration     9          0.623              1.886              2.502
 Vibration    10          0.629              1.867              2.332
 Vibration    11          0.634              1.850              2.204
 Vibration    12          0.641              1.830              2.070
 Vibration    13          0.667              1.749              1.673
 Vibration    14          0.673              1.732              1.608
 Vibration    15          0.679              1.712              1.540
 Vibration    16          0.717              1.602              1.228
 Vibration    17          0.736              1.549              1.111
 Vibration    18          0.748              1.518              1.049
 Vibration    19          0.761              1.483              0.984
 Vibration    20          0.769              1.461              0.948
 Vibration    21          0.775              1.447              0.925
 Vibration    22          0.779              1.436              0.907
 Vibration    23          0.794              1.398              0.848
 Vibration    24          0.800              1.383              0.827
 Vibration    25          0.839              1.288              0.702
 Vibration    26          0.848              1.266              0.676
 Vibration    27          0.869              1.219              0.624
 Vibration    28          0.879              1.196              0.600
 Vibration    29          0.895              1.161              0.565
 Vibration    30          0.938              1.072              0.483
 Vibration    31          0.969              1.010              0.432

 Optimization completed.
    -- Stationary point found.
 Normal termination of Gaussian 16 at Tue Jan  9 01:17:44 2024.
