 Q-Chem 5.4, Q-Chem, Inc., Pleasanton, CA (2021)
 Q-Chem 5.4.0 for Intel X86 EM64T Linux

User input:
--------------------------------------------------------------
$molecule
0 1
C                 -0.9371220000     -1.5861600000      3.6441100000
C                  0.3608830000     -1.9966680000      3.1005820000
C                  0.9145810000     -1.4548870000      1.9987530000
C                  0.1362120000     -0.3545590000      1.2882350000
C                 -1.1492280000      0.0599380000      1.8169000000
C                 -1.7059450000     -0.4924650000      2.9340170000
O                 -1.4044880000     -2.1046820000      4.6483450000
O                  0.5913900000      0.1774600000      0.2773250000
N                 -2.8793990000     -0.2146700000      3.5388990000
C                 -3.9268950000      0.7668520000      3.1879690000
C                 -5.0216420000      0.6109910000      4.2555380000
C                 -4.5224530000      0.4532390000      1.8019060000
C                 -3.3668010000      2.2012660000      3.2420150000
C                  2.2711490000     -1.8976350000      1.4471430000
C                  2.8944960000     -3.0157010000      2.3041290000
C                  2.0965120000     -2.4402210000      0.0055250000
C                  3.2502940000     -0.6957980000      1.4424070000
H                  0.8405990000     -2.7824290000      3.6692350000
H                 -1.6295270000      0.8442910000      1.2506100000
H                 -3.0375190000     -0.7871630000      4.3608890000
H                 -4.6274230000      0.8191700000      5.2544020000
H                 -5.4347940000     -0.4017930000      4.2482990000
H                 -5.8378420000      1.3097240000      4.0625960000
H                 -4.9346530000     -0.5585700000      1.7842310000
H                 -3.7807840000      0.5294600000      1.0062250000
H                 -5.3281950000      1.1566970000      1.5765930000
H                 -2.9689640000      2.4179060000      4.2363820000
H                 -4.1627460000      2.9187620000      3.0263520000
H                 -2.5682120000      2.3608190000      2.5168970000
H                  3.0761230000     -2.6927200000      3.3330570000
H                  3.8583370000     -3.2992140000      1.8742860000
H                  2.2693010000     -3.9126630000      2.3285060000
H                  1.4074680000     -3.2901290000     -0.0092220000
H                  3.0639460000     -2.7882480000     -0.3686340000
H                  1.7194590000     -1.6715020000     -0.6662540000
H                  3.3850260000     -0.3001120000      2.4536590000
H                  2.8945580000      0.1050420000      0.7970660000
H                  4.2279600000     -1.0284160000      1.0810460000
$end
$rem
MAX_SCF_CYCLES=200
BASIS  =  6-311++G(d,p)
GUI  =  2
JOB_TYPE  =  SP
METHOD  =  B3LYP
SOLVENT_METHOD = COSMO
$end
$solvent
dielectric 37.219
opticaldielectric 1.43
$end

--------------------------------------------------------------

             Standard Nuclear Orientation (Angstroms)
    I     Atom           X                Y                Z
 ----------------------------------------------------------------
    1      C       0.1801922911    -1.5420737104    -0.0000571999
    2      C      -1.2742257305    -1.3592494694    -0.0000638963
    3      C      -1.8757354391    -0.1541265118    -0.0000579218
    4      C      -0.9810129391     1.0791161579    -0.0000983342
    5      C       0.4595530209     0.9105333805    -0.0001264999
    6      C       1.0641332572    -0.3131969909    -0.0001184559
    7      O       0.6862772662    -2.6554747945    -0.0000153093
    8      O      -1.4732082076     2.2060208007    -0.0000962862
    9      N       2.3766013893    -0.6254052036    -0.0002602562
   10      C       3.5673449456     0.2497604238     0.0000211384
   11      C       4.7807279647    -0.6937271794     0.0001021483
   12      C       3.6016812688     1.1195319273     1.2714501115
   13      C       3.6019179334     1.1198088325    -1.2711949162
   14      C      -3.3961926213     0.0155380610     0.0000524373
   15      C      -4.1188267990    -1.3449243031    -0.0002085681
   16      C      -3.8348178197     0.7904902546     1.2689957536
   17      C      -3.8351094079     0.7909744649    -1.2684939644
   18      H      -1.8284472933    -2.2886323180    -0.0001284472
   19      H       1.0144373187     1.8371857083    -0.0001675908
   20      H       2.5374530059    -1.6266766172    -0.0004684924
   21      H       4.7806830520    -1.3322788958    -0.8880015111
   22      H       4.7806102605    -1.3323081022     0.8881859282
   23      H       5.7068946523    -0.1159277967     0.0001319243
   24      H       3.5981866980     0.4896827257     2.1643423051
   25      H       2.7490257520     1.7964580369     1.3326090186
   26      H       4.5113042926     1.7255994292     1.2818141828
   27      H       3.6004674244     0.4901331920    -2.1642119276
   28      H       4.5105543256     1.7273733596    -1.2804000714
   29      H       2.7481733593     1.7952923356    -1.3331618733
   30      H      -3.8797473369    -1.9376748682    -0.8876124790
   31      H      -5.1983560244    -1.1753639707     0.0000021723
   32      H      -3.8795118675    -1.9382583822     0.8867451452
   33      H      -3.5324356158     0.2562234440     2.1747919196
   34      H      -4.9254902274     0.8762250594     1.2803771755
   35      H      -3.4066588591     1.7907459246     1.2925199874
   36      H      -3.5328682361     0.2570502144    -2.1745435760
   37      H      -3.4070252964     1.7912557170    -1.2917151551
   38      H      -4.9257911293     0.8766321539    -1.2796050718
 ----------------------------------------------------------------

    9    -751.5449221471      7.40e-06  Convergence criterion met
 Total energy in the final basis set =     -751.5449221471
    5    -751.5590910594      4.58e-06  Convergence criterion met
 Total energy in the final basis set =     -751.5590910594

                    Orbital Energies (a.u.)
 --------------------------------------------------------------

 Alpha MOs
 -- Occupied --
-19.1445 -19.1155 -14.3502 -10.2888 -10.2688 -10.2464 -10.2323 -10.2153
-10.1996 -10.1943 -10.1728 -10.1639 -10.1615 -10.1615 -10.1580 -10.1560
-10.1560  -1.0781  -1.0489  -0.9616  -0.8589  -0.8261  -0.7990  -0.7548
 -0.6993  -0.6952  -0.6944  -0.6866  -0.6861  -0.6406  -0.6079  -0.5794
 -0.5547  -0.5346  -0.5104  -0.4867  -0.4818  -0.4636  -0.4631  -0.4491
 -0.4470  -0.4416  -0.4384  -0.4351  -0.4291  -0.4180  -0.4039  -0.4008
 -0.3895  -0.3828  -0.3797  -0.3725  -0.3720  -0.3658  -0.3605  -0.3544
 -0.3412  -0.3396  -0.3345  -0.3303  -0.2928  -0.2916  -0.2640  -0.2302

          Ground-State Mulliken Net Atomic Charges

     Atom                 Charge (a.u.)
  ----------------------------------------
      1 C                    -0.842645
      2 C                    -0.461193
      3 C                     1.249958
      4 C                    -0.477469
      5 C                    -0.289291
      6 C                     0.422649
      7 O                    -0.296621
      8 O                    -0.330390
      9 N                     0.007714
     10 C                    -0.113611
     11 C                    -0.527685
     12 C                    -0.449562
     13 C                    -0.449576
     14 C                     0.582423
     15 C                    -0.505101
     16 C                    -0.700082
     17 C                    -0.700307
     18 H                     0.253383
     19 H                     0.241120
     20 H                     0.386331
     21 H                     0.168572
     22 H                     0.168494
     23 H                     0.173467
     24 H                     0.173482
     25 H                     0.138143
     26 H                     0.180052
     27 H                     0.173513
     28 H                     0.179967
     29 H                     0.138161
     30 H                     0.148238
     31 H                     0.190932
     32 H                     0.148128
     33 H                     0.157237
     34 H                     0.171729
     35 H                     0.180414
     36 H                     0.157314
     37 H                     0.180379
     38 H                     0.171733
  ----------------------------------------
  Sum of atomic charges =     0.000000

                    Cartesian Multipole Moments
 -----------------------------------------------------------------
    Charge (ESU x 10^10)
                -0.0000
    Dipole Moment (Debye)
         X       3.3292      Y      -1.4443      Z       0.0001
       Tot       3.6290
    Quadrupole Moments (Debye-Ang)
        XX     -81.7010     XY       9.9375     YY    -122.1752
        XZ      -0.0000     YZ       0.0023     ZZ    -105.5146

 Total job time:  86.66s(wall), 658.31s(cpu)
        *  Thank you very much for using Q-Chem.  Have a nice day.  *
