 Gaussian 16, Revision A.03,
 Gaussian 16:  ES64L-G16RevA.03 25-Dec-2016

 --------------------------------------
 #P UB3LYP/6-311++G(d,p) nosym opt freq
 --------------------------------------

 --------
 Oxidized
 --------
 Symbolic Z-matrix:
 Charge =  0 Multiplicity = 1

 SCF Done:  E(UB3LYP) =  -751.544834635     A.U. after   16 cycles
 Optimization completed.
    -- Stationary point found.
 Normal termination of Gaussian 16 at Wed Jan 10 16:59:10 2024.

 ----------------------------------------------------------------------
 #P Geom=AllCheck Guess=TCheck SCRF=Check GenChk UB3LYP/6-311++G(d,p) F
 req
 ----------------------------------------------------------------------

 Structure from the checkpoint file:  "105.chk"
 --------
 Oxidized
 --------
 Charge =  0 Multiplicity = 1

                          Input orientation:
 ---------------------------------------------------------------------
 Center     Atomic      Atomic             Coordinates (Angstroms)
 Number     Number       Type             X           Y           Z
 ---------------------------------------------------------------------
      1          6           0       -0.937122   -1.586160    3.644110
      2          6           0        0.360883   -1.996668    3.100582
      3          6           0        0.914581   -1.454887    1.998753
      4          6           0        0.136212   -0.354559    1.288235
      5          6           0       -1.149228    0.059938    1.816900
      6          6           0       -1.705945   -0.492465    2.934017
      7          8           0       -1.404488   -2.104682    4.648345
      8          8           0        0.591390    0.177460    0.277325
      9          7           0       -2.879399   -0.214670    3.538899
     10          6           0       -3.926895    0.766852    3.187969
     11          6           0       -5.021642    0.610991    4.255538
     12          6           0       -4.522453    0.453239    1.801906
     13          6           0       -3.366801    2.201266    3.242015
     14          6           0        2.271149   -1.897635    1.447143
     15          6           0        2.894496   -3.015701    2.304129
     16          6           0        2.096512   -2.440221    0.005525
     17          6           0        3.250294   -0.695798    1.442407
     18          1           0        0.840599   -2.782429    3.669235
     19          1           0       -1.629527    0.844291    1.250610
     20          1           0       -3.037519   -0.787163    4.360889
     21          1           0       -4.627423    0.819170    5.254402
     22          1           0       -5.434794   -0.401793    4.248299
     23          1           0       -5.837842    1.309724    4.062596
     24          1           0       -4.934653   -0.558570    1.784231
     25          1           0       -3.780784    0.529460    1.006225
     26          1           0       -5.328195    1.156697    1.576593
     27          1           0       -2.968964    2.417906    4.236382
     28          1           0       -4.162746    2.918762    3.026352
     29          1           0       -2.568212    2.360819    2.516897
     30          1           0        3.076123   -2.692720    3.333057
     31          1           0        3.858337   -3.299214    1.874286
     32          1           0        2.269301   -3.912663    2.328506
     33          1           0        1.407468   -3.290129   -0.009222
     34          1           0        3.063946   -2.788248   -0.368634
     35          1           0        1.719459   -1.671502   -0.666254
     36          1           0        3.385026   -0.300112    2.453659
     37          1           0        2.894558    0.105042    0.797066
     38          1           0        4.227960   -1.028416    1.081046
 ---------------------------------------------------------------------

 SCF Done:  E(UB3LYP) =  -751.544834635     A.U. after    1 cycles

 Alpha  occ. eigenvalues --  -19.13775 -19.10783 -14.35187 -10.28289 -10.26244
 Alpha  occ. eigenvalues --  -10.24499 -10.24398 -10.21339 -10.20087 -10.19398
 Alpha  occ. eigenvalues --  -10.18170 -10.17528 -10.17527 -10.17382 -10.16445
 Alpha  occ. eigenvalues --  -10.15683 -10.15683  -1.07124  -1.03972  -0.96508
 Alpha  occ. eigenvalues --   -0.85876  -0.83212  -0.80358  -0.75593  -0.71223
 Alpha  occ. eigenvalues --   -0.70860  -0.69678  -0.68827  -0.68674  -0.64306
 Alpha  occ. eigenvalues --   -0.60823  -0.58472  -0.55567  -0.53227  -0.51447
 Alpha  occ. eigenvalues --   -0.48634  -0.48460  -0.47253  -0.46452  -0.45163
 Alpha  occ. eigenvalues --   -0.45080  -0.44061  -0.43830  -0.43487  -0.43301
 Alpha  occ. eigenvalues --   -0.41573  -0.41123  -0.40605  -0.40337  -0.38803
 Alpha  occ. eigenvalues --   -0.38458  -0.38269  -0.37743  -0.37174  -0.36623
 Alpha  occ. eigenvalues --   -0.35471  -0.35423  -0.34207  -0.33542  -0.33460
 Alpha  occ. eigenvalues --   -0.29010  -0.28502  -0.25561  -0.23078
 Alpha virt. eigenvalues --   -0.11632  -0.01686  -0.00896  -0.00550   0.00790
 Alpha virt. eigenvalues --    0.01007   0.01219   0.01247   0.01776   0.02245
 Alpha virt. eigenvalues --    0.02606   0.03089   0.03113   0.03646   0.04381

  Beta  occ. eigenvalues --  -19.13775 -19.10783 -14.35187 -10.28289 -10.26244
  Beta  occ. eigenvalues --  -10.24499 -10.24398 -10.21339 -10.20087 -10.19398
  Beta  occ. eigenvalues --  -10.18170 -10.17528 -10.17527 -10.17382 -10.16445
  Beta  occ. eigenvalues --  -10.15683 -10.15683  -1.07124  -1.03972  -0.96508
  Beta  occ. eigenvalues --   -0.85876  -0.83212  -0.80358  -0.75593  -0.71223
  Beta  occ. eigenvalues --   -0.70860  -0.69678  -0.68827  -0.68674  -0.64306
  Beta  occ. eigenvalues --   -0.60823  -0.58472  -0.55567  -0.53227  -0.51447
  Beta  occ. eigenvalues --   -0.48634  -0.48460  -0.47253  -0.46452  -0.45163
  Beta  occ. eigenvalues --   -0.45080  -0.44061  -0.43830  -0.43487  -0.43301
  Beta  occ. eigenvalues --   -0.41573  -0.41123  -0.40605  -0.40337  -0.38803
  Beta  occ. eigenvalues --   -0.38458  -0.38269  -0.37743  -0.37174  -0.36623
  Beta  occ. eigenvalues --   -0.35471  -0.35423  -0.34207  -0.33542  -0.33460
  Beta  occ. eigenvalues --   -0.29010  -0.28502  -0.25561  -0.23078
  Beta virt. eigenvalues --   -0.11632  -0.01686  -0.00896  -0.00550   0.00790
  Beta virt. eigenvalues --    0.01007   0.01219   0.01247   0.01776   0.02245
  Beta virt. eigenvalues --    0.02606   0.03089   0.03113   0.03646   0.04381

 Mulliken charges and spin densities:
               1          2
     1  C   -0.931369   0.000000
     2  C   -0.437851   0.000000
     3  C    1.254434  -0.000000
     4  C   -0.553779  -0.000000
     5  C   -0.249781   0.000000
     6  C    0.463260  -0.000000
     7  O   -0.224816  -0.000000
     8  O   -0.228203  -0.000000
     9  N    0.001785   0.000000
    10  C   -0.206366  -0.000000
    11  C   -0.469310  -0.000000
    12  C   -0.384739   0.000000
    13  C   -0.384695   0.000000
    14  C    0.542646  -0.000000
    15  C   -0.465701   0.000000
    16  C   -0.651460  -0.000000
    17  C   -0.651327   0.000000
    18  H    0.226254  -0.000000
    19  H    0.221169  -0.000000
    20  H    0.359940  -0.000000
    21  H    0.155275   0.000000
    22  H    0.155327   0.000000
    23  H    0.154161   0.000000
    24  H    0.160065   0.000000
    25  H    0.129358  -0.000000
    26  H    0.159245  -0.000000
    27  H    0.160004   0.000000
    28  H    0.159199  -0.000000
    29  H    0.129323  -0.000000
    30  H    0.132068  -0.000000
    31  H    0.174581  -0.000000
    32  H    0.132041  -0.000000
    33  H    0.137942   0.000000
    34  H    0.151580  -0.000000
    35  H    0.195113  -0.000000
    36  H    0.137912   0.000000
    37  H    0.195138  -0.000000
    38  H    0.151577  -0.000000
 Sum of Mulliken charges =  -0.00000   0.00000

 Dipole moment (field-independent basis, Debye):
    X=             -2.2454    Y=              0.5151    Z=              1.1767  Tot=              2.5868
 Quadrupole moment (field-independent basis, Debye-Ang):
   XX=            -88.3234   YY=           -106.2453   ZZ=           -110.0044
   XY=             -8.8345   XZ=             -5.5650   YZ=              7.9931

  Exact polarizability: 225.338 -22.631 159.101 -45.108 -11.185 184.692
 Approx polarizability: 299.960   9.857 237.767 -91.949 -53.373 338.868

                      1                      2                      3
                      A                      A                      A
 Frequencies --     30.3685                49.0524                64.2933
 Red. masses --      4.1220                 2.8737                 4.2974
 Frc consts  --      0.0022                 0.0041                 0.0105
 IR Inten    --      2.3671                 0.0059                 0.1018

                      4                      5                      6
                      A                      A                      A
 Frequencies --     83.6582               103.0453               143.2018
 Red. masses --      3.9345                 3.8051                 3.9969
 Frc consts  --      0.0162                 0.0238                 0.0483
 IR Inten    --      0.5638                 0.4209                 3.9465

                      7                      8                      9
                      A                      A                      A
 Frequencies --    168.5780               202.0253               203.8845
 Red. masses --      1.9956                 3.0964                 1.5124
 Frc consts  --      0.0334                 0.0745                 0.0370
 IR Inten    --      0.2542                 1.7661                 0.0557

                     10                     11                     12
                      A                      A                      A
 Frequencies --    212.5177               217.7041               235.1343
 Red. masses --      1.2574                 2.9862                 1.3513
 Frc consts  --      0.0335                 0.0834                 0.0440
 IR Inten    --      0.3726                 0.2525                 0.2601

                     13                     14                     15
                      A                      A                      A
 Frequencies --    254.2829               273.3961               275.5852
 Red. masses --      1.0863                 1.3844                 1.5491
 Frc consts  --      0.0414                 0.0610                 0.0693
 IR Inten    --      0.2809                 0.0001                 0.0758

                     16                     17                     18
                      A                      A                      A
 Frequencies --    280.1232               301.8832               328.7331
 Red. masses --      2.6766                 2.6994                 1.0585
 Frc consts  --      0.1237                 0.1449                 0.0674
 IR Inten    --      0.7277                 0.3707                 0.0457

                     19                     20                     21
                      A                      A                      A
 Frequencies --    336.9180               346.3971               380.4277
 Red. masses --      3.8002                 2.5294                 2.2427
 Frc consts  --      0.2542                 0.1788                 0.1912
 IR Inten    --     10.8488                 0.2331                 0.2129

                     22                     23                     24
                      A                      A                      A
 Frequencies --    389.0481               412.3403               436.8387
 Red. masses --      2.6128                 2.6549                 2.9355
 Frc consts  --      0.2330                 0.2660                 0.3300
 IR Inten    --      0.0071                 0.6458                 0.2284

                     25                     26                     27
                      A                      A                      A
 Frequencies --    450.4284               468.0031               481.8008
 Red. masses --      3.7328                 4.5974                 3.1564
 Frc consts  --      0.4462                 0.5933                 0.4317
 IR Inten    --      4.2143                26.7076                 2.4934

                     28                     29                     30
                      A                      A                      A
 Frequencies --    489.5463               527.4743               566.2926
 Red. masses --      3.7751                 4.7095                 4.2721
 Frc consts  --      0.5330                 0.7720                 0.8072
 IR Inten    --      3.1126                16.3282                 2.4001

                     31                     32                     33
                      A                      A                      A
 Frequencies --    588.8285               620.4379               652.1582
 Red. masses --      1.1135                 4.6002                 5.1032
 Frc consts  --      0.2275                 1.0433                 1.2788
 IR Inten    --     37.8587                 4.7826                 0.6092

                     34                     35                     36
                      A                      A                      A
 Frequencies --    740.9439               757.5122               770.5317
 Red. masses --      5.6062                 6.3444                 3.6772
 Frc consts  --      1.8134                 2.1450                 1.2863
 IR Inten    --      0.3254                 1.1248                 0.3552

                     37                     38                     39
                      A                      A                      A
 Frequencies --    785.0937               806.8300               842.9361
 Red. masses --      3.0070                 3.3393                 1.6988
 Frc consts  --      1.0920                 1.2808                 0.7112
 IR Inten    --      0.0147                 0.2573                21.8927

                     40                     41                     42
                      A                      A                      A
 Frequencies --    867.9091               914.0088               919.6147
 Red. masses --      2.8977                 1.6397                 1.7480
 Frc consts  --      1.2860                 0.8071                 0.8710
 IR Inten    --     43.4881                20.6824                 0.3059

                     43                     44                     45
                      A                      A                      A
 Frequencies --    927.0039               933.9650               936.9677
 Red. masses --      1.8746                 1.6608                 1.7673
 Frc consts  --      0.9491                 0.8535                 0.9141
 IR Inten    --      0.9294                 6.6109                 1.8491

                     46                     47                     48
                      A                      A                      A
 Frequencies --    944.3466               965.5499               965.6227
 Red. masses --      2.2451                 1.1975                 1.2006
 Frc consts  --      1.1797                 0.6578                 0.6596
 IR Inten    --      2.0190                 0.0245                 0.1476

                     49                     50                     51
                      A                      A                      A
 Frequencies --   1029.1925              1047.6015              1048.3104
 Red. masses --      2.1411                 1.3827                 1.3936
 Frc consts  --      1.3362                 0.8940                 0.9023
 IR Inten    --     52.3148                 0.1656                 0.9514

                     52                     53                     54
                      A                      A                      A
 Frequencies --   1054.9875              1062.5057              1200.9057
 Red. masses --      1.4979                 1.6254                 2.7558
 Frc consts  --      0.9823                 1.0811                 2.3417
 IR Inten    --      8.0544                 5.0818                77.3219

                     55                     56                     57
                      A                      A                      A
 Frequencies --   1213.5831              1222.9623              1230.8761
 Red. masses --      2.6514                 1.8629                 2.5102
 Frc consts  --      2.3007                 1.6416                 2.2407
 IR Inten    --      2.0197                51.6798                91.8663

                     58                     59                     60
                      A                      A                      A
 Frequencies --   1240.9724              1248.4003              1262.6062
 Red. masses --      2.7562                 2.3745                 3.7288
 Frc consts  --      2.5009                 2.1804                 3.5024
 IR Inten    --     10.9115                 6.3852               209.1005

                     61                     62                     63
                      A                      A                      A
 Frequencies --   1274.5909              1324.9146              1343.2935
 Red. masses --      2.3402                 2.8959                 2.0559
 Frc consts  --      2.2399                 2.9950                 2.1857
 IR Inten    --      2.1448                16.3264                70.5092

                     64                     65                     66
                      A                      A                      A
 Frequencies --   1362.8102              1389.4685              1396.6199
 Red. masses --      3.1076                 1.1943                 1.2402
 Frc consts  --      3.4005                 1.3585                 1.4252
 IR Inten    --     32.5179                 9.0072                15.2570

                     67                     68                     69
                      A                      A                      A
 Frequencies --   1402.7868              1404.1098              1425.7145
 Red. masses --      1.2406                 1.2254                 1.2205
 Frc consts  --      1.4383                 1.4234                 1.4617
 IR Inten    --     15.3017                13.6998                14.7692

                     70                     71                     72
                      A                      A                      A
 Frequencies --   1432.7086              1478.1052              1479.2623
 Red. masses --      1.2267                 1.0473                 1.0459
 Frc consts  --      1.4835                 1.3481                 1.3484
 IR Inten    --     19.5477                 0.2835                 0.0012

                     73                     74                     75
                      A                      A                      A
 Frequencies --   1489.4300              1489.7720              1495.9903
 Red. masses --      1.0476                 1.0440                 1.0499
 Frc consts  --      1.3692                 1.3651                 1.3844
 IR Inten    --      5.9466                 0.0555                 4.2343

                     76                     77                     78
                      A                      A                      A
 Frequencies --   1499.4563              1500.4850              1501.1153
 Red. masses --      1.0451                 1.0671                 1.0546
 Frc consts  --      1.3844                 1.4155                 1.4001
 IR Inten    --      0.4763                25.5628                22.9069

                     79                     80                     81
                      A                      A                      A
 Frequencies --   1506.0141              1512.3234              1520.3946
 Red. masses --      1.0534                 1.0488                 1.0627
 Frc consts  --      1.4077                 1.4133                 1.4473
 IR Inten    --      5.2201                 7.7127                 8.2414

                     82                     83                     84
                      A                      A                      A
 Frequencies --   1530.2411              1559.9151              1632.2256
 Red. masses --      1.0606                 1.6576                 7.6882
 Frc consts  --      1.4632                 2.3764                12.0680
 IR Inten    --     26.8957               260.0180               584.6428

                     85                     86                     87
                      A                      A                      A
 Frequencies --   1666.1574              1673.6989              1716.3436
 Red. masses --      8.8540                 9.3477                10.2616
 Frc consts  --     14.4817                15.4280                17.8103
 IR Inten    --     69.4106               193.0676               216.8442

                     88                     89                     90
                      A                      A                      A
 Frequencies --   3021.7444              3023.1995              3026.2197
 Red. masses --      1.0359                 1.0384                 1.0358
 Frc consts  --      5.5732                 5.5916                 5.5887
 IR Inten    --     14.7466                38.9596                16.8004

                     91                     92                     93
                      A                      A                      A
 Frequencies --   3029.2682              3035.1921              3041.0176
 Red. masses --      1.0385                 1.0363                 1.0373
 Frc consts  --      5.6150                 5.6248                 5.6519
 IR Inten    --     38.9101                21.9292                15.6258

                     94                     95                     96
                      A                      A                      A
 Frequencies --   3078.9907              3080.6420              3088.9633
 Red. masses --      1.1021                 1.1015                 1.1022
 Frc consts  --      6.1561                 6.1593                 6.1963
 IR Inten    --      8.5835                24.3131                33.3322

                     97                     98                     99
                      A                      A                      A
 Frequencies --   3089.9629              3093.4740              3098.6979
 Red. masses --      1.1030                 1.1006                 1.1023
 Frc consts  --      6.2046                 6.2054                 6.2359
 IR Inten    --     15.1234                57.9309                19.8374

                    100                    101                    102
                      A                      A                      A
 Frequencies --   3100.2041              3110.5434              3118.7659
 Red. masses --      1.1022                 1.1007                 1.1002
 Frc consts  --      6.2414                 6.2749                 6.3051
 IR Inten    --     12.2501                42.6978                 2.0568

                    103                    104                    105
                      A                      A                      A
 Frequencies --   3121.4099              3139.5327              3142.0601
 Red. masses --      1.0997                 1.0981                 1.0974
 Frc consts  --      6.3128                 6.3769                 6.3834
 IR Inten    --     34.9161                 0.0092                10.3748

                    106                    107                    108
                      A                      A                      A
 Frequencies --   3202.9463              3218.8091              3539.6527
 Red. masses --      1.0901                 1.0899                 1.0758
 Frc consts  --      6.5891                 6.6530                 7.9412
 IR Inten    --      1.9444                 7.6372                68.4886

 - Thermochemistry -
 -------------------
 Temperature   298.150 Kelvin.  Pressure   1.00000 Atm.
 Atom     1 has atomic number  6 and mass  12.00000

 Molecular mass:   235.15723 amu.
 Principal axes and moments of inertia in atomic units:
                           1         2         3
     Eigenvalues --  1797.921097445.050848434.98063
           X            0.89068  -0.00600   0.45459
           Y           -0.35510  -0.63357   0.68738
           Z           -0.28389   0.77366   0.56644
 This molecule is an asymmetric top.
 Rotational symmetry number  1.
 Warning -- assumption of classical behavior for rotation
           may cause significant error
 Rotational temperatures (Kelvin)      0.04817     0.01163     0.01027
 Rotational constants (GHZ):           1.00379     0.24241     0.21396
 Zero-point vibrational energy     854883.7 (Joules/Mol)
                                  204.32210 (Kcal/Mol)
 Warning -- explicit consideration of  32 degrees of freedom as
           vibrations may cause significant error
 Vibrational temperatures:     43.69    70.58    92.50   120.37   148.26
          (Kelvin)            206.04   242.55   290.67   293.34   305.77
                              313.23   338.31   365.86   393.36   396.51
                              403.03   434.34   472.97   484.75   498.39
                              547.35   559.75   593.27   628.51   648.07
                              673.35   693.20   704.35   758.92   814.77
                              847.19   892.67   938.31  1066.05  1089.89
                             1108.62  1129.57  1160.85  1212.80  1248.73
                             1315.05  1323.12  1333.75  1343.77  1348.09
                             1358.70  1389.21  1389.32  1480.78  1507.26
                             1508.28  1517.89  1528.71  1727.84  1746.08
                             1759.57  1770.96  1785.48  1796.17  1816.61
                             1833.85  1906.26  1932.70  1960.78  1999.14
                             2009.42  2018.30  2020.20  2051.29  2061.35
                             2126.66  2128.33  2142.96  2143.45  2152.40
                             2157.38  2158.86  2159.77  2166.82  2175.90
                             2187.51  2201.68  2244.37  2348.41  2397.23
                             2408.08  2469.44  4347.62  4349.71  4354.06
                             4358.44  4366.96  4375.35  4429.98  4432.36
                             4444.33  4445.77  4450.82  4458.34  4460.50
                             4475.38  4487.21  4491.01  4517.09  4520.72
                             4608.33  4631.15  5092.77

 Zero-point correction=                           0.325608 (Hartree/Particle)
 Thermal correction to Energy=                    0.344180
 Thermal correction to Enthalpy=                  0.345124
 Thermal correction to Gibbs Free Energy=         0.280124
 Sum of electronic and zero-point Energies=           -751.219227
 Sum of electronic and thermal Energies=              -751.200655
 Sum of electronic and thermal Enthalpies=            -751.199711
 Sum of electronic and thermal Free Energies=         -751.264711

                     E (Thermal)             CV                S
                      KCal/Mol        Cal/Mol-Kelvin    Cal/Mol-Kelvin
 Total                  215.976             71.856            136.804
 Electronic               0.000              0.000              0.000
 Translational            0.889              2.981             42.267
 Rotational               0.889              2.981             33.090
 Vibrational            214.199             65.894             61.447
 Vibration     1          0.594              1.984              5.805
 Vibration     2          0.595              1.978              4.855
 Vibration     3          0.597              1.971              4.321
 Vibration     4          0.601              1.960              3.803
 Vibration     5          0.605              1.947              3.396
 Vibration     6          0.616              1.910              2.761
 Vibration     7          0.625              1.881              2.451
 Vibration     8          0.639              1.837              2.115
 Vibration     9          0.640              1.834              2.098
 Vibration    10          0.644              1.822              2.022
 Vibration    11          0.646              1.814              1.978
 Vibration    12          0.655              1.787              1.839
 Vibration    13          0.665              1.756              1.701
 Vibration    14          0.676              1.722              1.575
 Vibration    15          0.677              1.719              1.561
 Vibration    16          0.680              1.710              1.533
 Vibration    17          0.694              1.670              1.406
 Vibration    18          0.712              1.618              1.266
 Vibration    19          0.718              1.602              1.227
 Vibration    20          0.724              1.583              1.183
 Vibration    21          0.750              1.512              1.037
 Vibration    22          0.757              1.494              1.004
 Vibration    23          0.776              1.443              0.918
 Vibration    24          0.797              1.390              0.837
 Vibration    25          0.809              1.360              0.794
 Vibration    26          0.825              1.321              0.743
 Vibration    27          0.838              1.290              0.705
 Vibration    28          0.845              1.273              0.685
 Vibration    29          0.882              1.189              0.593
 Vibration    30          0.922              1.104              0.511
 Vibration    31          0.946              1.056              0.469
 Vibration    32          0.980              0.989              0.416

 Optimization completed.
    -- Stationary point found.
 Normal termination of Gaussian 16 at Wed Jan 10 19:13:20 2024.
