 Gaussian 16, Revision A.03,
 Gaussian 16:  ES64L-G16RevA.03 25-Dec-2016

 ----------------------------------------------------------------------
 #P UB3LYP/6-311++G(d,p) nosym opt freq SCRF=(PCM,Solvent=n,n-DiMethylF
 ormamide)
 ----------------------------------------------------------------------

 -------
 Radical
 -------
 Symbolic Z-matrix:
 Charge = -2 Multiplicity = 2

 SCF Done:  E(UB3LYP) =  -1312.56216162     A.U. after   20 cycles
 SCF Done:  E(UB3LYP) =  -1312.56289760     A.U. after   16 cycles
 SCF Done:  E(UB3LYP) =  -1312.56303428     A.U. after   15 cycles
 SCF Done:  E(UB3LYP) =  -1312.56305466     A.U. after   14 cycles
 SCF Done:  E(UB3LYP) =  -1312.56305441     A.U. after   14 cycles
 SCF Done:  E(UB3LYP) =  -1312.56306276     A.U. after   12 cycles
 SCF Done:  E(UB3LYP) =  -1312.56306391     A.U. after   11 cycles
 SCF Done:  E(UB3LYP) =  -1312.56306403     A.U. after   10 cycles
 SCF Done:  E(UB3LYP) =  -1312.56306403     A.U. after   10 cycles
 Optimization completed.
    -- Stationary point found.
 Normal termination of Gaussian 16 at Sat Feb 10 23:56:10 2024.

 ----------------------------------------------------------------------
 #P Geom=AllCheck Guess=TCheck SCRF=Check GenChk UB3LYP/6-311++G(d,p) F
 req
 ----------------------------------------------------------------------

 Structure from the checkpoint file:  "223-rad.chk"
 -------
 Radical
 -------
 Charge = -2 Multiplicity = 2

                          Input orientation:
 ---------------------------------------------------------------------
 Center     Atomic      Atomic             Coordinates (Angstroms)
 Number     Number       Type             X           Y           Z
 ---------------------------------------------------------------------
      1          6           0        2.745471    0.562017    0.230104
      2          6           0        2.703173   -0.615289    1.013318
      3          6           0        1.505973   -1.275249    1.177213
      4          6           0       -0.931951   -1.539073    0.779752
      5          8           0       -0.978529   -2.589787    1.479875
      6          6           0       -2.123815   -0.996235    0.128964
      7          6           0       -3.362764   -1.659650    0.280555
      8          6           0       -4.511123   -1.179523   -0.317163
      9          6           0       -4.460226   -0.004746   -1.097174
     10          6           0       -3.261593    0.661022   -1.260649
     11          6           0       -2.072482    0.190067   -0.659371
     12          6           0       -0.824366    0.926591   -0.859302
     13          8           0       -0.778678    1.977064   -1.556756
     14          6           0        0.364787    0.381427   -0.209748
     15          6           0        1.602785    1.046641   -0.365927
     16          1           0        3.605213   -0.990702    1.481645
     17          1           0        1.454008   -2.177102    1.774843
     18          1           0       -3.385761   -2.560351    0.881876
     19          1           0       -5.452136   -1.703332   -0.188362
     20          1           0       -5.361928    0.372952   -1.566942
     21          1           0       -3.205653    1.563764   -1.856770
     22          1           0        1.636461    1.947470   -0.963274
     23          6           0        0.312478   -0.805194    0.578429
     24         16           0        4.327442    1.410779    0.013580
     25          8           0        5.215175    0.442300   -0.698636
     26          8           0        4.042852    2.634553   -0.788069
     27          8           0        4.815271    1.717303    1.392000
 ---------------------------------------------------------------------

 SCF Done:  E(UB3LYP) =  -1312.56306403     A.U. after    1 cycles

 Alpha  occ. eigenvalues --  -89.03819 -19.08362 -19.08264 -19.08262 -19.07624
 Alpha  occ. eigenvalues --  -19.07556 -10.22533 -10.22404 -10.19337 -10.17830
 Alpha  occ. eigenvalues --  -10.17592 -10.17548 -10.17501 -10.17423 -10.17379
 Alpha  occ. eigenvalues --  -10.17307 -10.17303 -10.17253 -10.17037 -10.17021
 Alpha  occ. eigenvalues --   -8.09723  -6.06000  -6.05988  -6.05883  -1.10007
 Alpha  occ. eigenvalues --   -1.00099  -0.99802  -0.96408  -0.96124  -0.86499
 Alpha  occ. eigenvalues --   -0.85369  -0.79013  -0.75743  -0.75037  -0.74399
 Alpha  occ. eigenvalues --   -0.67350  -0.65141  -0.62618  -0.59568  -0.58037
 Alpha  occ. eigenvalues --   -0.55730  -0.53217  -0.51974  -0.48360  -0.47205
 Alpha  occ. eigenvalues --   -0.46605  -0.45794  -0.44607  -0.43966  -0.43038
 Alpha  occ. eigenvalues --   -0.42395  -0.42265  -0.41780  -0.41155  -0.40552
 Alpha  occ. eigenvalues --   -0.39076  -0.37960  -0.37129  -0.35677  -0.34842
 Alpha  occ. eigenvalues --   -0.34416  -0.33483  -0.32701  -0.32674  -0.29653
 Alpha  occ. eigenvalues --   -0.28832  -0.28605  -0.26598  -0.25972  -0.25619
 Alpha  occ. eigenvalues --   -0.24815  -0.24634  -0.24615  -0.23786  -0.14407
 Alpha virt. eigenvalues --   -0.05591  -0.02679  -0.00537  -0.00103   0.00772
 Alpha virt. eigenvalues --    0.01531   0.02399   0.02711   0.04217   0.04430
 Alpha virt. eigenvalues --    0.04494   0.04695   0.04813   0.05584   0.06336

  Beta  occ. eigenvalues --  -89.03820 -19.08359 -19.08259 -19.08259 -19.07070
  Beta  occ. eigenvalues --  -19.06985 -10.22369 -10.22228 -10.19279 -10.17772
  Beta  occ. eigenvalues --  -10.17587 -10.17474 -10.17409 -10.17354 -10.17309
  Beta  occ. eigenvalues --  -10.17309 -10.17262 -10.17209 -10.17035 -10.17014
  Beta  occ. eigenvalues --   -8.09724  -6.06001  -6.05989  -6.05885  -1.10001
  Beta  occ. eigenvalues --   -0.99126  -0.98790  -0.96402  -0.96116  -0.86242
  Beta  occ. eigenvalues --   -0.85245  -0.78613  -0.75531  -0.74856  -0.74217
  Beta  occ. eigenvalues --   -0.66690  -0.64910  -0.62394  -0.59458  -0.57939
  Beta  occ. eigenvalues --   -0.55485  -0.53028  -0.51844  -0.48193  -0.47027
  Beta  occ. eigenvalues --   -0.46447  -0.45685  -0.44572  -0.43938  -0.42997
  Beta  occ. eigenvalues --   -0.42350  -0.41592  -0.40998  -0.40690  -0.40290
  Beta  occ. eigenvalues --   -0.38857  -0.36798  -0.35603  -0.35573  -0.34757
  Beta  occ. eigenvalues --   -0.33417  -0.33325  -0.32663  -0.32622  -0.29218
  Beta  occ. eigenvalues --   -0.28814  -0.28566  -0.25655  -0.24795  -0.24720
  Beta  occ. eigenvalues --   -0.24587  -0.24116  -0.24064  -0.23268
  Beta virt. eigenvalues --   -0.08500  -0.04674  -0.01642  -0.00315  -0.00088
  Beta virt. eigenvalues --    0.00773   0.01540   0.02415   0.02707   0.04437
  Beta virt. eigenvalues --    0.04446   0.04702   0.04833   0.05060   0.05665

 Mulliken charges and spin densities:
               1          2
     1  C   -1.194566   0.023945
     2  C   -0.608929   0.049220
     3  C   -0.198350   0.024003
     4  C   -0.446017   0.101204
     5  O   -0.459074   0.212278
     6  C    0.343315   0.023425
     7  C    0.082310   0.030485
     8  C   -0.485793   0.030560
     9  C   -0.452663   0.036297
    10  C    0.061980   0.022536
    11  C    0.269923   0.029662
    12  C   -0.799782   0.091931
    13  O   -0.449384   0.205629
    14  C    0.613964   0.067557
    15  C    0.291076   0.009961
    16  H    0.218568  -0.003746
    17  H    0.165438  -0.001159
    18  H    0.165891  -0.001863
    19  H    0.181589  -0.002618
    20  H    0.182703  -0.002929
    21  H    0.163924  -0.001531
    22  H    0.209259  -0.000789
    23  C    0.550286   0.054185
    24  S    0.797556   0.002017
    25  O   -0.379300  -0.000219
    26  O   -0.434589   0.000461
    27  O   -0.389335  -0.000500
 Sum of Mulliken charges =  -2.00000   1.00000

 Dipole moment (field-independent basis, Debye):
    X=            -21.8952    Y=             -7.6705    Z=              0.5098  Tot=             23.2055
 Quadrupole moment (field-independent basis, Debye-Ang):
   XX=           -253.3950   YY=           -172.5600   ZZ=           -147.1224
   XY=            -42.7173   XZ=              3.3199   YZ=             12.9630

  Exact polarizability: 517.316  44.243 317.000  53.336 -92.356 239.832
 Approx polarizability: 511.103  32.830 375.731  53.321-116.490 282.989

                      1                      2                      3
                      A                      A                      A
 Frequencies --     32.5407                42.7547                76.7843
 Red. masses --      8.6109                12.2749                 8.2917
 Frc consts  --      0.0054                 0.0132                 0.0288
 IR Inten    --      0.3155                 1.6153                18.1002

                      4                      5                      6
                      A                      A                      A
 Frequencies --    106.5840               118.4086               144.2693
 Red. masses --      9.8798                 4.3882                 5.5356
 Frc consts  --      0.0661                 0.0362                 0.0679
 IR Inten    --      1.9627                 0.6804                 1.2156

                      7                      8                      9
                      A                      A                      A
 Frequencies --    168.3800               213.0164               229.9823
 Red. masses --      9.2477                12.5837                 6.4363
 Frc consts  --      0.1545                 0.3364                 0.2006
 IR Inten    --      2.7615                 2.8488                 0.2945

                     10                     11                     12
                      A                      A                      A
 Frequencies --    231.5247               290.2044               331.7166
 Red. masses --      7.6770                 8.4631                 7.2459
 Frc consts  --      0.2425                 0.4199                 0.4698
 IR Inten    --      9.8764                 1.8495                 0.5502

                     13                     14                     15
                      A                      A                      A
 Frequencies --    377.9793               379.6694               407.5647
 Red. masses --      8.3723                 9.5447                 7.6765
 Frc consts  --      0.7047                 0.8106                 0.7513
 IR Inten    --     14.2331                18.5972                14.4016

                     16                     17                     18
                      A                      A                      A
 Frequencies --    417.1076               436.0567               456.4904
 Red. masses --      3.4552                 6.4400                 8.5614
 Frc consts  --      0.3542                 0.7215                 1.0511
 IR Inten    --      2.1125                 0.3673                29.4657

                     19                     20                     21
                      A                      A                      A
 Frequencies --    463.4225               488.9151               497.7802
 Red. masses --      3.1711                 7.8064                11.4058
 Frc consts  --      0.4012                 1.0994                 1.6651
 IR Inten    --      0.5807                21.5585                20.8227

                     22                     23                     24
                      A                      A                      A
 Frequencies --    516.7811               554.5620               595.0032
 Red. masses --     13.9411                 6.1211                12.6645
 Frc consts  --      2.1936                 1.1091                 2.6417
 IR Inten    --     21.4066                44.6402               355.5244

                     25                     26                     27
                      A                      A                      A
 Frequencies --    635.1647               648.2318               655.3132
 Red. masses --      7.0451                 4.3541                 7.3043
 Frc consts  --      1.6746                 1.0780                 1.8481
 IR Inten    --     14.9362                28.3713                67.7628

                     28                     29                     30
                      A                      A                      A
 Frequencies --    694.8409               704.2117               710.7005
 Red. masses --      6.5503                 2.5855                 7.9927
 Frc consts  --      1.8633                 0.7554                 2.3786
 IR Inten    --      2.4025               104.5219                27.9937

                     31                     32                     33
                      A                      A                      A
 Frequencies --    726.5717               786.8714               798.6247
 Red. masses --      4.8728                 1.6070                 3.4226
 Frc consts  --      1.5156                 0.5863                 1.2861
 IR Inten    --      0.2750                21.3514                 5.9525

                     34                     35                     36
                      A                      A                      A
 Frequencies --    827.7751               830.1998               886.1160
 Red. masses --      6.7018                 1.7698                 1.4859
 Frc consts  --      2.7056                 0.7187                 0.6874
 IR Inten    --      0.2986                36.2163                 0.0363

                     37                     38                     39
                      A                      A                      A
 Frequencies --    931.3871               933.3214               948.8820
 Red. masses --      6.5503                 1.3844                 9.6534
 Frc consts  --      3.3479                 0.7105                 5.1210
 IR Inten    --     94.7274                11.5040               132.3511

                     40                     41                     42
                      A                      A                      A
 Frequencies --    985.0401               986.7375               989.6116
 Red. masses --      1.3151                 7.1122                 1.3710
 Frc consts  --      0.7518                 4.0800                 0.7911
 IR Inten    --      1.9174               312.1259                 4.8807

                     43                     44                     45
                      A                      A                      A
 Frequencies --   1002.3623              1040.1000              1073.1687
 Red. masses --      1.2907                 1.9952                 2.1634
 Frc consts  --      0.7641                 1.2717                 1.4680
 IR Inten    --      0.1187                23.2743               222.9111

                     46                     47                     48
                      A                      A                      A
 Frequencies --   1100.5977              1112.3094              1116.4551
 Red. masses --     20.2790                 2.1542                 8.9219
 Frc consts  --     14.4729                 1.5703                 6.5523
 IR Inten    --    592.7694                23.9602               556.6848

                     49                     50                     51
                      A                      A                      A
 Frequencies --   1132.7929              1152.5814              1182.8465
 Red. masses --      2.1191                 1.3815                 3.7770
 Frc consts  --      1.6022                 1.0813                 3.1135
 IR Inten    --     26.6715                12.7194                26.6666

                     52                     53                     54
                      A                      A                      A
 Frequencies --   1193.2852              1217.0990              1227.3418
 Red. masses --      2.0332                 1.6131                 2.6636
 Frc consts  --      1.7058                 1.4079                 2.3641
 IR Inten    --      3.1413                 0.1942                30.9630

                     55                     56                     57
                      A                      A                      A
 Frequencies --   1255.4775              1329.3043              1358.0928
 Red. masses --      1.9284                 2.3319                10.6380
 Frc consts  --      1.7908                 2.4278                11.5603
 IR Inten    --    294.3129                85.4431                 7.1336

                     58                     59                     60
                      A                      A                      A
 Frequencies --   1364.8624              1401.0306              1455.3793
 Red. masses --      9.8132                 3.1904                 2.9776
 Frc consts  --     10.7705                 3.6896                 3.7160
 IR Inten    --     33.1197               932.5986               435.6677

                     61                     62                     63
                      A                      A                      A
 Frequencies --   1473.6998              1487.1574              1498.7255
 Red. masses --      3.3185                 3.2982                 4.0310
 Frc consts  --      4.2463                 4.2977                 5.3346
 IR Inten    --    239.7624                44.4104               900.4206

                     64                     65                     66
                      A                      A                      A
 Frequencies --   1521.2387              1553.7000              1606.0703
 Red. masses --      6.5868                 5.6915                 8.6710
 Frc consts  --      8.9809                 8.0949                13.1780
 IR Inten    --     60.6893               103.1546                 4.1646

                     67                     68                     69
                      A                      A                      A
 Frequencies --   1615.8806              1629.5472              3159.8184
 Red. masses --      6.2057                 6.0856                 1.0860
 Frc consts  --      9.5469                 9.5211                 6.3888
 IR Inten    --      3.3294                 5.6860                12.7339

                     70                     71                     72
                      A                      A                      A
 Frequencies --   3173.6525              3179.7913              3188.9346
 Red. masses --      1.0902                 1.0870                 1.0924
 Frc consts  --      6.4696                 6.4756                 6.5451
 IR Inten    --     20.7686                 1.6301                18.6730

                     73                     74                     75
                      A                      A                      A
 Frequencies --   3193.0715              3195.6402              3212.6501
 Red. masses --      1.0943                 1.0940                 1.0894
 Frc consts  --      6.5736                 6.5825                 6.6249
 IR Inten    --     47.9997                15.3438                 4.5278

 - Thermochemistry -
 -------------------
 Temperature   298.150 Kelvin.  Pressure   1.00000 Atm.
 Atom     1 has atomic number  6 and mass  12.00000

 Molecular mass:   287.00142 amu.
 Principal axes and moments of inertia in atomic units:
                           1         2         3
     Eigenvalues --  2163.69031********************
           X            0.96513  -0.17886  -0.19113
           Y            0.25624   0.79478   0.55014
           Z            0.05350  -0.57994   0.81290
 This molecule is an asymmetric top.
 Rotational symmetry number  1.
 Warning -- assumption of classical behavior for rotation
           may cause significant error
 Rotational temperatures (Kelvin)      0.04003     0.00802     0.00687
 Rotational constants (GHZ):           0.83410     0.16713     0.14311
 Zero-point vibrational energy     470501.8 (Joules/Mol)
                                  112.45264 (Kcal/Mol)
 Warning -- explicit consideration of  24 degrees of freedom as
           vibrations may cause significant error
 Vibrational temperatures:     46.82    61.51   110.48   153.35   170.36
          (Kelvin)            207.57   242.26   306.48   330.89   333.11
                              417.54   477.27   543.83   546.26   586.39
                              600.12   627.39   656.79   666.76   703.44
                              716.19   743.53   797.89   856.08   913.86
                              932.66   942.85   999.72  1013.20  1022.54
                             1045.37  1132.13  1149.04  1190.98  1194.47
                             1274.92  1340.06  1342.84  1365.23  1417.25
                             1419.70  1423.83  1442.18  1496.47  1544.05
                             1583.51  1600.37  1606.33  1629.84  1658.31
                             1701.85  1716.87  1751.13  1765.87  1806.35
                             1912.57  1953.99  1963.73  2015.77  2093.97
                             2120.33  2139.69  2156.33  2188.72  2235.43
                             2310.78  2324.89  2344.55  4546.27  4566.18
                             4575.01  4588.17  4594.12  4597.81  4622.29

 Zero-point correction=                           0.179205 (Hartree/Particle)
 Thermal correction to Energy=                    0.194497
 Thermal correction to Enthalpy=                  0.195441
 Thermal correction to Gibbs Free Energy=         0.134974
 Sum of electronic and zero-point Energies=          -1312.383859
 Sum of electronic and thermal Energies=             -1312.368567
 Sum of electronic and thermal Enthalpies=           -1312.367623
 Sum of electronic and thermal Free Energies=        -1312.428090

                     E (Thermal)             CV                S
                      KCal/Mol        Cal/Mol-Kelvin    Cal/Mol-Kelvin
 Total                  122.048             60.190            127.263
 Electronic               0.000              0.000              1.377
 Translational            0.889              2.981             42.861
 Rotational               0.889              2.981             34.043
 Vibrational            120.271             54.228             48.981
 Vibration     1          0.594              1.983              5.668
 Vibration     2          0.595              1.980              5.127
 Vibration     3          0.599              1.965              3.971
 Vibration     4          0.605              1.944              3.330
 Vibration     5          0.609              1.934              3.126
 Vibration     6          0.616              1.909              2.746
 Vibration     7          0.625              1.881              2.453
 Vibration     8          0.644              1.821              2.018
 Vibration     9          0.652              1.795              1.879
 Vibration    10          0.653              1.793              1.867
 Vibration    11          0.686              1.692              1.473
 Vibration    12          0.714              1.612              1.252
 Vibration    13          0.748              1.517              1.047
 Vibration    14          0.750              1.514              1.040
 Vibration    15          0.772              1.454              0.935
 Vibration    16          0.780              1.433              0.902
 Vibration    17          0.797              1.392              0.839
 Vibration    18          0.815              1.347              0.776
 Vibration    19          0.821              1.331              0.756
 Vibration    20          0.845              1.275              0.686
 Vibration    21          0.853              1.255              0.664
 Vibration    22          0.872              1.213              0.617
 Vibration    23          0.910              1.130              0.535
 Vibration    24          0.953              1.042              0.458

                           ! Non-Optimized Parameters !
 Normal termination of Gaussian 16 at Sun Feb 11 00:59:08 2024.
