 Gaussian 16, Revision A.03,
 Gaussian 16:  ES64L-G16RevA.03 25-Dec-2016

 --------------------------------------
 #P UB3LYP/6-311++G(d,p) nosym opt freq
 --------------------------------------

 -------
 Reduced
 -------
 Symbolic Z-matrix:
 Charge = -2 Multiplicity = 1

 SCF Done:  E(UB3LYP) =  -1148.56347105     A.U. after   22 cycles
 SCF Done:  E(UB3LYP) =  -1148.56347098     A.U. after   12 cycles
 SCF Done:  E(UB3LYP) =  -1148.56347155     A.U. after   11 cycles
 Optimization completed.
    -- Stationary point found.
 Normal termination of Gaussian 16 at Wed Dec 27 19:58:47 2023.

 ----------------------------------------------------------------------
 #P Geom=AllCheck Guess=TCheck SCRF=Check GenChk UB3LYP/6-311++G(d,p) F
 req
 ----------------------------------------------------------------------

 Structure from the checkpoint file:  "118-an.chk"
 -------
 Reduced
 -------
 Charge = -2 Multiplicity = 1

                          Input orientation:
 ---------------------------------------------------------------------
 Center     Atomic      Atomic             Coordinates (Angstroms)
 Number     Number       Type             X           Y           Z
 ---------------------------------------------------------------------
      1         17           0        5.211469   -1.493705   -0.003466
      2          6           0        3.614434   -0.647376   -0.148237
      3          6           0        3.634856    0.732683   -0.482667
      4          6           0        2.419313    1.377610   -0.593032
      5          6           0        1.177427    0.727540   -0.389335
      6          6           0       -0.044741    1.485055   -0.526686
      7          8           0       -0.063102    2.737011   -0.828605
      8          6           0       -1.248439    0.714372   -0.295438
      9          6           0       -2.510054    1.355102   -0.403139
     10          6           0       -3.699795    0.687721   -0.197488
     11          6           0       -3.678538   -0.697483    0.136503
     12          6           0       -2.470192   -1.352451    0.249707
     13          6           0       -1.226378   -0.698224    0.045135
     14          6           0       -0.002137   -1.458425    0.183155
     15          8           0        0.014313   -2.711633    0.485467
     16          6           0        1.194454   -0.689061   -0.047550
     17          6           0        2.456340   -1.340004    0.062552
     18          1           0        4.574842    1.249148   -0.642809
     19          1           0        2.373610    2.432678   -0.846485
     20          1           0       -2.490331    2.410419   -0.658879
     21          1           0       -4.649081    1.213601   -0.289119
     22          1           0       -4.612060   -1.233918    0.301040
     23          1           0       -2.419259   -2.407275    0.502836
     24          1           0        2.443050   -2.393384    0.317677
 ---------------------------------------------------------------------

 SCF Done:  E(UB3LYP) =  -1148.56347155     A.U. after    2 cycles

 Alpha  occ. eigenvalues -- -101.33139 -18.77677 -18.77360  -9.98633  -9.93737
 Alpha  occ. eigenvalues --   -9.93551  -9.93514  -9.92817  -9.92768  -9.92760
 Alpha  occ. eigenvalues --   -9.92684  -9.91927  -9.91868  -9.90613  -9.90365
 Alpha  occ. eigenvalues --   -9.90333  -9.90284  -9.24571  -7.00941  -7.00098
 Alpha  occ. eigenvalues --   -7.00094  -0.69402  -0.68886  -0.64384  -0.59457
 Alpha  occ. eigenvalues --   -0.58393  -0.51966  -0.49974  -0.49365  -0.47347
 Alpha  occ. eigenvalues --   -0.40502  -0.38372  -0.35785  -0.33480  -0.29703
 Alpha  occ. eigenvalues --   -0.28217  -0.26933  -0.22170  -0.21323  -0.20995
 Alpha  occ. eigenvalues --   -0.19628  -0.18105  -0.17009  -0.15635  -0.14857
 Alpha  occ. eigenvalues --   -0.14451  -0.13729  -0.13383  -0.11375  -0.10091
 Alpha  occ. eigenvalues --   -0.10056  -0.09442  -0.08795  -0.08110  -0.06527
 Alpha  occ. eigenvalues --   -0.06513  -0.00834   0.00603   0.01498   0.01778
 Alpha  occ. eigenvalues --    0.04321   0.04947   0.13282
 Alpha virt. eigenvalues --    0.16145   0.17242   0.17890   0.18891   0.20061
 Alpha virt. eigenvalues --    0.20244   0.21224   0.21472   0.22262   0.22312
 Alpha virt. eigenvalues --    0.24212   0.24811   0.25530   0.25767   0.26160

  Beta  occ. eigenvalues -- -101.33139 -18.77677 -18.77360  -9.98633  -9.93737
  Beta  occ. eigenvalues --   -9.93551  -9.93514  -9.92817  -9.92768  -9.92760
  Beta  occ. eigenvalues --   -9.92684  -9.91927  -9.91868  -9.90613  -9.90365
  Beta  occ. eigenvalues --   -9.90333  -9.90284  -9.24571  -7.00941  -7.00098
  Beta  occ. eigenvalues --   -7.00094  -0.69402  -0.68886  -0.64384  -0.59457
  Beta  occ. eigenvalues --   -0.58393  -0.51966  -0.49974  -0.49365  -0.47347
  Beta  occ. eigenvalues --   -0.40502  -0.38372  -0.35785  -0.33480  -0.29703
  Beta  occ. eigenvalues --   -0.28217  -0.26933  -0.22170  -0.21323  -0.20995
  Beta  occ. eigenvalues --   -0.19628  -0.18105  -0.17009  -0.15635  -0.14857
  Beta  occ. eigenvalues --   -0.14451  -0.13729  -0.13383  -0.11375  -0.10091
  Beta  occ. eigenvalues --   -0.10056  -0.09442  -0.08795  -0.08110  -0.06527
  Beta  occ. eigenvalues --   -0.06513  -0.00834   0.00603   0.01498   0.01778
  Beta  occ. eigenvalues --    0.04321   0.04947   0.13282
  Beta virt. eigenvalues --    0.16145   0.17242   0.17890   0.18891   0.20061
  Beta virt. eigenvalues --    0.20244   0.21224   0.21472   0.22262   0.22312
  Beta virt. eigenvalues --    0.24212   0.24811   0.25530   0.25767   0.26160

 Mulliken charges and spin densities:
               1          2
     1  Cl   0.335413  -0.000000
     2  C    0.804110   0.000000
     3  C   -0.629478  -0.000000
     4  C   -0.079241   0.000000
     5  C    0.411082  -0.000000
     6  C   -0.840206  -0.000000
     7  O   -0.514381   0.000000
     8  C    0.400298   0.000000
     9  C    0.009632  -0.000000
    10  C   -0.449842  -0.000000
    11  C   -0.446031   0.000000
    12  C    0.020403   0.000000
    13  C    0.425276  -0.000000
    14  C   -1.055006  -0.000000
    15  O   -0.516480   0.000000
    16  C   -0.289378   0.000000
    17  C   -0.382355   0.000000
    18  H    0.100857  -0.000000
    19  H    0.132867  -0.000000
    20  H    0.128495  -0.000000
    21  H    0.073358  -0.000000
    22  H    0.073699   0.000000
    23  H    0.130668  -0.000000
    24  H    0.156239  -0.000000
 Sum of Mulliken charges =  -2.00000  -0.00000

 Dipole moment (field-independent basis, Debye):
    X=             -3.6153    Y=              1.3878    Z=              1.4279  Tot=              4.1273
 Quadrupole moment (field-independent basis, Debye-Ang):
   XX=           -180.7350   YY=           -163.1937   ZZ=           -121.0276
   XY=              9.5533   XZ=              0.6391   YZ=             10.2630

  Exact polarizability: 453.150  -9.840 243.390  -9.576 -26.188 140.302
 Approx polarizability: 761.433  -7.860 450.884 -19.452 -62.652 206.346

                      1                      2                      3
                      A                      A                      A
 Frequencies --     46.2360                88.4796               128.7888
 Red. masses --      9.0955                 6.0568                 4.4764
 Frc consts  --      0.0115                 0.0279                 0.0437
 IR Inten    --      3.5205                 2.6001                 0.2854

                      4                      5                      6
                      A                      A                      A
 Frequencies --    150.6875               163.8713               199.5178
 Red. masses --     11.1115                 7.2720                 6.3001
 Frc consts  --      0.1487                 0.1151                 0.1478
 IR Inten    --      1.7667                 4.3272                 0.4282

                      7                      8                      9
                      A                      A                      A
 Frequencies --    259.4821               277.9906               287.2894
 Red. masses --      7.4375                 6.4283                11.2688
 Frc consts  --      0.2950                 0.2927                 0.5480
 IR Inten    --      4.2482                 0.5615                 3.2020

                     10                     11                     12
                      A                      A                      A
 Frequencies --    341.6114               363.9011               395.6919
 Red. masses --      7.0358                10.3084                 8.0984
 Frc consts  --      0.4838                 0.8043                 0.7471
 IR Inten    --      5.1738                 1.1175                 0.0002

                     13                     14                     15
                      A                      A                      A
 Frequencies --    419.1963               419.4862               467.7455
 Red. masses --      3.4088                 6.9233                 3.0560
 Frc consts  --      0.3529                 0.7178                 0.3939
 IR Inten    --      3.0862                 2.9013                 0.3491

                     16                     17                     18
                      A                      A                      A
 Frequencies --    472.6654               506.3469               507.2722
 Red. masses --      9.7355                 4.7773                 9.6395
 Frc consts  --      1.2815                 0.7217                 1.4615
 IR Inten    --      7.1759                 1.6866                 8.4367

                     19                     20                     21
                      A                      A                      A
 Frequencies --    614.2962               626.9954               633.8865
 Red. masses --      5.3425                 6.8921                 7.1472
 Frc consts  --      1.1878                 1.5963                 1.6920
 IR Inten    --      0.2205                32.6874                41.8671

                     22                     23                     24
                      A                      A                      A
 Frequencies --    667.3712               684.9232               690.7226
 Red. masses --      1.7578                 6.5000                 2.0236
 Frc consts  --      0.4613                 1.7966                 0.5688
 IR Inten    --     76.0071                 2.9693                30.0356

                     25                     26                     27
                      A                      A                      A
 Frequencies --    691.0283               723.2825               756.0098
 Red. masses --      7.3709                 1.8758                 2.6976
 Frc consts  --      2.0738                 0.5782                 0.9084
 IR Inten    --     39.0828                 0.3887                10.9137

                     28                     29                     30
                      A                      A                      A
 Frequencies --    776.5233               816.1848               827.0120
 Red. masses --      1.6700                 6.7701                 4.1210
 Frc consts  --      0.5933                 2.6572                 1.6606
 IR Inten    --      5.0167                59.2968                 0.3183

                     31                     32                     33
                      A                      A                      A
 Frequencies --    915.9064               925.5642               942.0146
 Red. masses --      1.3874                 5.9829                 7.3037
 Frc consts  --      0.6857                 3.0198                 3.8186
 IR Inten    --     11.2104                 5.3192                55.6214

                     34                     35                     36
                      A                      A                      A
 Frequencies --    952.7487               956.1757               960.6453
 Red. masses --      1.2326                 1.3041                 1.3682
 Frc consts  --      0.6592                 0.7025                 0.7439
 IR Inten    --      0.0133                 0.0502                 5.7912

                     37                     38                     39
                      A                      A                      A
 Frequencies --   1010.6455              1036.4722              1088.5956
 Red. masses --      2.0827                 2.0223                 2.5114
 Frc consts  --      1.2533                 1.2800                 1.7535
 IR Inten    --    100.7746                 5.8914               193.2873

                     40                     41                     42
                      A                      A                      A
 Frequencies --   1098.2447              1123.6864              1163.3280
 Red. masses --      1.6644                 1.4743                 2.7811
 Frc consts  --      1.1828                 1.0968                 2.2176
 IR Inten    --     80.6855               101.2364                65.7135

                     43                     44                     45
                      A                      A                      A
 Frequencies --   1174.9880              1198.1511              1206.6957
 Red. masses --      2.2355                 1.7819                 2.2714
 Frc consts  --      1.8184                 1.5072                 1.9487
 IR Inten    --     68.1643                54.4606               157.6135

                     46                     47                     48
                      A                      A                      A
 Frequencies --   1234.4246              1316.0941              1326.9772
 Red. masses --      2.1694                 2.6168                 6.4398
 Frc consts  --      1.9477                 2.6705                 6.6811
 IR Inten    --    199.0310               215.1754                 6.7886

                     49                     50                     51
                      A                      A                      A
 Frequencies --   1347.8482              1367.8022              1431.7546
 Red. masses --      6.7024                 2.6479                 3.2110
 Frc consts  --      7.1740                 2.9188                 3.8781
 IR Inten    --    481.7680               754.5603               121.9114

                     52                     53                     54
                      A                      A                      A
 Frequencies --   1458.2912              1469.0476              1473.0383
 Red. masses --      3.4700                 3.7597                 5.9558
 Frc consts  --      4.3478                 4.7805                 7.6141
 IR Inten    --    116.1017                88.6167               265.3968

                     55                     56                     57
                      A                      A                      A
 Frequencies --   1481.0816              1515.8020              1551.6559
 Red. masses --      4.5896                 5.7673                 6.5542
 Frc consts  --      5.9317                 7.8075                 9.2974
 IR Inten    --     40.0938                42.2329               137.6761

                     58                     59                     60
                      A                      A                      A
 Frequencies --   1583.2266              1584.9288              3086.4658
 Red. masses --      9.0494                 5.2473                 1.0824
 Frc consts  --     13.3645                 7.7662                 6.0750
 IR Inten    --      2.3310                 6.8158                45.6561

                     61                     62                     63
                      A                      A                      A
 Frequencies --   3110.7040              3147.3222              3153.8272
 Red. masses --      1.0903                 1.0849                 1.0902
 Frc consts  --      6.2160                 6.3318                 6.3890
 IR Inten    --    132.0767                 0.1979                28.1359

                     64                     65                     66
                      A                      A                      A
 Frequencies --   3156.5686              3166.2654              3180.3856
 Red. masses --      1.0913                 1.0934                 1.0897
 Frc consts  --      6.4066                 6.4587                 6.4941
 IR Inten    --     64.0296                46.8470                13.4555

 - Thermochemistry -
 -------------------
 Temperature   298.150 Kelvin.  Pressure   1.00000 Atm.
 Atom     1 has atomic number 17 and mass  34.96885

 Molecular mass:   242.01346 amu.
 Principal axes and moments of inertia in atomic units:
                           1         2         3
     Eigenvalues --  1829.859186989.695668819.55483
           X            0.98710   0.15590   0.03633
           Y           -0.16007   0.95878   0.23478
           Z            0.00177  -0.23757   0.97137
 This molecule is an asymmetric top.
 Rotational symmetry number  1.
 Warning -- assumption of classical behavior for rotation
           may cause significant error
 Rotational temperatures (Kelvin)      0.04733     0.01239     0.00982
 Rotational constants (GHZ):           0.98627     0.25820     0.20463
 Zero-point vibrational energy     430068.7 (Joules/Mol)
                                  102.78888 (Kcal/Mol)
 Warning -- explicit consideration of  19 degrees of freedom as
           vibrations may cause significant error
 Vibrational temperatures:     66.52   127.30   185.30   216.81   235.77
          (Kelvin)            287.06   373.34   399.97   413.35   491.50
                              523.57   569.31   603.13   603.55   672.98
                              680.06   728.52   729.85   883.84   902.11
                              912.02   960.20   985.45   993.80   994.24
                             1040.64  1087.73  1117.24  1174.31  1189.89
                             1317.79  1331.68  1355.35  1370.79  1375.72
                             1382.15  1454.09  1491.25  1566.25  1580.13
                             1616.73  1673.77  1690.55  1723.87  1736.17
                             1776.06  1893.57  1909.22  1939.25  1967.96
                             2059.98  2098.16  2113.63  2119.37  2130.95
                             2180.90  2232.49  2277.91  2280.36  4440.74
                             4475.61  4528.29  4537.65  4541.60  4555.55
                             4575.87

 Zero-point correction=                           0.163805 (Hartree/Particle)
 Thermal correction to Energy=                    0.176574
 Thermal correction to Enthalpy=                  0.177518
 Thermal correction to Gibbs Free Energy=         0.124278
 Sum of electronic and zero-point Energies=          -1148.399667
 Sum of electronic and thermal Energies=             -1148.386898
 Sum of electronic and thermal Enthalpies=           -1148.385953
 Sum of electronic and thermal Free Energies=        -1148.439193

                     E (Thermal)             CV                S
                      KCal/Mol        Cal/Mol-Kelvin    Cal/Mol-Kelvin
 Total                  110.802             51.445            112.053
 Electronic               0.000              0.000              0.000
 Translational            0.889              2.981             42.353
 Rotational               0.889              2.981             33.089
 Vibrational            109.024             45.483             36.611
 Vibration     1          0.595              1.979              4.972
 Vibration     2          0.601              1.957              3.693
 Vibration     3          0.611              1.924              2.964
 Vibration     4          0.618              1.902              2.664
 Vibration     5          0.623              1.887              2.505
 Vibration     6          0.638              1.841              2.138
 Vibration     7          0.668              1.747              1.665
 Vibration     8          0.679              1.714              1.546
 Vibration     9          0.684              1.697              1.490
 Vibration    10          0.721              1.592              1.205
 Vibration    11          0.737              1.547              1.105
 Vibration    12          0.762              1.479              0.979
 Vibration    13          0.782              1.429              0.895
 Vibration    14          0.782              1.428              0.894
 Vibration    15          0.825              1.322              0.744
 Vibration    16          0.830              1.311              0.730
 Vibration    17          0.862              1.236              0.642
 Vibration    18          0.862              1.234              0.640
 Vibration    19          0.974              1.002              0.426

 Optimization completed.
    -- Stationary point found.
 Normal termination of Gaussian 16 at Wed Dec 27 20:54:17 2023.
