 Q-Chem 5.4, Q-Chem, Inc., Pleasanton, CA (2021)
 Q-Chem 5.4.0 for Intel X86 EM64T Linux

User input:
--------------------------------------------------------------
$molecule
-2 1
Cl                 5.2114690000     -1.4937050000     -0.0034660000
C                  3.6144340000     -0.6473760000     -0.1482370000
C                  3.6348560000      0.7326830000     -0.4826670000
C                  2.4193130000      1.3776100000     -0.5930320000
C                  1.1774270000      0.7275400000     -0.3893350000
C                 -0.0447410000      1.4850550000     -0.5266860000
O                 -0.0631020000      2.7370110000     -0.8286050000
C                 -1.2484390000      0.7143720000     -0.2954380000
C                 -2.5100540000      1.3551020000     -0.4031390000
C                 -3.6997950000      0.6877210000     -0.1974880000
C                 -3.6785380000     -0.6974830000      0.1365030000
C                 -2.4701920000     -1.3524510000      0.2497070000
C                 -1.2263780000     -0.6982240000      0.0451350000
C                 -0.0021370000     -1.4584250000      0.1831550000
O                  0.0143130000     -2.7116330000      0.4854670000
C                  1.1944540000     -0.6890610000     -0.0475500000
C                  2.4563400000     -1.3400040000      0.0625520000
H                  4.5748420000      1.2491480000     -0.6428090000
H                  2.3736100000      2.4326780000     -0.8464850000
H                 -2.4903310000      2.4104190000     -0.6588790000
H                 -4.6490810000      1.2136010000     -0.2891190000
H                 -4.6120600000     -1.2339180000      0.3010400000
H                 -2.4192590000     -2.4072750000      0.5028360000
H                  2.4430500000     -2.3933840000      0.3176770000
$end

$rem
BASIS  =  6-311++G(d,p)
GUI  =  2
JOB_TYPE  =  SP
METHOD  =  B3LYP
SCF_CONVERGENCE  = 8
SOLVENT_METHOD = sm12
$end

$smx
solvent dimethylformamide
charges CM5
$end

--------------------------------------------------------------

             Standard Nuclear Orientation (Angstroms)
    I     Atom           X                Y                Z
 ----------------------------------------------------------------
    1      Cl      5.2114690000    -1.4937050000    -0.0034660000
    2      C       3.6144340000    -0.6473760000    -0.1482370000
    3      C       3.6348560000     0.7326830000    -0.4826670000
    4      C       2.4193130000     1.3776100000    -0.5930320000
    5      C       1.1774270000     0.7275400000    -0.3893350000
    6      C      -0.0447410000     1.4850550000    -0.5266860000
    7      O      -0.0631020000     2.7370110000    -0.8286050000
    8      C      -1.2484390000     0.7143720000    -0.2954380000
    9      C      -2.5100540000     1.3551020000    -0.4031390000
   10      C      -3.6997950000     0.6877210000    -0.1974880000
   11      C      -3.6785380000    -0.6974830000     0.1365030000
   12      C      -2.4701920000    -1.3524510000     0.2497070000
   13      C      -1.2263780000    -0.6982240000     0.0451350000
   14      C      -0.0021370000    -1.4584250000     0.1831550000
   15      O       0.0143130000    -2.7116330000     0.4854670000
   16      C       1.1944540000    -0.6890610000    -0.0475500000
   17      C       2.4563400000    -1.3400040000     0.0625520000
   18      H       4.5748420000     1.2491480000    -0.6428090000
   19      H       2.3736100000     2.4326780000    -0.8464850000
   20      H      -2.4903310000     2.4104190000    -0.6588790000
   21      H      -4.6490810000     1.2136010000    -0.2891190000
   22      H      -4.6120600000    -1.2339180000     0.3010400000
   23      H      -2.4192590000    -2.4072750000     0.5028360000
   24      H       2.4430500000    -2.3933840000     0.3176770000
 ----------------------------------------------------------------

   18   -1148.5542375346      7.29e-09  Convergence criterion met
 Total energy in the final basis set =    -1148.8301786147

                    Orbital Energies (a.u.)
 --------------------------------------------------------------

 Alpha MOs
 -- Occupied --
******** -19.0333 -19.0301 -10.2266 -10.1927 -10.1900 -10.1800 -10.1762
-10.1755 -10.1755 -10.1738 -10.1716 -10.1710 -10.1601 -10.1582 -10.1581
-10.1576  -9.4648  -7.2291  -7.2200  -7.2197  -0.9498  -0.9453  -0.8785
 -0.8459  -0.8237  -0.7696  -0.7472  -0.7456  -0.7209  -0.6567  -0.6324
 -0.6065  -0.5845  -0.5489  -0.5295  -0.5145  -0.4667  -0.4607  -0.4535
 -0.4451  -0.4276  -0.4225  -0.4028  -0.3979  -0.3894  -0.3856  -0.3759
 -0.3688  -0.3463  -0.3416  -0.3397  -0.3364  -0.3194  -0.3120  -0.3054
 -0.2580  -0.2451  -0.2380  -0.2332  -0.2117  -0.2053  -0.1219

          Ground-State Mulliken Net Atomic Charges

     Atom                 Charge (a.u.)
  ----------------------------------------
      1 Cl                    1.400589
      2 C                     3.460426
      3 C                     1.887309
      4 C                     0.262359
      5 C                    -0.988148
      6 C                    -2.683603
      7 O                    -0.327756
      8 C                    -1.618889
      9 C                    -0.233158
     10 C                     1.523941
     11 C                     1.565229
     12 C                    -0.353605
     13 C                    -1.702002
     14 C                    -3.086590
     15 O                    -0.334728
     16 C                    -2.535663
     17 C                    -0.040048
     18 H                     0.424548
     19 H                     0.124179
     20 H                     0.122033
     21 H                     0.404484
     22 H                     0.402203
     23 H                     0.112156
     24 H                     0.214733
  ----------------------------------------
  Sum of atomic charges =    -2.000000

                    Cartesian Multipole Moments
 -----------------------------------------------------------------
    Charge (ESU x 10^10)
                -9.6064
    Dipole Moment (Debye)
         X      -1.9036      Y       1.0701      Z       1.4416
       Tot       2.6167
    Quadrupole Moments (Debye-Ang)
        XX    -161.1084     XY       7.1198     YY    -163.5635
        XZ       0.1812     YZ      10.3312     ZZ    -121.8001

 Total job time:  582.60s(wall), 4362.95s(cpu)
        *  Thank you very much for using Q-Chem.  Have a nice day.  *
