 Q-Chem 5.4, Q-Chem, Inc., Pleasanton, CA (2021)
 Q-Chem 5.4.0 for Intel X86 EM64T Linux

User input:
--------------------------------------------------------------
$molecule
-1 2
C                  5.8016610000     -5.1072710000      1.2556340000
C                  6.7931190000     -5.0418670000      0.3024560000
C                  6.6747450000     -4.1179530000     -0.7714830000
C                  4.6640740000     -4.2738940000      1.1912390000
C                  4.5461690000     -3.3502190000      0.1173200000
C                  5.5583270000     -3.2879110000     -0.8501150000
C                  3.6302140000     -4.3716770000      2.2227500000
C                  2.4904610000     -3.4795690000      2.0855530000
C                  2.3720880000     -2.5775760000      1.0399090000
C                  3.3816370000     -2.4581700000      0.0019130000
O                  3.7367690000     -5.1922100000      3.1750810000
O                  3.2817170000     -1.6426640000     -0.9499360000
C                  7.7004910000     -4.0476260000     -1.7611320000
N                  8.5439410000     -4.0050470000     -2.5554570000
H                  5.8651800000     -5.8016580000      2.0850880000
H                  7.6638260000     -5.6851900000      0.3587010000
H                  5.4452910000     -2.5758500000     -1.6586240000
C                  1.4226920000     -3.5768510000      3.1464740000
C                  1.1742350000     -1.6671750000      0.9306420000
H                  1.7006490000     -4.3411100000      3.8719300000
H                  0.4484970000     -3.8370410000      2.7148470000
H                  1.2891190000     -2.6233460000      3.6719760000
H                  0.2397400000     -2.2363790000      0.8532000000
H                  1.2752480000     -1.0396320000      0.0453210000
H                  1.0766140000     -1.0202380000      1.8110750000
$end

$rem
BASIS  =  6-311++G(d,p)
GUI  =  2
JOB_TYPE  =  SP
METHOD  =  B3LYP
SCF_CONVERGENCE  = 8
SOLVENT_METHOD = sm12
$end

$smx
solvent dimethylformamide
charges CM5
$end

--------------------------------------------------------------

             Standard Nuclear Orientation (Angstroms)
    I     Atom           X                Y                Z
 ----------------------------------------------------------------
    1      C       5.8016610000    -5.1072710000     1.2556340000
    2      C       6.7931190000    -5.0418670000     0.3024560000
    3      C       6.6747450000    -4.1179530000    -0.7714830000
    4      C       4.6640740000    -4.2738940000     1.1912390000
    5      C       4.5461690000    -3.3502190000     0.1173200000
    6      C       5.5583270000    -3.2879110000    -0.8501150000
    7      C       3.6302140000    -4.3716770000     2.2227500000
    8      C       2.4904610000    -3.4795690000     2.0855530000
    9      C       2.3720880000    -2.5775760000     1.0399090000
   10      C       3.3816370000    -2.4581700000     0.0019130000
   11      O       3.7367690000    -5.1922100000     3.1750810000
   12      O       3.2817170000    -1.6426640000    -0.9499360000
   13      C       7.7004910000    -4.0476260000    -1.7611320000
   14      N       8.5439410000    -4.0050470000    -2.5554570000
   15      H       5.8651800000    -5.8016580000     2.0850880000
   16      H       7.6638260000    -5.6851900000     0.3587010000
   17      H       5.4452910000    -2.5758500000    -1.6586240000
   18      C       1.4226920000    -3.5768510000     3.1464740000
   19      C       1.1742350000    -1.6671750000     0.9306420000
   20      H       1.7006490000    -4.3411100000     3.8719300000
   21      H       0.4484970000    -3.8370410000     2.7148470000
   22      H       1.2891190000    -2.6233460000     3.6719760000
   23      H       0.2397400000    -2.2363790000     0.8532000000
   24      H       1.2752480000    -1.0396320000     0.0453210000
   25      H       1.0766140000    -1.0202380000     1.8110750000
 ----------------------------------------------------------------

   17    -706.2663013957      5.71e-09  Convergence criterion met
 Total energy in the final basis set =     -706.3405906796

                    Orbital Energies (a.u.)
 --------------------------------------------------------------

 Alpha MOs
 -- Occupied --
-19.0824 -19.0801 -14.3320 -10.2347 -10.2307 -10.2265 -10.2237 -10.2008
-10.1989 -10.1893 -10.1887 -10.1877 -10.1812 -10.1795 -10.1642 -10.1641
 -1.0084  -1.0039  -0.9343  -0.8814  -0.8318  -0.7894  -0.7737  -0.7342
 -0.6989  -0.6762  -0.6326  -0.6126  -0.5748  -0.5481  -0.5197  -0.4886
 -0.4787  -0.4466  -0.4460  -0.4349  -0.4279  -0.4198  -0.4088  -0.4045
 -0.3973  -0.3950  -0.3939  -0.3903  -0.3786  -0.3751  -0.3615  -0.3545
 -0.3491  -0.3482  -0.2796  -0.2758  -0.2552  -0.2520  -0.2410  -0.1597

 Beta MOs
 -- Occupied --
-19.0762 -19.0731 -14.3316 -10.2348 -10.2296 -10.2252 -10.2232 -10.2012
-10.1981 -10.1882 -10.1880 -10.1876 -10.1803 -10.1782 -10.1642 -10.1642
 -0.9978  -0.9919  -0.9337  -0.8794  -0.8276  -0.7873  -0.7720  -0.7313
 -0.6967  -0.6710  -0.6307  -0.6096  -0.5730  -0.5453  -0.5177  -0.4865
 -0.4771  -0.4458  -0.4400  -0.4315  -0.4251  -0.4168  -0.4042  -0.4000
 -0.3954  -0.3931  -0.3894  -0.3863  -0.3782  -0.3606  -0.3533  -0.3526
 -0.3463  -0.3391  -0.2696  -0.2588  -0.2460  -0.2414  -0.2350

          Ground-State Mulliken Net Atomic Charges

     Atom                 Charge (a.u.)    Spin (a.u.)
  --------------------------------------------------------
      1 C                     0.283885       0.012737
      2 C                     0.453224       0.065689
      3 C                     2.296195       0.035916
      4 C                    -0.690864       0.057603
      5 C                    -1.209068       0.041319
      6 C                     0.006388      -0.015251
      7 C                    -1.456047       0.076810
      8 C                     0.103114       0.058452
      9 C                     0.506839       0.107195
     10 C                    -1.504786       0.052568
     11 O                    -0.332258       0.256687
     12 O                    -0.336154       0.227650
     13 C                    -1.569895      -0.014871
     14 N                    -0.468183       0.021082
     15 H                     0.202388      -0.001686
     16 H                     0.371888      -0.004140
     17 H                     0.194784      -0.000028
     18 C                     0.486910       0.008472
     19 C                     0.432214       0.003359
     20 H                     0.189337      -0.001764
     21 H                     0.215387       0.002710
     22 H                     0.215053       0.002751
     23 H                     0.214354       0.004114
     24 H                     0.180853      -0.001471
     25 H                     0.214443       0.004097
  --------------------------------------------------------
  Sum of atomic charges =    -1.000000

                    Cartesian Multipole Moments
 -----------------------------------------------------------------
    Charge (ESU x 10^10)
                -4.8032
    Dipole Moment (Debye)
         X     -23.8186      Y      17.0437      Z      -0.0366
       Tot      29.2884
    Quadrupole Moments (Debye-Ang)
        XX    -242.2416     XY      86.9879     YY    -169.4554
        XZ      20.0655     YZ      12.6177     ZZ    -131.1390

 Total job time:  661.04s(wall), 4431.20s(cpu)
        *  Thank you very much for using Q-Chem.  Have a nice day.  *
