 Q-Chem 5.4, Q-Chem, Inc., Pleasanton, CA (2021)
 Q-Chem 5.4.0 for Intel X86 EM64T Linux

User input:
--------------------------------------------------------------
$molecule
-1 2
C                  6.6523390000      0.5036190000      0.8131260000
C                  5.1776190000      0.4178430000      0.4985610000
C                  4.5223110000      1.4303710000     -0.2169030000
C                  3.1793770000      1.3380560000     -0.5472480000
C                  2.4003170000      0.2195840000     -0.1691760000
N                  1.0603050000      0.2328950000     -0.5068990000
C                  0.1058470000     -0.7840310000     -0.4266320000
C                  0.4505330000     -2.1219180000     -0.5659130000
C                 -0.5210200000     -3.1240500000     -0.4876040000
C                 -1.8550040000     -2.8201000000     -0.2709750000
O                 -2.7638940000     -3.8465380000     -0.1748360000
C                 -2.2800650000     -1.4677520000     -0.1645960000
C                 -3.7007480000     -1.1476240000      0.0489020000
O                 -4.5921130000     -2.0118140000      0.1659140000
C                 -4.0507960000      0.2796590000      0.1246980000
C                 -5.3962880000      0.6416690000      0.3395540000
C                 -5.7750710000      1.9683810000      0.4086900000
C                 -4.8051930000      2.9826150000      0.2599150000
C                 -3.4834320000      2.6483420000      0.0464100000
C                 -3.0779180000      1.2950390000     -0.0218910000
C                 -1.6744760000      0.9797440000     -0.2455380000
O                 -0.8482940000      1.9382120000     -0.4235190000
C                 -1.2829930000     -0.4237710000     -0.2695240000
C                  3.0527360000     -0.7890470000      0.5676780000
C                  4.4054610000     -0.6795180000      0.8847880000
H                  6.9218370000     -0.1702880000      1.6313920000
H                  7.2722770000      0.2303660000     -0.0503560000
H                  6.9423440000      1.5171640000      1.1087300000
H                  5.0781830000      2.3117360000     -0.5267330000
H                  2.7001460000      2.1376790000     -1.1023740000
H                  0.5947340000      1.1544880000     -0.5810490000
H                  1.4759980000     -2.3965650000     -0.7704940000
H                 -0.2246630000     -4.1650510000     -0.5997100000
H                 -2.2700930000     -4.6669430000     -0.2806540000
H                 -6.1161120000     -0.1612750000      0.4459880000
H                 -6.8152580000      2.2314760000      0.5757660000
H                 -5.0999790000      4.0265510000      0.3133870000
H                 -2.7192890000      3.4065510000     -0.0732100000
H                  2.4935860000     -1.6404750000      0.9290800000
H                  4.8667510000     -1.4752810000      1.4645250000
$end
$rem
MAX_SCF_CYCLES=200
BASIS  =  6-311++G(d,p)
GUI  =  2
JOB_TYPE  =  SP
METHOD  =  B3LYP
SCF_ALGORITHM = RCA_DIIS
SOLVENT_METHOD = PCM
$end
$pcm
theory = CPCM
$end
$solvent
dielectric 37.219
opticaldielectric 1.43
$end

--------------------------------------------------------------

             Standard Nuclear Orientation (Angstroms)
    I     Atom           X                Y                Z
 ----------------------------------------------------------------
    1      C       6.6523390000     0.5036190000     0.8131260000
    2      C       5.1776190000     0.4178430000     0.4985610000
    3      C       4.5223110000     1.4303710000    -0.2169030000
    4      C       3.1793770000     1.3380560000    -0.5472480000
    5      C       2.4003170000     0.2195840000    -0.1691760000
    6      N       1.0603050000     0.2328950000    -0.5068990000
    7      C       0.1058470000    -0.7840310000    -0.4266320000
    8      C       0.4505330000    -2.1219180000    -0.5659130000
    9      C      -0.5210200000    -3.1240500000    -0.4876040000
   10      C      -1.8550040000    -2.8201000000    -0.2709750000
   11      O      -2.7638940000    -3.8465380000    -0.1748360000
   12      C      -2.2800650000    -1.4677520000    -0.1645960000
   13      C      -3.7007480000    -1.1476240000     0.0489020000
   14      O      -4.5921130000    -2.0118140000     0.1659140000
   15      C      -4.0507960000     0.2796590000     0.1246980000
   16      C      -5.3962880000     0.6416690000     0.3395540000
   17      C      -5.7750710000     1.9683810000     0.4086900000
   18      C      -4.8051930000     2.9826150000     0.2599150000
   19      C      -3.4834320000     2.6483420000     0.0464100000
   20      C      -3.0779180000     1.2950390000    -0.0218910000
   21      C      -1.6744760000     0.9797440000    -0.2455380000
   22      O      -0.8482940000     1.9382120000    -0.4235190000
   23      C      -1.2829930000    -0.4237710000    -0.2695240000
   24      C       3.0527360000    -0.7890470000     0.5676780000
   25      C       4.4054610000    -0.6795180000     0.8847880000
   26      H       6.9218370000    -0.1702880000     1.6313920000
   27      H       7.2722770000     0.2303660000    -0.0503560000
   28      H       6.9423440000     1.5171640000     1.1087300000
   29      H       5.0781830000     2.3117360000    -0.5267330000
   30      H       2.7001460000     2.1376790000    -1.1023740000
   31      H       0.5947340000     1.1544880000    -0.5810490000
   32      H       1.4759980000    -2.3965650000    -0.7704940000
   33      H      -0.2246630000    -4.1650510000    -0.5997100000
   34      H      -2.2700930000    -4.6669430000    -0.2806540000
   35      H      -6.1161120000    -0.1612750000     0.4459880000
   36      H      -6.8152580000     2.2314760000     0.5757660000
   37      H      -5.0999790000     4.0265510000     0.3133870000
   38      H      -2.7192890000     3.4065510000    -0.0732100000
   39      H       2.4935860000    -1.6404750000     0.9290800000
   40      H       4.8667510000    -1.4752810000     1.4645250000
 ----------------------------------------------------------------

   84   -1090.1490667943      5.30E-06 Convergence criterion met
 Total energy in the final basis set = -1090.14906679

                    Orbital Energies (a.u.)
 --------------------------------------------------------------

 Alpha MOs
 -- Occupied --
-19.1465 -19.0801 -19.0738 -14.3179 -10.2321 -10.2292 -10.2275 -10.2152
-10.2132 -10.1810 -10.1790 -10.1724 -10.1720 -10.1717 -10.1713 -10.1709
-10.1698 -10.1689 -10.1689 -10.1680 -10.1680 -10.1679 -10.1661 -10.1651
-10.1592  -1.0591  -1.0078  -1.0053  -0.9412  -0.8609  -0.8538  -0.8373
 -0.7855  -0.7685  -0.7503  -0.7454  -0.7410  -0.7291  -0.6781  -0.6675
 -0.6403  -0.6290  -0.6102  -0.5963  -0.5788  -0.5662  -0.5526  -0.5417
 -0.5141  -0.5077  -0.4806  -0.4742  -0.4661  -0.4593  -0.4580  -0.4432
 -0.4338  -0.4329  -0.4259  -0.4225  -0.4161  -0.4144  -0.4114  -0.4077
 -0.4008  -0.3948  -0.3866  -0.3823  -0.3778  -0.3720  -0.3654  -0.3531
 -0.3526  -0.3487  -0.3412  -0.3372  -0.3334  -0.3015  -0.2691  -0.2563
 -0.2546  -0.2516  -0.2499  -0.2389  -0.2339  -0.1889  -0.1382

 Beta MOs
 -- Occupied --
-19.1463 -19.0751 -19.0690 -14.3175 -10.2319 -10.2279 -10.2251 -10.2148
-10.2134 -10.1809 -10.1783 -10.1719 -10.1717 -10.1716 -10.1708 -10.1701
-10.1690 -10.1687 -10.1687 -10.1681 -10.1680 -10.1671 -10.1659 -10.1649
-10.1592  -1.0585  -0.9994  -0.9968  -0.9399  -0.8587  -0.8530  -0.8362
 -0.7816  -0.7677  -0.7483  -0.7448  -0.7397  -0.7275  -0.6769  -0.6616
 -0.6386  -0.6268  -0.6096  -0.5960  -0.5779  -0.5642  -0.5509  -0.5409
 -0.5132  -0.5065  -0.4775  -0.4731  -0.4657  -0.4580  -0.4573  -0.4421
 -0.4329  -0.4275  -0.4230  -0.4220  -0.4155  -0.4139  -0.4086  -0.4049
 -0.3942  -0.3899  -0.3853  -0.3806  -0.3744  -0.3650  -0.3597  -0.3524
 -0.3481  -0.3462  -0.3362  -0.3332  -0.3318  -0.2974  -0.2544  -0.2512
 -0.2501  -0.2474  -0.2452  -0.2341  -0.2292  -0.1818

          Ground-State Mulliken Net Atomic Charges

     Atom                 Charge (a.u.)    Spin (a.u.)
  --------------------------------------------------------
      1 C                    -0.600537      -0.001183
      2 C                     0.452426       0.011257
      3 C                    -0.241656      -0.007871
      4 C                    -0.557524       0.010735
      5 C                    -0.252946      -0.014367
      6 N                     0.008094       0.020392
      7 C                     0.081424       0.041009
      8 C                    -0.171307       0.061340
      9 C                    -0.393183       0.080186
     10 C                    -0.398573       0.021445
     11 O                    -0.263676       0.005722
     12 C                     0.477601       0.044468
     13 C                    -0.272664       0.064698
     14 O                    -0.461433       0.182325
     15 C                     0.023181       0.038944
     16 C                     0.078329       0.013237
     17 C                    -0.555783       0.045942
     18 C                    -0.543438       0.018405
     19 C                    -0.021787       0.041280
     20 C                     0.061418      -0.008962
     21 C                    -0.160809       0.129127
     22 O                    -0.443207       0.185363
     23 C                     0.367233       0.019206
     24 C                     0.198242       0.017370
     25 C                    -0.594179      -0.002458
     26 H                     0.158698       0.000125
     27 H                     0.173459       0.000707
     28 H                     0.151943       0.000223
     29 H                     0.200302       0.000568
     30 H                     0.171860      -0.001254
     31 H                     0.482448       0.001166
     32 H                     0.216866      -0.005712
     33 H                     0.199911      -0.006773
     34 H                     0.311493      -0.000727
     35 H                     0.169572      -0.000472
     36 H                     0.196460      -0.003520
     37 H                     0.199349      -0.001764
     38 H                     0.162014      -0.002212
     39 H                     0.199214       0.001515
     40 H                     0.191164       0.000520
  --------------------------------------------------------
  Sum of atomic charges =    -1.000000

                    Cartesian Multipole Moments
 -----------------------------------------------------------------
    Charge (ESU x 10^10)
                -4.8032
    Dipole Moment (Debye)
         X      13.1487      Y      -0.2654      Z       0.3884
       Tot      13.1571
    Quadrupole Moments (Debye-Ang)
        XX    -200.8149     XY     -23.4266     YY    -148.1508
        XZ       1.7165     YZ       1.4968     ZZ    -154.8592

 Total job time:  2086.21s(wall), 13019.14s(cpu)
        *  Thank you very much for using Q-Chem.  Have a nice day.  *
