 Q-Chem 5.4, Q-Chem, Inc., Pleasanton, CA (2021)
 Q-Chem 5.4.0 for Intel X86 EM64T Linux

User input:
--------------------------------------------------------------
$molecule
-2 1
C                 -1.2386430000      2.8664750000     -0.0378440000
C                 -2.5353870000      2.3950280000      0.0443580000
C                 -2.7756720000      0.9982700000      0.1089520000
C                 -0.1219960000      1.9956860000     -0.0623790000
C                 -0.3692330000      0.5755450000      0.0039360000
C                 -1.7032540000      0.1233200000      0.0872470000
C                  1.2167830000      2.5690810000     -0.1407540000
C                  2.2591790000      1.5792930000     -0.1550300000
C                  2.0256150000      0.2019570000     -0.0947060000
C                  0.7282490000     -0.3873770000     -0.0146930000
O                  1.4290850000      3.8289220000     -0.1923110000
O                  0.5379170000     -1.6546920000      0.0380420000
H                 -1.0251830000      3.9297420000     -0.0880440000
H                 -1.8484570000     -0.9519080000      0.1347200000
O                  3.5493600000      2.0998610000     -0.2540110000
C                  4.6276780000      1.2712140000      0.1221230000
C                  5.8549920000      2.1204740000      0.2913270000
C                  7.0826970000      1.7695980000     -0.0902280000
H                 -3.3706700000      3.0932660000      0.0588880000
H                 -3.7941820000      0.6199320000      0.1739930000
H                  2.8533450000     -0.4992190000     -0.1224450000
H                  4.8119730000      0.4752300000     -0.6131430000
H                  4.3973440000      0.7755850000      1.0806460000
H                  5.6829760000      3.0726280000      0.7883600000
H                  7.2690480000      0.8302840000     -0.6067210000
H                  7.9525490000      2.3935130000      0.0908240000
$end
$rem
MAX_SCF_CYCLES=200
BASIS  =  6-311++G(d,p)
GUI  =  2
JOB_TYPE  =  SP
METHOD  =  B3LYP
SOLVENT_METHOD = COSMO
$end
$solvent
dielectric 37.219
opticaldielectric 1.43
$end

--------------------------------------------------------------

             Standard Nuclear Orientation (Angstroms)
    I     Atom           X                Y                Z
 ----------------------------------------------------------------
    1      C       2.5220876176    -1.6701580159     0.0108446609
    2      C       3.8516648510    -1.2986093657     0.0796954062
    3      C       4.1994037028     0.0765154839     0.1105420518
    4      C       1.4760039323    -0.7164337787    -0.0326866414
    5      C       1.8324870800     0.6815004752    -0.0006888231
    6      C       3.1977477873     1.0310330954     0.0696699025
    7      C       0.0966515480    -1.1862544317    -0.0952104867
    8      C      -0.8661712594    -0.1194213654    -0.1314452777
    9      C      -0.5266490283     1.2367638775    -0.1043930052
   10      C       0.8126519926     1.7257132709    -0.0405459402
   11      O      -0.2125613656    -2.4267666825    -0.1163372114
   12      O       1.1005424502     2.9754022445    -0.0183848596
   13      H       2.2269175387    -2.7146187407    -0.0136164061
   14      H       3.4257804923     2.0926305564     0.0912283164
   15      O      -2.1930593142    -0.5408349681    -0.2159080465
   16      C      -3.2028076984     0.3774077095     0.1420597331
   17      C      -4.4914984220    -0.3701333181     0.3334515479
   18      C      -5.6897180674     0.0655182484    -0.0544081513
   19      H       4.6305294119    -2.0588221739     0.1095550365
   20      H       5.2443256413     0.3763745948     0.1649042631
   21      H      -1.2978015922     1.9990080919    -0.1475400666
   22      H      -3.3275599762     1.1676284744    -0.6117036768
   23      H      -2.9315610138     0.8762925814     1.0881079979
   24      H      -4.3918777931    -1.3207034158     0.8527980285
   25      H      -5.8046900422     1.0039384264    -0.5928796170
   26      H      -6.6045610459    -0.4847844585     0.1428772043
 ----------------------------------------------------------------

   18    -727.2074704124      6.87e-06  Convergence criterion met
 Total energy in the final basis set =     -727.2074704124
    6    -727.4937537634      3.39e-06  Convergence criterion met
 Total energy in the final basis set =     -727.4937537634

                    Orbital Energies (a.u.)
 --------------------------------------------------------------

 Alpha MOs
 -- Occupied --
-19.1265 -19.0251 -19.0214 -10.2132 -10.1845 -10.1777 -10.1738 -10.1720
-10.1632 -10.1497 -10.1477 -10.1467 -10.1450 -10.1390 -10.1368 -10.1235
 -1.0394  -0.9445  -0.9404  -0.8262  -0.7901  -0.7619  -0.7233  -0.7083
 -0.6812  -0.6333  -0.5902  -0.5769  -0.5580  -0.5309  -0.5008  -0.4842
 -0.4710  -0.4585  -0.4396  -0.4288  -0.4189  -0.4026  -0.3949  -0.3816
 -0.3764  -0.3729  -0.3627  -0.3518  -0.3370  -0.3272  -0.3248  -0.3177
 -0.3058  -0.2934  -0.2643  -0.2317  -0.2284  -0.2078  -0.2058  -0.2017
 -0.1119

          Ground-State Mulliken Net Atomic Charges

     Atom                 Charge (a.u.)
  ----------------------------------------
      1 C                     0.080315
      2 C                    -0.475832
      3 C                    -0.438959
      4 C                     0.074997
      5 C                     0.355464
      6 C                     0.115941
      7 C                    -0.486298
      8 C                    -0.406686
      9 C                     0.293252
     10 C                    -0.250716
     11 O                    -0.750811
     12 O                    -0.730814
     13 H                     0.153162
     14 H                     0.150934
     15 O                    -0.174473
     16 C                    -0.411419
     17 C                     0.049722
     18 C                    -0.536243
     19 H                     0.176843
     20 H                     0.176905
     21 H                     0.166450
     22 H                     0.157553
     23 H                     0.177878
     24 H                     0.203741
     25 H                     0.152416
     26 H                     0.176677
  ----------------------------------------
  Sum of atomic charges =    -2.000000

                    Cartesian Multipole Moments
 -----------------------------------------------------------------
    Charge (ESU x 10^10)
                -9.6064
    Dipole Moment (Debye)
         X      -6.4473      Y      -0.4116      Z       1.1895
       Tot       6.5690
    Quadrupole Moments (Debye-Ang)
        XX    -114.5318     XY     -17.4777     YY    -158.6385
        XZ      -1.5214     YZ      -2.6648     ZZ    -105.5440

 Total job time:  65.93s(wall), 500.62s(cpu)
        *  Thank you very much for using Q-Chem.  Have a nice day.  *
