 Q-Chem 5.4, Q-Chem, Inc., Pleasanton, CA (2021)
 Q-Chem 5.4.0 for Intel X86 EM64T Linux

User input:
--------------------------------------------------------------
$molecule
-2 1
C                 -1.1654240000      3.0059300000     -0.5479510000
C                 -2.4819670000      2.5948280000     -0.3656980000
C                 -2.7653610000      1.2817380000      0.0552350000
C                 -0.0979450000      2.1139170000     -0.3109150000
C                 -0.3885290000      0.7835500000      0.1107430000
C                 -1.7351490000      0.3849010000      0.2764290000
C                  1.2823200000      2.5885680000     -0.5023650000
C                  2.3017420000      1.6143190000     -0.2195520000
C                  1.9574780000      0.2820210000      0.2230190000
C                  0.6579670000     -0.1788490000      0.4169140000
O                  1.4415050000      3.7935360000     -0.8722040000
O                  0.3043620000     -1.3563020000      0.8444110000
H                 -3.7962250000      0.9679580000      0.1937920000
H                  2.7645850000     -0.4059650000      0.4388560000
C                 -2.0502520000     -1.0228520000      0.6912300000
O                 -2.5297360000     -1.3508110000      1.7606180000
O                 -2.0703260000     -1.8649110000     -0.3986210000
C                 -1.9681800000     -3.2462470000     -0.0709870000
H                 -3.2939380000      3.2877420000     -0.5644610000
H                 -1.9819560000     -3.7847340000     -1.0215400000
H                 -2.8024060000     -3.5741770000      0.5582740000
H                 -1.0192480000     -3.4085900000      0.4468990000
C                  3.6930670000      1.9885260000     -0.3633060000
O                  4.1987280000      3.0599730000     -0.6645730000
O                  4.5691040000      0.9034070000     -0.0962410000
C                 -0.9753450000      4.4239970000     -1.0346470000
O                 -1.2524480000      4.7734580000     -2.1609570000
O                 -0.8182720000      5.4105770000     -0.0920390000
C                 -0.2625700000      5.0824080000      1.1854720000
C                  5.9421600000      1.2120350000     -0.2076020000
H                 -0.3317640000      5.9985710000      1.7774040000
H                  0.7774580000      4.7791750000      1.0578430000
H                 -0.8293730000      4.2865700000      1.6769480000
H                  6.4781950000      0.2872270000      0.0254470000
H                  6.2438790000      2.0004970000      0.4921500000
H                  6.2065930000      1.5486170000     -1.2169540000
$end
$rem
MAX_SCF_CYCLES=200
BASIS  =  6-311++G(d,p)
GUI  =  2
JOB_TYPE  =  SP
METHOD  =  B3LYP
SOLVENT_METHOD = COSMO
$end
$solvent
dielectric 37.219
opticaldielectric 1.43
$end

--------------------------------------------------------------

             Standard Nuclear Orientation (Angstroms)
    I     Atom           X                Y                Z
 ----------------------------------------------------------------
    1      C      -0.2115427230    -2.1272117860     0.2841083901
    2      C      -1.5252417018    -2.5782586899     0.2049998266
    3      C      -2.5781027091    -1.6684403602    -0.0081114216
    4      C       0.0827563295    -0.7536856303     0.1492060548
    5      C      -0.9861694892     0.1655345762    -0.0618453389
    6      C      -2.3145638359    -0.3151676685    -0.1255015386
    7      C       1.4859881783    -0.3153788935     0.2260547869
    8      C       1.6879954235     1.0987750095     0.0595395251
    9      C       0.5727775950     1.9892166909    -0.1702594300
   10      C      -0.7582070938     1.5889825757    -0.2540310134
   11      O       2.3699123894    -1.2095137456     0.4084540372
   12      O      -1.7872610102     2.3497806047    -0.4915602629
   13      H      -3.6014522876    -2.0284488273    -0.0671542952
   14      H       0.7830987523     3.0420934299    -0.3064491488
   15      C      -3.4481752495     0.6497945093    -0.3175729774
   16      O      -4.1462149536     0.7266314133    -1.3114992162
   17      O      -3.8402437724     1.1950917218     0.8849970831
   18      C      -4.6158165074     2.3822451597     0.7624383795
   19      H      -1.7384513332    -3.6362653266     0.3237308506
   20      H      -4.8385109299     2.7050800726     1.7821902348
   21      H      -5.5465606466     2.2010648394     0.2144150689
   22      H      -4.0148056209     3.1349992374     0.2455435043
   23      C       3.0350170018     1.6279801664     0.1037675297
   24      O       4.1079959970     1.0554028040     0.2275607682
   25      O       3.0587615280     3.0417489692    -0.0263929617
   26      C       0.8367269096    -3.1829547517     0.5495412573
   27      O       0.9511272632    -3.7390472751     1.6196613177
   28      O       1.4404355008    -3.7746092405    -0.5330495094
   29      C       1.5435060456    -3.0521505109    -1.7642943296
   30      C       4.3486309972     3.6150439426    -0.0039225431
   31      H       1.9649229049    -3.7596346500    -2.4829040765
   32      H       2.2067364233    -2.1973842918    -1.6250182313
   33      H       0.5637917484    -2.7155290047    -2.1150339467
   34      H       4.2004573672     4.6934163234    -0.1137987378
   35      H       4.9775748836     3.2431764124    -0.8215432801
   36      H       4.8736201765     3.4076037362     0.9359490633
 ----------------------------------------------------------------

   11   -1219.0969793454      6.01e-06  Convergence criterion met
 Total energy in the final basis set =    -1219.0969793454
    5   -1219.3648302860      7.98e-06  Convergence criterion met
 Total energy in the final basis set =    -1219.3648302860

                    Orbital Energies (a.u.)
 --------------------------------------------------------------

 Alpha MOs
 -- Occupied --
-19.1579 -19.1489 -19.1387 -19.1111 -19.1059 -19.0909 -19.0542 -19.0363
-10.3094 -10.3034 -10.2779 -10.2117 -10.2068 -10.2033 -10.2028 -10.1901
-10.1872 -10.1835 -10.1782 -10.1764 -10.1717 -10.1706 -10.1534 -10.1335
 -1.0960  -1.0913  -1.0750  -1.0197  -1.0102  -0.9942  -0.9778  -0.9509
 -0.8617  -0.7952  -0.7795  -0.7471  -0.7160  -0.7084  -0.6958  -0.6713
 -0.6459  -0.6220  -0.5907  -0.5734  -0.5496  -0.5393  -0.5201  -0.5022
 -0.5007  -0.4812  -0.4752  -0.4746  -0.4703  -0.4646  -0.4606  -0.4600
 -0.4455  -0.4384  -0.4274  -0.4174  -0.4096  -0.4035  -0.3988  -0.3900
 -0.3862  -0.3816  -0.3787  -0.3760  -0.3576  -0.3504  -0.3487  -0.3470
 -0.3419  -0.3352  -0.3302  -0.2968  -0.2911  -0.2883  -0.2869  -0.2827
 -0.2724  -0.2504  -0.2461  -0.2384  -0.2235  -0.2162  -0.1424

          Ground-State Mulliken Net Atomic Charges

     Atom                 Charge (a.u.)
  ----------------------------------------
      1 C                     0.132169
      2 C                     0.221228
      3 C                    -0.050760
      4 C                     0.326441
      5 C                     0.504013
      6 C                     0.469691
      7 C                    -0.515182
      8 C                     0.018201
      9 C                    -0.618909
     10 C                    -0.719440
     11 O                    -0.512733
     12 O                    -0.612340
     13 H                     0.215176
     14 H                     0.185812
     15 C                    -0.544436
     16 O                    -0.309263
     17 O                    -0.026209
     18 C                    -0.254517
     19 H                     0.229597
     20 H                     0.168403
     21 H                     0.155885
     22 H                     0.188496
     23 C                     0.249585
     24 O                    -0.404270
     25 O                    -0.214433
     26 C                    -0.266350
     27 O                    -0.353000
     28 O                    -0.090398
     29 C                    -0.377452
     30 C                    -0.254458
     31 H                     0.174160
     32 H                     0.218887
     33 H                     0.159228
     34 H                     0.155909
     35 H                     0.176447
     36 H                     0.174823
  ----------------------------------------
  Sum of atomic charges =    -2.000000

                    Cartesian Multipole Moments
 -----------------------------------------------------------------
    Charge (ESU x 10^10)
                -9.6064
    Dipole Moment (Debye)
         X      -4.2619      Y      -0.4115      Z      -2.4205
       Tot       4.9185
    Quadrupole Moments (Debye-Ang)
        XX    -208.3295     XY      28.3574     YY    -188.6286
        XZ     -24.1149     YZ      24.4127     ZZ    -155.5266

 Total job time:  131.69s(wall), 968.02s(cpu)
        *  Thank you very much for using Q-Chem.  Have a nice day.  *
