 Gaussian 16, Revision A.03,

 -------------------------
 #P HF/6-311++G(d,p) nosym
 -------------------------

 -------
 Reduced
 -------
 Symbolic Z-matrix:
 Charge = -2 Multiplicity = 1

 SCF Done:  E(RHF) =  -1159.68815037     A.U. after   23 cycles
 Normal termination of Gaussian 16 at Thu Dec 21 07:58:38 2023.
 Gaussian 16:  ES64L-G16RevA.03 25-Dec-2016

 ------------------------------------------------------------------
 #P UB3LYP/6-311++G(d,p) nosym guess=read geom=check nosym opt freq
 ------------------------------------------------------------------

 -------------------------------------------
 Then here read in HF orbitals and run B3LYP
 -------------------------------------------
 Structure from the checkpoint file:  "052-an.chk"
 Charge = -2 Multiplicity = 1

 SCF Done:  E(UB3LYP) =  -1165.06211918     A.U. after   24 cycles
 SCF Done:  E(UB3LYP) =  -1163.70439847     A.U. after   31 cycles
 SCF Done:  E(UB3LYP) =  -1165.04234107     A.U. after   20 cycles
 SCF Done:  E(UB3LYP) =  -1165.06570702     A.U. after   20 cycles
 SCF Done:  E(UB3LYP) =  -1165.06998208     A.U. after   18 cycles
 SCF Done:  E(UB3LYP) =  -1165.06861043     A.U. after   17 cycles
 SCF Done:  E(UB3LYP) =  -1165.07327020     A.U. after   16 cycles
 SCF Done:  E(UB3LYP) =  -1165.07438380     A.U. after   17 cycles
 SCF Done:  E(UB3LYP) =  -1165.07426969     A.U. after   17 cycles
 SCF Done:  E(UB3LYP) =  -1165.09144471     A.U. after   13 cycles
 SCF Done:  E(UB3LYP) =  -1165.09145388     A.U. after   13 cycles
 SCF Done:  E(UB3LYP) =  -1165.09145661     A.U. after   12 cycles
 SCF Done:  E(UB3LYP) =  -1165.09145886     A.U. after   11 cycles
 SCF Done:  E(UB3LYP) =  -1165.09146074     A.U. after   12 cycles
 SCF Done:  E(UB3LYP) =  -1165.09146143     A.U. after   11 cycles
 SCF Done:  E(UB3LYP) =  -1165.09146163     A.U. after   11 cycles
 SCF Done:  E(UB3LYP) =  -1165.09146168     A.U. after   10 cycles
 SCF Done:  E(UB3LYP) =  -1165.09146170     A.U. after   10 cycles
 Optimization completed.
    -- Stationary point found.
 Normal termination of Gaussian 16 at Thu Dec 21 14:42:12 2023.

 ----------------------------------------------------------------------
 #P Geom=AllCheck Guess=TCheck SCRF=Check GenChk UB3LYP/6-311++G(d,p) F
 req
 ----------------------------------------------------------------------

 Structure from the checkpoint file:  "052-an.chk"
 -------------------------------------------
 Then here read in HF orbitals and run B3LYP
 -------------------------------------------
 Charge = -2 Multiplicity = 1

                         Standard orientation:
 ---------------------------------------------------------------------
 Center     Atomic      Atomic             Coordinates (Angstroms)
 Number     Number       Type             X           Y           Z
 ---------------------------------------------------------------------
      1          6           0       -0.353821    0.610697    0.466825
      2          6           0       -1.450193    1.459885    0.240465
      3          6           0       -2.701239    0.941466   -0.125814
      4          6           0       -2.923004   -0.472082   -0.274161
      5          6           0       -1.770659   -1.323929   -0.074952
      6          6           0       -0.530171   -0.780872    0.298543
      7          8           0        0.832399    1.137918    0.957475
      8          8           0       -4.072813   -0.963636   -0.581249
      9          6           0       -1.273679    2.953035    0.419808
     10          6           0       -3.879581    1.852713   -0.370901
     11          6           0       -2.006363   -2.797202   -0.289900
     12         16           0        0.854318   -1.890689    0.665638
     13          6           0        2.211960   -1.267957   -0.439032
     14          6           0        3.426193   -0.645213    0.269667
     15          6           0        3.933581    0.654821   -0.428526
     16          8           0        5.159444    0.749937   -0.660761
     17          8           0        3.031515    1.511488   -0.668235
     18          1           0       -0.269150    3.175021    0.778988
     19          1           0       -2.000270    3.359862    1.136102
     20          1           0       -1.429458    3.493712   -0.523706
     21          1           0       -3.662369    2.629357   -1.119018
     22          1           0       -4.204254    2.381475    0.539761
     23          1           0       -4.713032    1.240834   -0.723344
     24          1           0       -2.734462   -2.924184   -1.096958
     25          1           0       -2.456477   -3.273518    0.595173
     26          1           0       -1.078832   -3.327227   -0.515119
     27          1           0        1.742976   -0.535327   -1.093636
     28          1           0        2.518796   -2.116988   -1.057061
     29          1           0        4.249414   -1.361141    0.347725
     30          1           0        3.132622   -0.356638    1.283394
     31          1           0        1.532907    1.267964    0.267535
 ---------------------------------------------------------------------

 SCF Done:  E(UB3LYP) =  -1165.09146170     A.U. after    2 cycles

 The electronic state is 1-A.
 Alpha  occ. eigenvalues --  -88.60818 -18.86943 -18.82459 -18.82211 -18.79300
 Alpha  occ. eigenvalues --  -10.01594  -9.97075  -9.96499  -9.95642  -9.95335
 Alpha  occ. eigenvalues --   -9.94412  -9.93703  -9.93619  -9.93205  -9.92733
 Alpha  occ. eigenvalues --   -9.92125  -9.91609  -7.69406  -5.65798  -5.65433
 Alpha  occ. eigenvalues --   -5.64800  -0.78510  -0.77434  -0.71192  -0.69807
 Alpha  occ. eigenvalues --   -0.59822  -0.57122  -0.54368  -0.50134  -0.49021
 Alpha  occ. eigenvalues --   -0.47235  -0.42025  -0.41055  -0.37523  -0.32155
 Alpha  occ. eigenvalues --   -0.31102  -0.27330  -0.26263  -0.25934  -0.22772
 Alpha  occ. eigenvalues --   -0.21235  -0.20878  -0.18913  -0.18647  -0.17982
 Alpha  occ. eigenvalues --   -0.17718  -0.17251  -0.16857  -0.16631  -0.16165
 Alpha  occ. eigenvalues --   -0.15198  -0.14717  -0.14189  -0.13446  -0.11428
 Alpha  occ. eigenvalues --   -0.11085  -0.10525  -0.09810  -0.08109  -0.04941
 Alpha  occ. eigenvalues --   -0.04018  -0.01566  -0.01331  -0.00338   0.00875
 Alpha  occ. eigenvalues --    0.01972   0.03149   0.07577
 Alpha virt. eigenvalues --    0.16048   0.17078   0.18044   0.18392   0.19231
 Alpha virt. eigenvalues --    0.19611   0.20720   0.21086   0.21325   0.21795
 Alpha virt. eigenvalues --    0.22152   0.22815   0.23118   0.23775   0.24342

  Beta  occ. eigenvalues --  -88.60818 -18.86943 -18.82459 -18.82211 -18.79300
  Beta  occ. eigenvalues --  -10.01594  -9.97075  -9.96499  -9.95642  -9.95335
  Beta  occ. eigenvalues --   -9.94412  -9.93703  -9.93619  -9.93205  -9.92733
  Beta  occ. eigenvalues --   -9.92125  -9.91609  -7.69406  -5.65798  -5.65433
  Beta  occ. eigenvalues --   -5.64800  -0.78510  -0.77434  -0.71192  -0.69807
  Beta  occ. eigenvalues --   -0.59822  -0.57122  -0.54368  -0.50134  -0.49021
  Beta  occ. eigenvalues --   -0.47235  -0.42025  -0.41055  -0.37523  -0.32155
  Beta  occ. eigenvalues --   -0.31102  -0.27330  -0.26263  -0.25934  -0.22772
  Beta  occ. eigenvalues --   -0.21235  -0.20878  -0.18913  -0.18647  -0.17982
  Beta  occ. eigenvalues --   -0.17718  -0.17251  -0.16857  -0.16631  -0.16165
  Beta  occ. eigenvalues --   -0.15198  -0.14717  -0.14189  -0.13446  -0.11428
  Beta  occ. eigenvalues --   -0.11085  -0.10525  -0.09810  -0.08109  -0.04941
  Beta  occ. eigenvalues --   -0.04018  -0.01566  -0.01331  -0.00338   0.00875
  Beta  occ. eigenvalues --    0.01972   0.03149   0.07577
  Beta virt. eigenvalues --    0.16048   0.17078   0.18044   0.18392   0.19231
  Beta virt. eigenvalues --    0.19611   0.20720   0.21086   0.21325   0.21795
  Beta virt. eigenvalues --    0.22152   0.22815   0.23118   0.23775   0.24342

 Mulliken charges and spin densities:
               1          2
     1  C   -1.153397   0.000000
     2  C    1.202175  -0.000000
     3  C    0.811190   0.000000
     4  C   -2.156020   0.000000
     5  C    0.373576  -0.000000
     6  C    1.290829  -0.000000
     7  O   -0.270691  -0.000000
     8  O   -0.507142   0.000000
     9  C   -0.527429  -0.000000
    10  C   -0.673160   0.000000
    11  C   -0.380073  -0.000000
    12  S   -0.405532  -0.000000
    13  C   -0.347768   0.000000
    14  C   -0.371285  -0.000000
    15  C   -0.054675   0.000000
    16  O   -0.452953  -0.000000
    17  O   -0.456486  -0.000000
    18  H    0.189352  -0.000000
    19  H    0.091386   0.000000
    20  H    0.103930  -0.000000
    21  H    0.091167   0.000000
    22  H    0.089463   0.000000
    23  H    0.188768  -0.000000
    24  H    0.155897  -0.000000
    25  H    0.103724  -0.000000
    26  H    0.096668   0.000000
    27  H    0.197946   0.000000
    28  H    0.167111   0.000000
    29  H    0.135574  -0.000000
    30  H    0.141791  -0.000000
    31  H    0.326065  -0.000000
 Sum of Mulliken charges =  -2.00000  -0.00000

 Dipole moment (field-independent basis, Debye):
    X=             -2.9370    Y=             -1.4689    Z=              1.8187  Tot=              3.7538
 Quadrupole moment (field-independent basis, Debye-Ang):
   XX=           -257.8853   YY=           -144.8337   ZZ=           -125.0116
   XY=            -27.1255   XZ=              3.0067   YZ=              3.1937

  Exact polarizability: 276.380  -8.580 232.835   9.129  -2.094 140.217
 Approx polarizability: 378.201  -5.574 338.014  20.354  -0.377 223.060

                      1                      2                      3
                      A                      A                      A
 Frequencies --     38.5319                53.6896                62.2338
 Red. masses --      7.3667                 4.8667                 3.6488
 Frc consts  --      0.0064                 0.0083                 0.0083
 IR Inten    --      4.4487                 2.3633                 6.4116

                      4                      5                      6
                      A                      A                      A
 Frequencies --     67.2475                78.8357                87.3589
 Red. masses --      4.5791                 1.1842                 1.2164
 Frc consts  --      0.0122                 0.0043                 0.0055
 IR Inten    --      3.0663                 0.4697                 3.7474

                      7                      8                      9
                      A                      A                      A
 Frequencies --    101.5315               126.4957               135.7706
 Red. masses --      3.3794                 2.2259                 1.6954
 Frc consts  --      0.0205                 0.0210                 0.0184
 IR Inten    --     12.3352                10.7232                 0.6174

                     10                     11                     12
                      A                      A                      A
 Frequencies --    147.3056               185.9242               202.0014
 Red. masses --      1.9864                 5.7228                 5.4760
 Frc consts  --      0.0254                 0.1166                 0.1317
 IR Inten    --      7.5146                 0.0357                 1.8522

                     13                     14                     15
                      A                      A                      A
 Frequencies --    228.0479               263.1565               284.4208
 Red. masses --      4.7538                 3.1469                 5.5811
 Frc consts  --      0.1457                 0.1284                 0.2660
 IR Inten    --      3.6994                23.5355                 2.8208

                     16                     17                     18
                      A                      A                      A
 Frequencies --    309.9903               324.8515               336.2050
 Red. masses --      2.7590                 4.3174                 3.4408
 Frc consts  --      0.1562                 0.2684                 0.2292
 IR Inten    --      1.1556                 0.9843                 1.3553

                     19                     20                     21
                      A                      A                      A
 Frequencies --    342.8773               370.2952               393.4068
 Red. masses --      4.3141                 5.2371                 7.3365
 Frc consts  --      0.2988                 0.4231                 0.6690
 IR Inten    --      0.7110                 6.6288                 8.9728

                     22                     23                     24
                      A                      A                      A
 Frequencies --    400.2908               437.3405               457.3403
 Red. masses --      6.7199                 2.8866                 5.9500
 Frc consts  --      0.6344                 0.3253                 0.7332
 IR Inten    --      1.6682                 2.6362                 8.8015

                     25                     26                     27
                      A                      A                      A
 Frequencies --    521.7829               567.6763               580.7112
 Red. masses --      7.3509                 4.6214                 4.8195
 Frc consts  --      1.1791                 0.8774                 0.9576
 IR Inten    --      4.8125                 0.4677                13.3530

                     28                     29                     30
                      A                      A                      A
 Frequencies --    617.0149               653.8561               670.1144
 Red. masses --      4.5853                 5.5123                 5.1554
 Frc consts  --      1.0285                 1.3885                 1.3640
 IR Inten    --     20.9434                12.2058                 1.7208

                     31                     32                     33
                      A                      A                      A
 Frequencies --    674.8390               698.3689               763.3759
 Red. masses --      3.6846                 2.5114                 5.7041
 Frc consts  --      0.9887                 0.7217                 1.9585
 IR Inten    --      1.4852                 3.3003                 3.0936

                     34                     35                     36
                      A                      A                      A
 Frequencies --    788.7336               824.3484               854.3152
 Red. masses --      5.0362                 3.3158                 1.0956
 Frc consts  --      1.8459                 1.3276                 0.4711
 IR Inten    --     26.7006                18.4656                93.7002

                     37                     38                     39
                      A                      A                      A
 Frequencies --    874.5596               917.1717               964.8485
 Red. masses --      2.7989                 3.5957                 2.3892
 Frc consts  --      1.2613                 1.7821                 1.3105
 IR Inten    --     14.5516                30.8155                14.8738

                     40                     41                     42
                      A                      A                      A
 Frequencies --    982.3280              1005.6161              1023.9478
 Red. masses --      1.8524                 2.1628                 3.5576
 Frc consts  --      1.0532                 1.2886                 2.1977
 IR Inten    --     14.9545                25.8053                14.0319

                     43                     44                     45
                      A                      A                      A
 Frequencies --   1029.6916              1029.9649              1047.3463
 Red. masses --      1.4029                 2.0825                 1.4652
 Frc consts  --      0.8764                 1.3016                 0.9469
 IR Inten    --      0.2052                37.4195                 5.3932

                     46                     47                     48
                      A                      A                      A
 Frequencies --   1056.4557              1083.6192              1116.7483
 Red. masses --      1.5013                 2.3381                 4.2742
 Frc consts  --      0.9872                 1.6176                 3.1406
 IR Inten    --      3.6558                36.3597                 6.2462

                     49                     50                     51
                      A                      A                      A
 Frequencies --   1154.9903              1218.0406              1236.5624
 Red. masses --      1.1197                 1.1645                 5.8602
 Frc consts  --      0.8800                 1.0179                 5.2795
 IR Inten    --      1.1741                 2.0864                57.3150

                     52                     53                     54
                      A                      A                      A
 Frequencies --   1262.3103              1276.4903              1300.3746
 Red. masses --      4.0185                 1.2681                 1.3680
 Frc consts  --      3.7726                 1.2175                 1.3629
 IR Inten    --     11.2528                55.5638                12.6338

                     55                     56                     57
                      A                      A                      A
 Frequencies --   1318.3768              1353.4729              1358.2685
 Red. masses --      2.2175                 5.8964                 1.6150
 Frc consts  --      2.2709                 6.3640                 1.7555
 IR Inten    --    139.8221               127.9735               169.5565

                     58                     59                     60
                      A                      A                      A
 Frequencies --   1373.4211              1379.6515              1389.9406
 Red. masses --      1.5648                 1.3418                 1.3870
 Frc consts  --      1.7390                 1.5048                 1.5788
 IR Inten    --    129.7869                 7.1987                16.7711

                     61                     62                     63
                      A                      A                      A
 Frequencies --   1432.0038              1455.8039              1459.5550
 Red. masses --      4.5706                 2.6452                 1.3201
 Frc consts  --      5.5222                 3.3031                 1.6570
 IR Inten    --     18.8839               336.0922                82.2327

                     64                     65                     66
                      A                      A                      A
 Frequencies --   1464.7781              1469.1762              1477.5621
 Red. masses --      1.1667                 1.1316                 1.0927
 Frc consts  --      1.4748                 1.4391                 1.4055
 IR Inten    --      8.5113                23.8634                 7.0659

                     67                     68                     69
                      A                      A                      A
 Frequencies --   1479.1451              1489.3556              1497.9390
 Red. masses --      1.0987                 1.0575                 1.1335
 Frc consts  --      1.4163                 1.3820                 1.4985
 IR Inten    --     11.7535                 0.1731                12.9968

                     70                     71                     72
                      A                      A                      A
 Frequencies --   1504.2957              1535.4149              1580.0662
 Red. masses --      1.0539                 4.1908                 6.5717
 Frc consts  --      1.4052                 5.8210                 9.6667
 IR Inten    --      7.3602                35.5861               103.7883

                     73                     74                     75
                      A                      A                      A
 Frequencies --   1635.9684              2940.9020              2952.6037
 Red. masses --      9.7465                 1.0529                 1.0624
 Frc consts  --     15.3692                 5.3653                 5.4568
 IR Inten    --    840.5672               209.8965               167.9258

                     76                     77                     78
                      A                      A                      A
 Frequencies --   2969.5155              2977.7503              3004.0910
 Red. masses --      1.0853                 1.0432                 1.0986
 Frc consts  --      5.6387                 5.4499                 5.8415
 IR Inten    --     89.6411               170.7209                58.8649

                     79                     80                     81
                      A                      A                      A
 Frequencies --   3021.0936              3029.7124              3031.0502
 Red. masses --      1.0670                 1.0615                 1.0686
 Frc consts  --      5.7376                 5.7408                 5.7845
 IR Inten    --     39.7143                63.1344                66.4839

                     82                     83                     84
                      A                      A                      A
 Frequencies --   3069.9349              3081.2661              3089.6847
 Red. masses --      1.1020                 1.0917                 1.1003
 Frc consts  --      6.1190                 6.1070                 6.1884
 IR Inten    --     46.2004                11.6027                15.6717

                     85                     86                     87
                      A                      A                      A
 Frequencies --   3113.9522              3116.4209              3251.5520
 Red. masses --      1.0921                 1.0960                 1.0755
 Frc consts  --      6.2394                 6.2715                 6.6993
 IR Inten    --     11.9883                 9.1487              1350.4770

 - Thermochemistry -
 -------------------
 Temperature   298.150 Kelvin.  Pressure   1.00000 Atm.
 Atom     1 has atomic number  6 and mass  12.00000

 Molecular mass:   254.06128 amu.
 Principal axes and moments of inertia in atomic units:
                           1         2         3
     Eigenvalues --  2488.714866974.963008933.47205
           X            0.99972  -0.02358   0.00364
           Y            0.02353   0.99964   0.01256
           Z           -0.00393  -0.01247   0.99991
 This molecule is an asymmetric top.
 Rotational symmetry number  1.
 Warning -- assumption of classical behavior for rotation
           may cause significant error
 Rotational temperatures (Kelvin)      0.03480     0.01242     0.00970
 Rotational constants (GHZ):           0.72517     0.25875     0.20202
 Zero-point vibrational energy     619277.3 (Joules/Mol)
                                  148.01082 (Kcal/Mol)
 Warning -- explicit consideration of  28 degrees of freedom as
           vibrations may cause significant error
 Vibrational temperatures:     55.44    77.25    89.54    96.75   113.43
          (Kelvin)            125.69   146.08   182.00   195.34   211.94
                              267.50   290.63   328.11   378.62   409.22
                              446.01   467.39   483.72   493.32   532.77
                              566.02   575.93   629.24   658.01   750.73
                              816.76   835.51   887.75   940.75   964.15
                              970.94  1004.80  1098.33  1134.81  1186.05
                             1229.17  1258.30  1319.61  1388.20  1413.35
                             1446.86  1473.23  1481.50  1481.89  1506.90
                             1520.00  1559.09  1606.75  1661.77  1752.49
                             1779.14  1816.18  1836.58  1870.95  1896.85
                             1947.35  1954.25  1976.05  1985.01  1999.81
                             2060.33  2094.58  2099.97  2107.49  2113.82
                             2125.88  2128.16  2142.85  2155.20  2164.35
                             2209.12  2273.36  2353.79  4231.30  4248.14
                             4272.47  4284.32  4322.22  4346.68  4359.08
                             4361.01  4416.95  4433.25  4445.37  4480.28
                             4483.83  4678.26

 Zero-point correction=                           0.235870 (Hartree/Particle)
 Thermal correction to Energy=                    0.254026
 Thermal correction to Enthalpy=                  0.254970
 Thermal correction to Gibbs Free Energy=         0.188882
 Sum of electronic and zero-point Energies=          -1164.855591
 Sum of electronic and thermal Energies=             -1164.837436
 Sum of electronic and thermal Enthalpies=           -1164.836491
 Sum of electronic and thermal Free Energies=        -1164.902580

                     E (Thermal)             CV                S
                      KCal/Mol        Cal/Mol-Kelvin    Cal/Mol-Kelvin
 Total                  159.404             65.817            139.094
 Electronic               0.000              0.000              0.000
 Translational            0.889              2.981             42.497
 Rotational               0.889              2.981             33.405
 Vibrational            157.626             59.856             63.192
 Vibration     1          0.594              1.981              5.333
 Vibration     2          0.596              1.976              4.677
 Vibration     3          0.597              1.972              4.385
 Vibration     4          0.598              1.970              4.232
 Vibration     5          0.600              1.963              3.920
 Vibration     6          0.601              1.958              3.718
 Vibration     7          0.604              1.948              3.425
 Vibration     8          0.611              1.927              2.999
 Vibration     9          0.614              1.918              2.863
 Vibration    10          0.617              1.906              2.707
 Vibration    11          0.632              1.859              2.268
 Vibration    12          0.639              1.837              2.115
 Vibration    13          0.651              1.798              1.894
 Vibration    14          0.670              1.740              1.641
 Vibration    15          0.683              1.703              1.507
 Vibration    16          0.699              1.655              1.362
 Vibration    17          0.709              1.626              1.286
 Vibration    18          0.717              1.603              1.230
 Vibration    19          0.722              1.590              1.199
 Vibration    20          0.742              1.533              1.079
 Vibration    21          0.761              1.484              0.987
 Vibration    22          0.766              1.469              0.962
 Vibration    23          0.798              1.389              0.835
 Vibration    24          0.815              1.345              0.774
 Vibration    25          0.877              1.202              0.606
 Vibration    26          0.924              1.101              0.509
 Vibration    27          0.937              1.073              0.484
 Vibration    28          0.977              0.996              0.421

                           ! Non-Optimized Parameters !
 Normal termination of Gaussian 16 at Thu Dec 21 15:54:17 2023.
