 Gaussian 16, Revision A.03,
 Gaussian 16:  ES64L-G16RevA.03 25-Dec-2016

 ----------------------------------------------------------------
 #P UB3LYP/6-311++G(d,p) SCRF=(PCM,Solvent=n,n-DiMethylFormamide)
 ----------------------------------------------------------------

 ------------------
 Quinone PCM in DMF
 ------------------
 Symbolic Z-matrix:
 Charge =  0 Multiplicity = 1

                         Standard orientation:
 ---------------------------------------------------------------------
 Center     Atomic      Atomic             Coordinates (Angstroms)
 Number     Number       Type             X           Y           Z
 ---------------------------------------------------------------------
      1          6           0       -1.761969   -1.183371   -0.000022
      2          6           0       -2.990064   -0.525245    0.000038
      3          6           0       -3.039546    0.874494    0.000054
      4          6           0       -0.580397   -0.441803   -0.000067
      5          6           0       -0.620944    0.960300   -0.000054
      6          6           0       -1.861949    1.605212    0.000009
      7          6           0        0.719110   -1.173067   -0.000125
      8          6           0        1.969846   -0.330080   -0.000036
      9          6           0        1.910143    1.021577   -0.000032
     10          6           0        0.637495    1.755157   -0.000117
     11          8           0        0.785135   -2.385025   -0.000058
     12          8           0        0.624393    2.979536    0.000022
     13          1           0       -1.699689   -2.266673   -0.000035
     14          1           0       -1.880968    2.688157    0.000015
     15          8           0        3.077442   -1.076884    0.000026
     16          8           0       -4.179038   -1.189017    0.000084
     17          1           0       -4.006094    1.363477    0.000098
     18          1           0        2.796287    1.642640    0.000021
     19          6           0        4.343360   -0.415526    0.000140
     20          1           0       -4.027970   -2.140677    0.000073
     21          1           0        5.087987   -1.208226    0.000216
     22          1           0        4.458155    0.203271    0.895001
     23          1           0        4.458325    0.203261   -0.894707
 ---------------------------------------------------------------------

 SCF Done:  E(UB3LYP) =  -725.084647503     A.U. after   15 cycles

 The electronic state is 1-A.
 Alpha  occ. eigenvalues --  -19.18996 -19.17658 -19.14554 -19.12683 -10.29490
 Alpha  occ. eigenvalues --  -10.28044 -10.27615 -10.26611 -10.23480 -10.21545
 Alpha  occ. eigenvalues --  -10.20423 -10.20218 -10.20194 -10.19840 -10.19816
 Alpha  occ. eigenvalues --   -1.11232  -1.08895  -1.07524  -1.06003  -0.89283
 Alpha  occ. eigenvalues --   -0.83711  -0.78569  -0.77621  -0.74580  -0.69138
 Alpha  occ. eigenvalues --   -0.66663  -0.63199  -0.60213  -0.58254  -0.55328
 Alpha  occ. eigenvalues --   -0.54381  -0.51253  -0.50400  -0.49702  -0.47273
 Alpha  occ. eigenvalues --   -0.46075  -0.45761  -0.45475  -0.45160  -0.44088
 Alpha  occ. eigenvalues --   -0.43133  -0.42127  -0.41633  -0.40033  -0.37646
 Alpha  occ. eigenvalues --   -0.37294  -0.36752  -0.35483  -0.29463  -0.28898
 Alpha  occ. eigenvalues --   -0.27948  -0.27434  -0.25425
 Alpha virt. eigenvalues --   -0.12370  -0.05545  -0.02298  -0.00835  -0.00117
 Alpha virt. eigenvalues --    0.00842   0.01562   0.02184   0.02229   0.03320
 Alpha virt. eigenvalues --    0.03675   0.04219   0.04720   0.05143   0.05658

  Beta  occ. eigenvalues --  -19.18996 -19.17658 -19.14554 -19.12683 -10.29490
  Beta  occ. eigenvalues --  -10.28044 -10.27615 -10.26611 -10.23480 -10.21545
  Beta  occ. eigenvalues --  -10.20423 -10.20218 -10.20194 -10.19840 -10.19816
  Beta  occ. eigenvalues --   -1.11232  -1.08895  -1.07524  -1.06003  -0.89283
  Beta  occ. eigenvalues --   -0.83711  -0.78569  -0.77621  -0.74580  -0.69138
  Beta  occ. eigenvalues --   -0.66663  -0.63199  -0.60213  -0.58254  -0.55328
  Beta  occ. eigenvalues --   -0.54381  -0.51253  -0.50400  -0.49702  -0.47273
  Beta  occ. eigenvalues --   -0.46075  -0.45761  -0.45475  -0.45160  -0.44088
  Beta  occ. eigenvalues --   -0.43133  -0.42127  -0.41633  -0.40033  -0.37646
  Beta  occ. eigenvalues --   -0.37294  -0.36752  -0.35483  -0.29463  -0.28898
  Beta  occ. eigenvalues --   -0.27948  -0.27434  -0.25425
  Beta virt. eigenvalues --   -0.12370  -0.05545  -0.02298  -0.00835  -0.00117
  Beta virt. eigenvalues --    0.00842   0.01562   0.02184   0.02229   0.03320
  Beta virt. eigenvalues --    0.03675   0.04219   0.04720   0.05143   0.05658

 Mulliken charges and spin densities:
               1          2
     1  C    0.410153  -0.000000
     2  C   -0.576271   0.000000
     3  C   -0.147804  -0.000000
     4  C    0.637788   0.000000
     5  C    0.022826  -0.000000
     6  C    0.247354   0.000000
     7  C   -0.737555  -0.000000
     8  C   -0.342277  -0.000000
     9  C    0.534466   0.000000
    10  C   -0.395806  -0.000000
    11  O   -0.273310   0.000000
    12  O   -0.322988   0.000000
    13  H    0.168644  -0.000000
    14  H    0.189173   0.000000
    15  O   -0.162202   0.000000
    16  O   -0.251849  -0.000000
    17  H    0.228699  -0.000000
    18  H    0.238343  -0.000000
    19  C   -0.341781  -0.000000
    20  H    0.310636   0.000000
    21  H    0.206456   0.000000
    22  H    0.178650   0.000000
    23  H    0.178655   0.000000
 Sum of Mulliken charges =  -0.00000  -0.00000

 Dipole moment (field-independent basis, Debye):
    X=              0.7622    Y=             -1.6742    Z=             -0.0000  Tot=              1.8395
 Quadrupole moment (field-independent basis, Debye-Ang):
   XX=            -62.6959   YY=           -101.0488   ZZ=            -86.9059
   XY=              7.0702   XZ=              0.0007   YZ=             -0.0005

 Normal termination of Gaussian 16 at Sun Jan 21 08:02:43 2024.
