 Q-Chem 5.4, Q-Chem, Inc., Pleasanton, CA (2021)
 Q-Chem 5.4.0 for Intel X86 EM64T Linux

User input:
--------------------------------------------------------------
$molecule
-2 1
C                 -1.9488250000      3.0533510000      0.1655620000
C                 -2.8894830000      2.2562140000      0.7872290000
C                 -2.5836350000      0.9047420000      1.0927160000
C                 -0.6648070000      2.5576600000     -0.1834440000
C                 -0.3518240000      1.1797500000      0.1282380000
C                 -1.3356420000      0.3978330000      0.7624950000
C                  0.2992430000      3.3934790000     -0.8287630000
C                  1.5510760000      2.7781350000     -1.1289110000
C                  1.8924450000      1.4551890000     -0.8512970000
C                  0.9489650000      0.5867000000     -0.1986010000
O                  0.1359330000      4.6429690000     -1.1665900000
O                  1.2206560000     -0.6329370000      0.0749080000
H                 -2.1619930000      4.0897620000     -0.0777170000
H                 -3.8658570000      2.6641400000      1.0435800000
H                 -3.3215600000      0.2739240000      1.5837200000
H                 -1.0694070000     -0.6314480000      0.9831930000
C                  3.2423710000      0.9012560000     -1.2342370000
O                  2.4296520000      3.6362630000     -1.7552430000
H                  3.6339750000      1.4478260000     -2.1003420000
H                  3.1079210000     -0.1491960000     -1.5181400000
H                  1.8639240000      4.4479340000     -1.7937950000
C                  4.2867300000      0.9564530000     -0.1001700000
C                  5.6461460000      0.3607900000     -0.4957530000
C                  6.7026740000      0.4101020000      0.6152680000
C                  8.0589820000     -0.1842060000      0.2156550000
H                  3.8832860000      0.4148910000      0.7623560000
H                  4.4221200000      2.0003230000      0.2095210000
H                  6.0312850000      0.8910110000     -1.3786470000
H                  5.5029450000     -0.6831580000     -0.8073650000
H                  6.3195510000     -0.1210490000      1.4960320000
H                  6.8434860000      1.4524810000      0.9301120000
H                  7.9642790000     -1.2380370000     -0.0714710000
H                  8.7913030000     -0.1364550000      1.0301750000
H                  8.4928130000      0.3485690000     -0.6388320000
$end

$rem
BASIS  =  6-311++G(d,p)
GUI  =  2
JOB_TYPE  =  SP
METHOD  =  B3LYP
SCF_CONVERGENCE  = 8
SOLVENT_METHOD = sm12
$end

$smx
solvent dimethylformamide
charges CM5
$end

--------------------------------------------------------------

             Standard Nuclear Orientation (Angstroms)
    I     Atom           X                Y                Z
 ----------------------------------------------------------------
    1      C      -1.9488250000     3.0533510000     0.1655620000
    2      C      -2.8894830000     2.2562140000     0.7872290000
    3      C      -2.5836350000     0.9047420000     1.0927160000
    4      C      -0.6648070000     2.5576600000    -0.1834440000
    5      C      -0.3518240000     1.1797500000     0.1282380000
    6      C      -1.3356420000     0.3978330000     0.7624950000
    7      C       0.2992430000     3.3934790000    -0.8287630000
    8      C       1.5510760000     2.7781350000    -1.1289110000
    9      C       1.8924450000     1.4551890000    -0.8512970000
   10      C       0.9489650000     0.5867000000    -0.1986010000
   11      O       0.1359330000     4.6429690000    -1.1665900000
   12      O       1.2206560000    -0.6329370000     0.0749080000
   13      H      -2.1619930000     4.0897620000    -0.0777170000
   14      H      -3.8658570000     2.6641400000     1.0435800000
   15      H      -3.3215600000     0.2739240000     1.5837200000
   16      H      -1.0694070000    -0.6314480000     0.9831930000
   17      C       3.2423710000     0.9012560000    -1.2342370000
   18      O       2.4296520000     3.6362630000    -1.7552430000
   19      H       3.6339750000     1.4478260000    -2.1003420000
   20      H       3.1079210000    -0.1491960000    -1.5181400000
   21      H       1.8639240000     4.4479340000    -1.7937950000
   22      C       4.2867300000     0.9564530000    -0.1001700000
   23      C       5.6461460000     0.3607900000    -0.4957530000
   24      C       6.7026740000     0.4101020000     0.6152680000
   25      C       8.0589820000    -0.1842060000     0.2156550000
   26      H       3.8832860000     0.4148910000     0.7623560000
   27      H       4.4221200000     2.0003230000     0.2095210000
   28      H       6.0312850000     0.8910110000    -1.3786470000
   29      H       5.5029450000    -0.6831580000    -0.8073650000
   30      H       6.3195510000    -0.1210490000     1.4960320000
   31      H       6.8434860000     1.4524810000     0.9301120000
   32      H       7.9642790000    -1.2380370000    -0.0714710000
   33      H       8.7913030000    -0.1364550000     1.0301750000
   34      H       8.4928130000     0.3485690000    -0.6388320000
 ----------------------------------------------------------------

   17    -807.1163557825      9.88e-09  Convergence criterion met
 Total energy in the final basis set =     -807.4013605794

                    Orbital Energies (a.u.)
 --------------------------------------------------------------

 Alpha MOs
 -- Occupied --
-19.1189 -19.0300 -19.0242 -10.1885 -10.1842 -10.1721 -10.1713 -10.1691
-10.1670 -10.1669 -10.1664 -10.1663 -10.1624 -10.1624 -10.1590 -10.1495
-10.1465 -10.1363  -1.0316  -0.9446  -0.9328  -0.8405  -0.8083  -0.7824
 -0.7547  -0.7399  -0.7173  -0.6748  -0.6429  -0.6138  -0.5962  -0.5806
 -0.5709  -0.5485  -0.5174  -0.4856  -0.4790  -0.4575  -0.4470  -0.4410
 -0.4314  -0.4226  -0.4193  -0.4138  -0.3934  -0.3906  -0.3802  -0.3730
 -0.3621  -0.3618  -0.3579  -0.3552  -0.3415  -0.3346  -0.3321  -0.3268
 -0.3239  -0.3163  -0.3073  -0.3033  -0.2463  -0.2336  -0.2160  -0.2023
 -0.1996  -0.1156

          Ground-State Mulliken Net Atomic Charges

     Atom                 Charge (a.u.)
  ----------------------------------------
      1 C                    -0.164444
      2 C                     1.125375
      3 C                     1.095712
      4 C                    -2.068318
      5 C                    -1.800583
      6 C                    -0.470880
      7 C                    -1.872959
      8 C                    -0.150883
      9 C                     1.200168
     10 C                    -2.597977
     11 O                    -0.421295
     12 O                    -0.275570
     13 H                     0.107493
     14 H                     0.382625
     15 H                     0.356118
     16 H                     0.071559
     17 C                     0.203664
     18 O                    -0.055152
     19 H                     0.187963
     20 H                     0.080788
     21 H                     0.314150
     22 C                    -1.332276
     23 C                     1.193372
     24 C                     0.861069
     25 C                     0.759117
     26 H                     0.055826
     27 H                     0.041175
     28 H                     0.183809
     29 H                     0.172633
     30 H                     0.095277
     31 H                     0.106679
     32 H                     0.136168
     33 H                     0.342663
     34 H                     0.136933
  ----------------------------------------
  Sum of atomic charges =    -2.000000

                    Cartesian Multipole Moments
 -----------------------------------------------------------------
    Charge (ESU x 10^10)
                -9.6064
    Dipole Moment (Debye)
         X      -3.6395      Y     -18.5220      Z       3.7376
       Tot      19.2427
    Quadrupole Moments (Debye-Ang)
        XX    -154.3753     XY       0.3516     YY    -201.0592
        XZ       9.2070     YZ      17.8360     ZZ    -130.7913

 Total job time:  977.46s(wall), 7618.07s(cpu)
        *  Thank you very much for using Q-Chem.  Have a nice day.  *
