 Gaussian 16, Revision A.03,
 Gaussian 16:  ES64L-G16RevA.03 25-Dec-2016

 --------------------------------------
 #P UB3LYP/6-311++G(d,p) nosym opt freq
 --------------------------------------

 -------
 Reduced
 -------
 Symbolic Z-matrix:
 Charge = -2 Multiplicity = 1

 SCF Done:  E(UB3LYP) =  -807.135299787     A.U. after   43 cycles
 Optimization completed.
    -- Stationary point found.
 Normal termination of Gaussian 16 at Mon Jan  8 01:49:24 2024.

 ----------------------------------------------------------------------
 #P Geom=AllCheck Guess=TCheck SCRF=Check GenChk UB3LYP/6-311++G(d,p) F
 req
 ----------------------------------------------------------------------

 Structure from the checkpoint file:  "283-an.chk"
 -------
 Reduced
 -------
 Charge = -2 Multiplicity = 1

                          Input orientation:
 ---------------------------------------------------------------------
 Center     Atomic      Atomic             Coordinates (Angstroms)
 Number     Number       Type             X           Y           Z
 ---------------------------------------------------------------------
      1          6           0       -1.948825    3.053351    0.165562
      2          6           0       -2.889483    2.256214    0.787229
      3          6           0       -2.583635    0.904742    1.092716
      4          6           0       -0.664807    2.557660   -0.183444
      5          6           0       -0.351824    1.179750    0.128238
      6          6           0       -1.335642    0.397833    0.762495
      7          6           0        0.299243    3.393479   -0.828763
      8          6           0        1.551076    2.778135   -1.128911
      9          6           0        1.892445    1.455189   -0.851297
     10          6           0        0.948965    0.586700   -0.198601
     11          8           0        0.135933    4.642969   -1.166590
     12          8           0        1.220656   -0.632937    0.074908
     13          1           0       -2.161993    4.089762   -0.077717
     14          1           0       -3.865857    2.664140    1.043580
     15          1           0       -3.321560    0.273924    1.583720
     16          1           0       -1.069407   -0.631448    0.983193
     17          6           0        3.242371    0.901256   -1.234237
     18          8           0        2.429652    3.636263   -1.755243
     19          1           0        3.633975    1.447826   -2.100342
     20          1           0        3.107921   -0.149196   -1.518140
     21          1           0        1.863924    4.447934   -1.793795
     22          6           0        4.286730    0.956453   -0.100170
     23          6           0        5.646146    0.360790   -0.495753
     24          6           0        6.702674    0.410102    0.615268
     25          6           0        8.058982   -0.184206    0.215655
     26          1           0        3.883286    0.414891    0.762356
     27          1           0        4.422120    2.000323    0.209521
     28          1           0        6.031285    0.891011   -1.378647
     29          1           0        5.502945   -0.683158   -0.807365
     30          1           0        6.319551   -0.121049    1.496032
     31          1           0        6.843486    1.452481    0.930112
     32          1           0        7.964279   -1.238037   -0.071471
     33          1           0        8.791303   -0.136455    1.030175
     34          1           0        8.492813    0.348569   -0.638832
 ---------------------------------------------------------------------

 SCF Done:  E(UB3LYP) =  -807.135299787     A.U. after    3 cycles

 Alpha  occ. eigenvalues --  -18.89747 -18.81589 -18.80651  -9.98586  -9.98564
 Alpha  occ. eigenvalues --   -9.97150  -9.96885  -9.96511  -9.95607  -9.95082
 Alpha  occ. eigenvalues --   -9.94880  -9.94406  -9.93999  -9.93869  -9.93779
 Alpha  occ. eigenvalues --   -9.92831  -9.92499  -9.91603  -0.81081  -0.72431
 Alpha  occ. eigenvalues --   -0.71556  -0.61686  -0.61188  -0.57017  -0.54480
 Alpha  occ. eigenvalues --   -0.51473  -0.50753  -0.46715  -0.42823  -0.40778
 Alpha  occ. eigenvalues --   -0.38404  -0.37264  -0.35008  -0.32491  -0.29601
 Alpha  occ. eigenvalues --   -0.28679  -0.26525  -0.24749  -0.24231  -0.23153
 Alpha  occ. eigenvalues --   -0.21776  -0.21637  -0.21439  -0.19280  -0.18533
 Alpha  occ. eigenvalues --   -0.17725  -0.17580  -0.16046  -0.15537  -0.15052
 Alpha  occ. eigenvalues --   -0.14029  -0.13717  -0.13463  -0.13055  -0.12813
 Alpha  occ. eigenvalues --   -0.11401  -0.10173  -0.09617  -0.08813  -0.08316
 Alpha  occ. eigenvalues --   -0.01934  -0.00966   0.00102   0.01964   0.02185
 Alpha  occ. eigenvalues --    0.11205
 Alpha virt. eigenvalues --    0.12299   0.15148   0.15289   0.16085   0.16909
 Alpha virt. eigenvalues --    0.16993   0.18736   0.19097   0.19213   0.19798
 Alpha virt. eigenvalues --    0.20285   0.20648   0.21465   0.21873   0.22281

  Beta  occ. eigenvalues --  -18.89747 -18.81589 -18.80651  -9.98586  -9.98564
  Beta  occ. eigenvalues --   -9.97150  -9.96885  -9.96511  -9.95607  -9.95082
  Beta  occ. eigenvalues --   -9.94880  -9.94406  -9.93999  -9.93869  -9.93779
  Beta  occ. eigenvalues --   -9.92831  -9.92499  -9.91603  -0.81081  -0.72431
  Beta  occ. eigenvalues --   -0.71556  -0.61686  -0.61188  -0.57017  -0.54480
  Beta  occ. eigenvalues --   -0.51473  -0.50753  -0.46715  -0.42823  -0.40778
  Beta  occ. eigenvalues --   -0.38404  -0.37264  -0.35008  -0.32491  -0.29601
  Beta  occ. eigenvalues --   -0.28679  -0.26525  -0.24749  -0.24231  -0.23153
  Beta  occ. eigenvalues --   -0.21776  -0.21637  -0.21439  -0.19280  -0.18533
  Beta  occ. eigenvalues --   -0.17725  -0.17580  -0.16046  -0.15537  -0.15052
  Beta  occ. eigenvalues --   -0.14029  -0.13717  -0.13463  -0.13055  -0.12813
  Beta  occ. eigenvalues --   -0.11401  -0.10173  -0.09617  -0.08813  -0.08316
  Beta  occ. eigenvalues --   -0.01934  -0.00966   0.00102   0.01964   0.02185
  Beta  occ. eigenvalues --    0.11205
  Beta virt. eigenvalues --    0.12299   0.15148   0.15289   0.16085   0.16909
  Beta virt. eigenvalues --    0.16993   0.18736   0.19097   0.19213   0.19798
  Beta virt. eigenvalues --    0.20285   0.20648   0.21465   0.21873   0.22281

 Mulliken charges and spin densities:
               1          2
     1  C    0.019274   0.000000
     2  C   -0.315057   0.000000
     3  C   -0.377656  -0.000000
     4  C    0.507928   0.000000
     5  C    0.215649   0.000000
     6  C    0.059830  -0.000000
     7  C   -1.325016   0.000000
     8  C   -0.634803  -0.000000
     9  C    2.308104   0.000000
    10  C   -1.062955   0.000000
    11  O   -0.561842   0.000000
    12  O   -0.456539   0.000000
    13  H    0.134236  -0.000000
    14  H    0.082178   0.000000
    15  H    0.080361  -0.000000
    16  H    0.136471   0.000000
    17  C   -0.446416  -0.000000
    18  O   -0.292982   0.000000
    19  H    0.187235   0.000000
    20  H    0.194069  -0.000000
    21  H    0.251025  -0.000000
    22  C   -0.567825  -0.000000
    23  C    0.644930   0.000000
    24  C   -1.884894  -0.000000
    25  C    1.794847   0.000000
    26  H    0.156781   0.000000
    27  H    0.139071  -0.000000
    28  H    0.107735   0.000000
    29  H    0.132408   0.000000
    30  H    0.128514  -0.000000
    31  H    0.118521   0.000000
    32  H   -0.181932  -0.000000
    33  H   -1.056552  -0.000000
    34  H   -0.234697  -0.000000
 Sum of Mulliken charges =  -2.00000  -0.00000

 Dipole moment (field-independent basis, Debye):
    X=            -22.1109    Y=            -14.1432    Z=              1.5417  Tot=             26.2926
 Quadrupole moment (field-independent basis, Debye-Ang):
   XX=           -338.6083   YY=           -192.9445   ZZ=           -136.3793
   XY=              7.9024   XZ=             -7.8950   YZ=             16.4092

  Exact polarizability:2449.571-490.421 602.712 142.363 -43.746 575.722
 Approx polarizability:****************1931.6712398.730-709.812 860.585

                      1                      2                      3
                      A                      A                      A
 Frequencies --     20.3340                36.9925                54.0362
 Red. masses --      4.7211                 5.1743                 1.6762
 Frc consts  --      0.0012                 0.0042                 0.0029
 IR Inten    --      0.8108                 0.6327                 1.1137

                      4                      5                      6
                      A                      A                      A
 Frequencies --     95.2422                97.2416               121.1922
 Red. masses --      5.9848                 2.4370                 4.2822
 Frc consts  --      0.0320                 0.0136                 0.0371
 IR Inten    --      7.7478                 7.9320                 1.2910

                      7                      8                      9
                      A                      A                      A
 Frequencies --    142.1002               154.2430               165.9184
 Red. masses --      1.8311                 4.2737                 6.3772
 Frc consts  --      0.0218                 0.0599                 0.1034
 IR Inten    --      0.3652                 0.2700                 2.1487

                     10                     11                     12
                      A                      A                      A
 Frequencies --    195.4403               251.1202               262.9993
 Red. masses --      6.4627                 4.5241                 1.1176
 Frc consts  --      0.1454                 0.1681                 0.0455
 IR Inten    --      4.6592                 2.7934                21.5131

                     13                     14                     15
                      A                      A                      A
 Frequencies --    286.8898               297.3580               341.9479
 Red. masses --      3.7467                 3.2809                 5.2121
 Frc consts  --      0.1817                 0.1709                 0.3591
 IR Inten    --      8.6915                 0.6502                11.4342

                     16                     17                     18
                      A                      A                      A
 Frequencies --    351.0250               367.6377               388.3136
 Red. masses --      4.2839                 9.3545                 5.0926
 Frc consts  --      0.3110                 0.7449                 0.4524
 IR Inten    --      9.5647                 0.4780                 1.7877

                     19                     20                     21
                      A                      A                      A
 Frequencies --    427.1586               434.0310               454.5914
 Red. masses --      4.7223                 7.2840                 4.0215
 Frc consts  --      0.5077                 0.8085                 0.4896
 IR Inten    --    117.7582                70.6939               118.9390

                     22                     23                     24
                      A                      A                      A
 Frequencies --    482.1600               523.6837               559.0198
 Red. masses --      5.1319                 6.5179                 5.6997
 Frc consts  --      0.7029                 1.0532                 1.0494
 IR Inten    --    297.4555               167.3998                 6.0904

                     25                     26                     27
                      A                      A                      A
 Frequencies --    638.2503               669.3594               691.0427
 Red. masses --      6.1718                 5.5877                 1.9955
 Frc consts  --      1.4813                 1.4750                 0.5614
 IR Inten    --      4.4475                 7.8309                51.4881

                     28                     29                     30
                      A                      A                      A
 Frequencies --    694.0419               701.7801               727.9140
 Red. masses --      3.3941                 3.9287                 1.1308
 Frc consts  --      0.9633                 1.1400                 0.3530
 IR Inten    --      7.2315                13.5289                 1.8584

                     31                     32                     33
                      A                      A                      A
 Frequencies --    737.1960               751.7917               769.1315
 Red. masses --      2.9799                 1.3302                 3.4926
 Frc consts  --      0.9542                 0.4430                 1.2173
 IR Inten    --     22.4247                 1.8221                 5.1326

                     34                     35                     36
                      A                      A                      A
 Frequencies --    783.6236               803.1425               823.4264
 Red. masses --      1.1726                 1.5243                 1.5593
 Frc consts  --      0.4242                 0.5793                 0.6229
 IR Inten    --     54.2722                 1.5157                20.5809

                     37                     38                     39
                      A                      A                      A
 Frequencies --    881.7366               890.7945               940.5256
 Red. masses --      2.0310                 2.3398                 1.2571
 Frc consts  --      0.9303                 1.0939                 0.6552
 IR Inten    --     15.1527                13.7969                 1.7280

                     40                     41                     42
                      A                      A                      A
 Frequencies --    944.0120               956.6665               973.1367
 Red. masses --      4.7733                 1.3169                 1.4500
 Frc consts  --      2.5063                 0.7101                 0.8090
 IR Inten    --    115.2051                 1.7586                10.5755

                     43                     44                     45
                      A                      A                      A
 Frequencies --    995.4324              1016.6899              1023.7508
 Red. masses --      3.7491                 2.3943                 2.7032
 Frc consts  --      2.1888                 1.4582                 1.6692
 IR Inten    --     24.6683               217.5242                89.2277

                     46                     47                     48
                      A                      A                      A
 Frequencies --   1047.1638              1053.3452              1095.3517
 Red. masses --      2.8058                 2.4165                 2.0896
 Frc consts  --      1.8127                 1.5797                 1.4772
 IR Inten    --    136.7115                24.7403                54.8284

                     49                     50                     51
                      A                      A                      A
 Frequencies --   1118.6450              1125.9269              1132.0166
 Red. masses --      2.3621                 2.0509                 1.3476
 Frc consts  --      1.7415                 1.5318                 1.0174
 IR Inten    --     16.1064                47.8314               112.9882

                     52                     53                     54
                      A                      A                      A
 Frequencies --   1178.8511              1188.7490              1223.9203
 Red. masses --      3.4065                 2.0171                 1.6612
 Frc consts  --      2.7891                 1.6794                 1.4661
 IR Inten    --     98.0787               279.6235                12.1926

                     55                     56                     57
                      A                      A                      A
 Frequencies --   1241.2145              1252.5266              1279.9854
 Red. masses --      2.3814                 1.2885                 2.2033
 Frc consts  --      2.1616                 1.1909                 2.1268
 IR Inten    --    165.8978                12.9231                16.9705

                     58                     59                     60
                      A                      A                      A
 Frequencies --   1297.8936              1319.2642              1324.7250
 Red. masses --      1.3625                 1.0583                 1.4517
 Frc consts  --      1.3523                 1.0852                 1.5010
 IR Inten    --     90.3882                40.9801                10.6962

                     61                     62                     63
                      A                      A                      A
 Frequencies --   1327.6231              1335.9830              1358.7255
 Red. masses --      1.3865                 3.1549                 1.6195
 Frc consts  --      1.4399                 3.3177                 1.7615
 IR Inten    --    536.1999               533.6928               409.0945

                     64                     65                     66
                      A                      A                      A
 Frequencies --   1367.5221              1376.5958              1397.5623
 Red. masses --      1.7570                 1.5829                 1.2619
 Frc consts  --      1.9359                 1.7674                 1.4522
 IR Inten    --    314.9451                34.4161               740.8166

                     67                     68                     69
                      A                      A                      A
 Frequencies --   1423.1795              1432.1400              1443.4548
 Red. masses --      4.0824                 2.8692                 2.6860
 Frc consts  --      4.8718                 3.4672                 3.2974
 IR Inten    --   2232.2292               864.3627                60.8445

                     70                     71                     72
                      A                      A                      A
 Frequencies --   1467.1024              1480.8102              1481.8936
 Red. masses --      1.4072                 1.2036                 1.0453
 Frc consts  --      1.7846                 1.5550                 1.3525
 IR Inten    --    374.1171               126.6337               323.2919

                     73                     74                     75
                      A                      A                      A
 Frequencies --   1484.4490              1485.2895              1495.7076
 Red. masses --      1.0882                 2.3713                 1.0790
 Frc consts  --      1.4128                 3.0822                 1.4223
 IR Inten    --      5.2375               501.1090                78.6315

                     76                     77                     78
                      A                      A                      A
 Frequencies --   1507.0358              1512.2108              1544.2170
 Red. masses --      1.0979                 4.4516                 4.0909
 Frc consts  --      1.4691                 5.9978                 5.7476
 IR Inten    --     44.6645               626.7539              1434.8761

                     79                     80                     81
                      A                      A                      A
 Frequencies --   1588.5841              1602.4245              2975.2829
 Red. masses --      4.7751                 4.8094                 1.0570
 Frc consts  --      7.1000                 7.2760                 5.5129
 IR Inten    --     45.4195              2559.1584                 1.1524

                     82                     83                     84
                      A                      A                      A
 Frequencies --   2986.8720              2991.2602              2994.4363
 Red. masses --      1.0382                 1.0614                 1.0750
 Frc consts  --      5.4574                 5.5955                 5.6792
 IR Inten    --     36.5997                28.4950                32.8663

                     85                     86                     87
                      A                      A                      A
 Frequencies --   2996.4464              3008.4476              3020.9346
 Red. masses --      1.0738                 1.0678                 1.0987
 Frc consts  --      5.6805                 5.6938                 5.9075
 IR Inten    --     28.3110                57.3445                21.8234

                     88                     89                     90
                      A                      A                      A
 Frequencies --   3032.9753              3043.2514              3051.5317
 Red. masses --      1.1002                 1.0997                 1.1026
 Frc consts  --      5.9631                 6.0009                 6.0496
 IR Inten    --      1.3208                47.9432                 9.0196

                     91                     92                     93
                      A                      A                      A
 Frequencies --   3059.4160              3096.8674              3121.3389
 Red. masses --      1.1047                 1.0829                 1.0900
 Frc consts  --      6.0924                 6.1193                 6.2571
 IR Inten    --     49.5513                68.3518               258.7733

                     94                     95                     96
                      A                      A                      A
 Frequencies --   3157.2585              3159.9336              3348.3796
 Red. masses --      1.0904                 1.0918                 1.0637
 Frc consts  --      6.4042                 6.4233                 7.0262
 IR Inten    --     31.6995               232.4509                53.2810

 - Thermochemistry -
 -------------------
 Temperature   298.150 Kelvin.  Pressure   1.00000 Atm.
 Atom     1 has atomic number  6 and mass  12.00000

 Molecular mass:   244.10994 amu.
 Principal axes and moments of inertia in atomic units:
                           1         2         3
     Eigenvalues --  2190.193839016.40072**********
           X            0.97163   0.19351   0.13599
           Y           -0.23362   0.87487   0.42429
           Z           -0.03687  -0.44402   0.89526
 This molecule is an asymmetric top.
 Rotational symmetry number  1.
 Warning -- assumption of classical behavior for rotation
           may cause significant error
 Rotational temperatures (Kelvin)      0.03955     0.00961     0.00810
 Rotational constants (GHZ):           0.82401     0.20016     0.16868
 Zero-point vibrational energy     717525.2 (Joules/Mol)
                                  171.49264 (Kcal/Mol)
 Warning -- explicit consideration of  24 degrees of freedom as
           vibrations may cause significant error
 Vibrational temperatures:     29.26    53.22    77.75   137.03   139.91
          (Kelvin)            174.37   204.45   221.92   238.72   281.20
                              361.31   378.40   412.77   427.83   491.99
                              505.05   528.95   558.70   614.59   624.47
                              654.06   693.72   753.46   804.30   918.30
                              963.06   994.26   998.57  1009.71  1047.31
                             1060.66  1081.66  1106.61  1127.46  1155.54
                             1184.73  1268.62  1281.65  1353.21  1358.22
                             1376.43  1400.13  1432.21  1462.79  1472.95
                             1506.64  1515.53  1575.97  1609.48  1619.96
                             1628.72  1696.10  1710.34  1760.95  1785.83
                             1802.11  1841.61  1867.38  1898.13  1905.98
                             1910.15  1922.18  1954.90  1967.56  1980.61
                             2010.78  2047.64  2060.53  2076.81  2110.83
                             2130.56  2132.11  2135.79  2137.00  2151.99
                             2168.29  2175.73  2221.78  2285.62  2305.53
                             4280.77  4297.44  4303.76  4308.33  4311.22
                             4328.49  4346.45  4363.77  4378.56  4390.47
                             4401.82  4455.70  4490.91  4542.59  4546.44
                             4817.57

 Zero-point correction=                           0.273291 (Hartree/Particle)
 Thermal correction to Energy=                    0.290044
 Thermal correction to Enthalpy=                  0.290988
 Thermal correction to Gibbs Free Energy=         0.227633
 Sum of electronic and zero-point Energies=           -806.862009
 Sum of electronic and thermal Energies=              -806.845256
 Sum of electronic and thermal Enthalpies=            -806.844312
 Sum of electronic and thermal Free Energies=         -806.907667

                     E (Thermal)             CV                S
                      KCal/Mol        Cal/Mol-Kelvin    Cal/Mol-Kelvin
 Total                  182.005             64.317            133.342
 Electronic               0.000              0.000              0.000
 Translational            0.889              2.981             42.378
 Rotational               0.889              2.981             33.713
 Vibrational            180.228             58.355             57.251
 Vibration     1          0.593              1.986              6.601
 Vibration     2          0.594              1.982              5.414
 Vibration     3          0.596              1.976              4.664
 Vibration     4          0.603              1.953              3.549
 Vibration     5          0.603              1.951              3.509
 Vibration     6          0.609              1.932              3.081
 Vibration     7          0.616              1.911              2.775
 Vibration     8          0.620              1.898              2.619
 Vibration     9          0.624              1.884              2.481
 Vibration    10          0.636              1.846              2.176
 Vibration    11          0.663              1.761              1.723
 Vibration    12          0.670              1.741              1.642
 Vibration    13          0.684              1.698              1.492
 Vibration    14          0.691              1.679              1.432
 Vibration    15          0.721              1.592              1.203
 Vibration    16          0.728              1.573              1.162
 Vibration    17          0.740              1.539              1.090
 Vibration    18          0.756              1.495              1.007
 Vibration    19          0.789              1.411              0.868
 Vibration    20          0.795              1.396              0.846
 Vibration    21          0.813              1.351              0.782
 Vibration    22          0.838              1.290              0.704
 Vibration    23          0.879              1.198              0.601
 Vibration    24          0.915              1.120              0.526

 Optimization completed.
    -- Stationary point found.
 Normal termination of Gaussian 16 at Mon Jan  8 03:20:11 2024.
