 Q-Chem 5.4, Q-Chem, Inc., Pleasanton, CA (2021)
 Q-Chem 5.4.0 for Intel X86 EM64T Linux

User input:
--------------------------------------------------------------
$molecule
-1 2
C                 -0.6156720000     -1.1101680000      2.5266720000
C                 -0.5011600000     -1.8887880000      1.3051020000
C                  0.0966980000     -1.4093140000      0.1826650000
C                  0.6837340000     -0.0857150000      0.1155330000
C                  0.5830340000      0.7267090000      1.3234380000
C                 -0.0950290000      0.2502380000      2.4325240000
O                 -1.0993990000     -1.5939520000      3.5755020000
O                  1.2519930000      0.3424640000     -0.9251330000
S                 -0.4030510000      1.3319240000      3.8383590000
C                  0.6572950000      0.7126300000      5.1689700000
C                  0.1541210000     -0.2284190000      6.0633880000
C                  1.9591140000      1.1992330000      5.2686730000
C                  2.7731340000      0.7337030000      6.2996140000
C                  0.9779190000     -0.6820170000      7.0920110000
C                  2.2824670000     -0.2016660000      7.2115130000
O                  0.1104940000      2.6691120000      3.4788940000
O                 -1.7973770000      1.2238080000      4.2846260000
H                 -0.9129970000     -2.8925040000      1.3469500000
H                  0.1760700000     -2.0111020000     -0.7179040000
H                 -0.8520060000     -0.6013250000      5.9269840000
H                  2.3194120000      1.9213090000      4.5458880000
H                  3.7893810000      1.1019800000      6.3888920000
H                  0.6016510000     -1.4163510000      7.7961140000
H                  2.9202140000     -0.5617420000      8.0123780000
C                  1.3489060000      2.0388900000      1.2421700000
C                  0.7028410000      3.1599990000      0.4668700000
O                  2.4719980000      2.1114660000      1.6950910000
H                 -0.2716460000      3.3949550000      0.8997900000
H                  0.5606960000      2.8204150000     -0.5630920000
H                  1.3457590000      4.0411490000      0.4883420000
$end

$rem
BASIS  =  6-311++G(d,p)
GUI  =  2
JOB_TYPE  =  SP
METHOD  =  B3LYP
SCF_CONVERGENCE  = 8
SOLVENT_METHOD = sm12
$end

$smx
solvent dimethylformamide
charges CM5
$end

--------------------------------------------------------------

             Standard Nuclear Orientation (Angstroms)
    I     Atom           X                Y                Z
 ----------------------------------------------------------------
    1      C      -0.6156720000    -1.1101680000     2.5266720000
    2      C      -0.5011600000    -1.8887880000     1.3051020000
    3      C       0.0966980000    -1.4093140000     0.1826650000
    4      C       0.6837340000    -0.0857150000     0.1155330000
    5      C       0.5830340000     0.7267090000     1.3234380000
    6      C      -0.0950290000     0.2502380000     2.4325240000
    7      O      -1.0993990000    -1.5939520000     3.5755020000
    8      O       1.2519930000     0.3424640000    -0.9251330000
    9      S      -0.4030510000     1.3319240000     3.8383590000
   10      C       0.6572950000     0.7126300000     5.1689700000
   11      C       0.1541210000    -0.2284190000     6.0633880000
   12      C       1.9591140000     1.1992330000     5.2686730000
   13      C       2.7731340000     0.7337030000     6.2996140000
   14      C       0.9779190000    -0.6820170000     7.0920110000
   15      C       2.2824670000    -0.2016660000     7.2115130000
   16      O       0.1104940000     2.6691120000     3.4788940000
   17      O      -1.7973770000     1.2238080000     4.2846260000
   18      H      -0.9129970000    -2.8925040000     1.3469500000
   19      H       0.1760700000    -2.0111020000    -0.7179040000
   20      H      -0.8520060000    -0.6013250000     5.9269840000
   21      H       2.3194120000     1.9213090000     4.5458880000
   22      H       3.7893810000     1.1019800000     6.3888920000
   23      H       0.6016510000    -1.4163510000     7.7961140000
   24      H       2.9202140000    -0.5617420000     8.0123780000
   25      C       1.3489060000     2.0388900000     1.2421700000
   26      C       0.7028410000     3.1599990000     0.4668700000
   27      O       2.4719980000     2.1114660000     1.6950910000
   28      H      -0.2716460000     3.3949550000     0.8997900000
   29      H       0.5606960000     2.8204150000    -0.5630920000
   30      H       1.3457590000     4.0411490000     0.4883420000
 ----------------------------------------------------------------

   18   -1314.0850395008      4.30e-09  Convergence criterion met
 Total energy in the final basis set =    -1314.1713785397

                    Orbital Energies (a.u.)
 --------------------------------------------------------------

 Alpha MOs
 -- Occupied --
-89.0506 -19.1184 -19.1144 -19.1142 -19.0918 -19.0903 -10.2744 -10.2438
-10.2391 -10.2146 -10.2108 -10.2034 -10.1967 -10.1945 -10.1934 -10.1916
-10.1909 -10.1837 -10.1825 -10.1687  -8.1143  -6.0771  -6.0760  -6.0754
 -1.1087  -1.0532  -1.0184  -1.0146  -1.0029  -0.8794  -0.8498  -0.7910
 -0.7786  -0.7669  -0.7492  -0.7127  -0.6777  -0.6363  -0.6260  -0.6146
 -0.5793  -0.5434  -0.5418  -0.5040  -0.5009  -0.4837  -0.4789  -0.4785
 -0.4616  -0.4577  -0.4524  -0.4483  -0.4415  -0.4309  -0.4220  -0.4203
 -0.4027  -0.3986  -0.3946  -0.3861  -0.3836  -0.3811  -0.3659  -0.3626
 -0.3382  -0.3254  -0.3074  -0.3044  -0.2995  -0.2870  -0.2753  -0.2731
 -0.2666  -0.2563  -0.2429  -0.1799

 Beta MOs
 -- Occupied --
-89.0506 -19.1181 -19.1144 -19.1141 -19.0838 -19.0836 -10.2746 -10.2432
-10.2382 -10.2146 -10.2096 -10.2009 -10.1967 -10.1945 -10.1933 -10.1916
-10.1909 -10.1832 -10.1816 -10.1687  -8.1143  -6.0771  -6.0760  -6.0754
 -1.1085  -1.0525  -1.0080  -1.0022  -1.0007  -0.8793  -0.8434  -0.7895
 -0.7771  -0.7668  -0.7478  -0.7065  -0.6737  -0.6337  -0.6260  -0.6126
 -0.5776  -0.5412  -0.5408  -0.5024  -0.4987  -0.4826  -0.4787  -0.4772
 -0.4603  -0.4571  -0.4514  -0.4456  -0.4413  -0.4296  -0.4153  -0.4072
 -0.3993  -0.3954  -0.3879  -0.3836  -0.3822  -0.3677  -0.3637  -0.3567
 -0.3371  -0.3250  -0.3063  -0.3015  -0.2865  -0.2752  -0.2701  -0.2639
 -0.2613  -0.2494  -0.2380

          Ground-State Mulliken Net Atomic Charges

     Atom                 Charge (a.u.)    Spin (a.u.)
  --------------------------------------------------------
      1 C                    -0.764790       0.009022
      2 C                     0.555483       0.072509
      3 C                     0.329792       0.042142
      4 C                    -1.094609       0.058096
      5 C                     0.260553       0.192058
      6 C                    -0.601060       0.123569
      7 O                    -0.291236       0.243906
      8 O                    -0.326683       0.292627
      9 S                    -0.276671      -0.037326
     10 C                    -1.201212       0.001407
     11 C                    -0.541208       0.016473
     12 C                    -0.785221       0.006938
     13 C                     0.371292      -0.001708
     14 C                     0.437912      -0.003179
     15 C                     1.128705       0.004050
     16 O                    -0.123567      -0.003375
     17 O                    -0.120992       0.008581
     18 H                     0.293151      -0.006076
     19 H                     0.285667      -0.004379
     20 H                     0.184150      -0.000483
     21 H                     0.173755       0.000780
     22 H                     0.341411       0.000069
     23 H                     0.345253       0.000123
     24 H                     0.397457      -0.000205
     25 C                    -0.110595      -0.026269
     26 C                    -0.253538       0.007852
     27 O                    -0.214162       0.003083
     28 H                     0.172003       0.000689
     29 H                     0.206325      -0.001852
     30 H                     0.222633       0.000877
  --------------------------------------------------------
  Sum of atomic charges =    -1.000000

                    Cartesian Multipole Moments
 -----------------------------------------------------------------
    Charge (ESU x 10^10)
                -4.8032
    Dipole Moment (Debye)
         X       0.0658      Y      -3.7140      Z      -9.0556
       Tot       9.7879
    Quadrupole Moments (Debye-Ang)
        XX    -141.9618     XY      -5.1337     YY    -141.1269
        XZ      23.2708     YZ     -12.9930     ZZ    -157.4989

 Total job time:  995.40s(wall), 7746.14s(cpu)
        *  Thank you very much for using Q-Chem.  Have a nice day.  *
