 Gaussian 16, Revision A.03,
 Gaussian 16:  ES64L-G16RevA.03 25-Dec-2016

 ----------------------------------------------------------------
 #P UB3LYP/6-311++G(d,p) SCRF=(PCM,Solvent=n,n-DiMethylFormamide)
 ----------------------------------------------------------------

 ------------------
 Radical PCM in DMF
 ------------------
 Symbolic Z-matrix:
 Charge = -1 Multiplicity = 2

                         Standard orientation:
 ---------------------------------------------------------------------
 Center     Atomic      Atomic             Coordinates (Angstroms)
 Number     Number       Type             X           Y           Z
 ---------------------------------------------------------------------
      1          6           0       -4.532392    0.438132   -0.001537
      2          6           0       -5.281009   -0.727443    0.000786
      3          6           0       -4.639032   -1.976149    0.003932
      4          6           0       -3.125543    0.383995   -0.000807
      5          6           0       -2.476571   -0.872315    0.002295
      6          6           0       -3.251960   -2.039255    0.004744
      7          6           0       -2.337807    1.607506   -0.003015
      8          6           0       -0.906390    1.477566   -0.002655
      9          6           0       -0.208127    0.251312   -0.000718
     10          6           0       -0.981201   -1.004428    0.002960
     11          8           0       -2.835493    2.777497   -0.005410
     12          8           0       -0.475343   -2.129231    0.007598
     13          8           0       -0.258556    2.658576   -0.005438
     14          1           0       -5.003077    1.414295   -0.003868
     15          1           0       -6.365648   -0.675199    0.000128
     16          1           0       -5.225550   -2.889518    0.005741
     17          1           0       -2.728751   -2.988355    0.007193
     18          1           0       -1.001963    3.302342   -0.006087
     19          7           0        1.159936    0.373299    0.000339
     20          7           0        1.890176   -0.669543   -0.006549
     21          6           0        3.273356   -0.373399   -0.002430
     22          6           0        3.830644    0.919776    0.012692
     23          6           0        4.135431   -1.481059   -0.014206
     24          6           0        5.516586   -1.308221   -0.011385
     25          6           0        6.064399   -0.024390    0.003507
     26          6           0        5.210361    1.083854    0.015465
     27          1           0        3.158307    1.768331    0.021747
     28          1           0        3.687547   -2.468440   -0.025505
     29          1           0        6.168265   -2.176513   -0.020710
     30          1           0        7.140801    0.113429    0.005876
     31          1           0        5.629955    2.085706    0.027194
 ---------------------------------------------------------------------

 SCF Done:  E(UB3LYP) =  -951.266131875     A.U. after   22 cycles

 The electronic state is 2-A.
 Alpha  occ. eigenvalues --  -19.15599 -19.09698 -19.09219 -14.34575 -14.33738
 Alpha  occ. eigenvalues --  -10.24913 -10.23990 -10.23209 -10.20124 -10.19877
 Alpha  occ. eigenvalues --  -10.18635 -10.18387 -10.18125 -10.17952 -10.17880
 Alpha  occ. eigenvalues --  -10.17835 -10.17830 -10.17768 -10.17748 -10.17547
 Alpha  occ. eigenvalues --  -10.17368  -1.08144  -1.03097  -1.01274  -1.00785
 Alpha  occ. eigenvalues --   -0.86996  -0.86418  -0.82432  -0.78348  -0.75894
 Alpha  occ. eigenvalues --   -0.75170  -0.74269  -0.69995  -0.66655  -0.63214
 Alpha  occ. eigenvalues --   -0.61761  -0.60502  -0.58593  -0.57182  -0.54653
 Alpha  occ. eigenvalues --   -0.53231  -0.50507  -0.49316  -0.48292  -0.47215
 Alpha  occ. eigenvalues --   -0.45550  -0.45396  -0.45069  -0.43696  -0.43389
 Alpha  occ. eigenvalues --   -0.42829  -0.42480  -0.41883  -0.41164  -0.40035
 Alpha  occ. eigenvalues --   -0.39054  -0.38288  -0.38112  -0.36153  -0.35851
 Alpha  occ. eigenvalues --   -0.35696  -0.35262  -0.34792  -0.34350  -0.28376
 Alpha  occ. eigenvalues --   -0.27334  -0.26859  -0.26602  -0.26374  -0.26203
 Alpha  occ. eigenvalues --   -0.22643  -0.20874  -0.16333
 Alpha virt. eigenvalues --   -0.08021  -0.03510  -0.01790  -0.00812  -0.00415
 Alpha virt. eigenvalues --    0.00124   0.00771   0.01477   0.01912   0.01920
 Alpha virt. eigenvalues --    0.02973   0.03168   0.03992   0.04460   0.04993

  Beta  occ. eigenvalues --  -19.15463 -19.09024 -19.08957 -14.34596 -14.33536
  Beta  occ. eigenvalues --  -10.24865 -10.23715 -10.22953 -10.20157 -10.19844
  Beta  occ. eigenvalues --  -10.18677 -10.18288 -10.18158 -10.17896 -10.17871
  Beta  occ. eigenvalues --  -10.17850 -10.17802 -10.17757 -10.17710 -10.17510
  Beta  occ. eigenvalues --  -10.17329  -1.07748  -1.02729  -1.00947  -0.99684
  Beta  occ. eigenvalues --   -0.86831  -0.86357  -0.82150  -0.78070  -0.75744
  Beta  occ. eigenvalues --   -0.75127  -0.74146  -0.69342  -0.66277  -0.63040
  Beta  occ. eigenvalues --   -0.61603  -0.60375  -0.58479  -0.56975  -0.54502
  Beta  occ. eigenvalues --   -0.53132  -0.50349  -0.49079  -0.48173  -0.47090
  Beta  occ. eigenvalues --   -0.45507  -0.45004  -0.44211  -0.43649  -0.43313
  Beta  occ. eigenvalues --   -0.42499  -0.42356  -0.40925  -0.40903  -0.39131
  Beta  occ. eigenvalues --   -0.38903  -0.38108  -0.37324  -0.36043  -0.35615
  Beta  occ. eigenvalues --   -0.35284  -0.34690  -0.34324  -0.33594  -0.27529
  Beta  occ. eigenvalues --   -0.26937  -0.26146  -0.26101  -0.25998  -0.25726
  Beta  occ. eigenvalues --   -0.21617  -0.20708
  Beta virt. eigenvalues --   -0.10254  -0.07074  -0.02846  -0.01654  -0.00388
  Beta virt. eigenvalues --   -0.00096   0.00128   0.00797   0.01484   0.01916
  Beta virt. eigenvalues --    0.02371   0.02982   0.03178   0.04012   0.04660

 Mulliken charges and spin densities:
               1          2
     1  C    0.086934   0.082138
     2  C   -0.259869  -0.026158
     3  C   -0.425334   0.071283
     4  C    0.682370  -0.023484
     5  C    0.181741   0.052753
     6  C    0.094177  -0.021212
     7  C   -0.615853   0.160960
     8  C   -0.107343   0.155629
     9  C    0.183755   0.021834
    10  C   -0.511448   0.027178
    11  O   -0.485472   0.250122
    12  O   -0.359275   0.099618
    13  O   -0.252806   0.045736
    14  H    0.170559  -0.005380
    15  H    0.189659   0.001423
    16  H    0.187783  -0.004781
    17  H    0.170881   0.001416
    18  H    0.312981  -0.004800
    19  N   -0.221315  -0.036819
    20  N    0.109983   0.119119
    21  C   -0.356630  -0.034143
    22  C    0.228320   0.038066
    23  C   -0.106106   0.029622
    24  C   -0.162271  -0.013570
    25  C   -0.308184   0.033828
    26  C   -0.371201  -0.015717
    27  H    0.187557  -0.002069
    28  H    0.177633  -0.002046
    29  H    0.200837   0.000805
    30  H    0.171872  -0.002177
    31  H    0.206068   0.000823
 Sum of Mulliken charges =  -1.00000   1.00000

 Dipole moment (field-independent basis, Debye):
    X=              1.6596    Y=             -1.2797    Z=              0.0072  Tot=              2.0957
 Quadrupole moment (field-independent basis, Debye-Ang):
   XX=           -127.6869   YY=           -142.4878   ZZ=           -128.4965
   XY=             14.2752   XZ=              0.0006   YZ=              0.1265

 Normal termination of Gaussian 16 at Thu Jan 25 05:49:16 2024.
