 Q-Chem 5.4, Q-Chem, Inc., Pleasanton, CA (2021)
 Q-Chem 5.4.0 for Intel X86 EM64T Linux

User input:
--------------------------------------------------------------
$molecule
-4 1
C                  5.5864650000     -4.7969380000      0.7983030000
C                  6.6360030000     -4.6621270000     -0.0873510000
C                  6.5969000000     -3.6266750000     -1.0392760000
C                  4.4788530000     -3.9277770000      0.7620770000
C                  4.4031090000     -2.9044300000     -0.2395030000
C                  5.5184560000     -2.7572800000     -1.1358940000
C                  3.4353900000     -4.1722820000      1.8031930000
C                  2.2744820000     -3.2691580000      1.8339260000
C                  2.1619820000     -2.2973070000      0.7856280000
C                  3.1794010000     -2.0892530000     -0.2886690000
C                  1.2380380000     -3.3058170000      2.8307040000
C                  0.1513520000     -2.4479920000      2.7238360000
C                  0.0241610000     -1.5359950000      1.6599080000
C                  1.0255630000     -1.4685530000      0.7129270000
O                  3.5672360000     -5.1219220000      2.5927700000
O                  2.9634520000     -1.2573270000     -1.1852720000
S                  1.1451480000     -4.3890090000      4.3675710000
O                 -0.0698530000     -3.8669810000      5.0882280000
O                  2.3805400000     -4.1452490000      5.1584100000
O                  0.9317960000     -5.7909090000      3.9159510000
S                  5.7607930000     -1.4651060000     -2.4833370000
O                  7.1642690000     -1.7232460000     -2.9647250000
O                  4.7714170000     -1.7476480000     -3.5585390000
O                  5.6542270000     -0.1280730000     -1.8414380000
H                  5.5777570000     -5.5660140000      1.5605980000
H                  7.4891230000     -5.3451190000     -0.0537580000
H                  7.4210960000     -3.4828660000     -1.7245240000
H                 -0.6057160000     -2.4977220000      3.4945180000
H                 -0.8563560000     -0.8914360000      1.5915180000
H                  0.9832140000     -0.7708590000     -0.1141600000
$end

$rem
BASIS  =  6-311++G(d,p)
GUI  =  2
JOB_TYPE  =  SP
METHOD  =  B3LYP
SCF_CONVERGENCE  = 8
SOLVENT_METHOD = sm12
$end

$smx
solvent dimethylformamide
charges CM5
$end

--------------------------------------------------------------

             Standard Nuclear Orientation (Angstroms)
    I     Atom           X                Y                Z
 ----------------------------------------------------------------
    1      C       5.5864650000    -4.7969380000     0.7983030000
    2      C       6.6360030000    -4.6621270000    -0.0873510000
    3      C       6.5969000000    -3.6266750000    -1.0392760000
    4      C       4.4788530000    -3.9277770000     0.7620770000
    5      C       4.4031090000    -2.9044300000    -0.2395030000
    6      C       5.5184560000    -2.7572800000    -1.1358940000
    7      C       3.4353900000    -4.1722820000     1.8031930000
    8      C       2.2744820000    -3.2691580000     1.8339260000
    9      C       2.1619820000    -2.2973070000     0.7856280000
   10      C       3.1794010000    -2.0892530000    -0.2886690000
   11      C       1.2380380000    -3.3058170000     2.8307040000
   12      C       0.1513520000    -2.4479920000     2.7238360000
   13      C       0.0241610000    -1.5359950000     1.6599080000
   14      C       1.0255630000    -1.4685530000     0.7129270000
   15      O       3.5672360000    -5.1219220000     2.5927700000
   16      O       2.9634520000    -1.2573270000    -1.1852720000
   17      S       1.1451480000    -4.3890090000     4.3675710000
   18      O      -0.0698530000    -3.8669810000     5.0882280000
   19      O       2.3805400000    -4.1452490000     5.1584100000
   20      O       0.9317960000    -5.7909090000     3.9159510000
   21      S       5.7607930000    -1.4651060000    -2.4833370000
   22      O       7.1642690000    -1.7232460000    -2.9647250000
   23      O       4.7714170000    -1.7476480000    -3.5585390000
   24      O       5.6542270000    -0.1280730000    -1.8414380000
   25      H       5.5777570000    -5.5660140000     1.5605980000
   26      H       7.4891230000    -5.3451190000    -0.0537580000
   27      H       7.4210960000    -3.4828660000    -1.7245240000
   28      H      -0.6057160000    -2.4977220000     3.4945180000
   29      H      -0.8563560000    -0.8914360000     1.5915180000
   30      H       0.9832140000    -0.7708590000    -0.1141600000
 ----------------------------------------------------------------

   36   -1935.1850148097      3.88e-09  Convergence criterion met
 Total energy in the final basis set =    -1936.1112724704

                    Orbital Energies (a.u.)
 --------------------------------------------------------------

 Alpha MOs
 -- Occupied --
-89.0989 -89.0988 -19.2146 -19.2146 -19.1383 -19.1382 -19.1374 -19.1373
-19.1342 -19.1341 -10.3694 -10.3693 -10.3186 -10.3186 -10.3145 -10.3145
-10.3135 -10.3134 -10.3117 -10.3116 -10.3028 -10.3028 -10.2981 -10.2979
 -8.1564  -8.1562  -6.1193  -6.1192  -6.1188  -6.1186  -6.1186  -6.1185
 -1.1516  -1.1515  -1.1377  -1.1353  -1.0161  -1.0160  -1.0071  -1.0069
 -0.9908  -0.9803  -0.9148  -0.8815  -0.8795  -0.8715  -0.7960  -0.7748
 -0.7463  -0.7285  -0.7005  -0.6726  -0.6621  -0.6335  -0.6242  -0.6035
 -0.5979  -0.5896  -0.5822  -0.5475  -0.5472  -0.5457  -0.5416  -0.5333
 -0.5291  -0.5113  -0.5042  -0.4964  -0.4936  -0.4908  -0.4899  -0.4851
 -0.4831  -0.4828  -0.4695  -0.4638  -0.3919  -0.3857  -0.3842  -0.3814
 -0.3788  -0.3731  -0.3726  -0.3716  -0.3638  -0.3584  -0.3528  -0.3473
 -0.3323  -0.3309  -0.3261  -0.3250  -0.2915  -0.2909  -0.2655

          Ground-State Mulliken Net Atomic Charges

     Atom                 Charge (a.u.)
  ----------------------------------------
      1 C                    -1.852153
      2 C                    -1.443331
      3 C                    -0.381857
      4 C                     4.440521
      5 C                     0.793664
      6 C                     0.378274
      7 C                     1.026328
      8 C                     0.800899
      9 C                     4.395035
     10 C                     1.037942
     11 C                     0.390309
     12 C                    -0.471173
     13 C                    -1.445131
     14 C                    -1.737283
     15 O                     0.137395
     16 O                     0.138223
     17 S                     1.495865
     18 O                    -0.165088
     19 O                    -0.162808
     20 O                    -0.104382
     21 S                     1.496491
     22 O                    -0.164479
     23 O                    -0.104674
     24 O                    -0.161753
     25 H                     1.116257
     26 H                    -8.497543
     27 H                     1.199481
     28 H                     1.176272
     29 H                    -8.454959
     30 H                     1.123658
  ----------------------------------------
  Sum of atomic charges =    -4.000000

                    Cartesian Multipole Moments
 -----------------------------------------------------------------
    Charge (ESU x 10^10)
               -19.2128
    Dipole Moment (Debye)
         X     -64.6978      Y      58.7803      Z     -15.8869
       Tot      88.8444
    Quadrupole Moments (Debye-Ang)
        XX    -816.8760     XY     363.9376     YY    -541.5891
        XZ      63.0107     YZ      76.4034     ZZ    -353.4574

 Total job time:  2114.29s(wall), 16577.76s(cpu)
        *  Thank you very much for using Q-Chem.  Have a nice day.  *
