 Gaussian 16, Revision A.03,
 Gaussian 16:  ES64L-G16RevA.03 25-Dec-2016

 --------------------------------------
 #P UB3LYP/6-311++G(d,p) nosym opt freq
 --------------------------------------

 --------
 Oxidized
 --------
 Symbolic Z-matrix:
 Charge =  0 Multiplicity = 1

 SCF Done:  E(UB3LYP) =  -837.426968805     A.U. after   17 cycles
 SCF Done:  E(UB3LYP) =  -837.431948600     A.U. after   15 cycles
 SCF Done:  E(UB3LYP) =  -837.432162958     A.U. after   15 cycles
 SCF Done:  E(UB3LYP) =  -837.432370176     A.U. after   15 cycles
 SCF Done:  E(UB3LYP) =  -837.432629354     A.U. after   13 cycles
 SCF Done:  E(UB3LYP) =  -837.432657013     A.U. after   13 cycles
 SCF Done:  E(UB3LYP) =  -837.432690552     A.U. after   14 cycles
 SCF Done:  E(UB3LYP) =  -837.432701879     A.U. after   14 cycles
 SCF Done:  E(UB3LYP) =  -837.432711922     A.U. after   12 cycles
 SCF Done:  E(UB3LYP) =  -837.432716020     A.U. after   13 cycles
 SCF Done:  E(UB3LYP) =  -837.432720742     A.U. after   12 cycles
 SCF Done:  E(UB3LYP) =  -837.432722035     A.U. after   12 cycles
 SCF Done:  E(UB3LYP) =  -837.432722229     A.U. after   12 cycles
 SCF Done:  E(UB3LYP) =  -837.432722313     A.U. after   10 cycles
 SCF Done:  E(UB3LYP) =  -837.432722350     A.U. after   10 cycles
 SCF Done:  E(UB3LYP) =  -837.432722376     A.U. after   10 cycles
 SCF Done:  E(UB3LYP) =  -837.432722388     A.U. after   10 cycles
 Optimization completed.
    -- Stationary point found.
 Normal termination of Gaussian 16 at Wed Dec 20 02:36:45 2023.

 ----------------------------------------------------------------------
 #P Geom=AllCheck Guess=TCheck SCRF=Check GenChk UB3LYP/6-311++G(d,p) F
 req
 ----------------------------------------------------------------------

 Structure from the checkpoint file:  "098.chk"
 --------
 Oxidized
 --------
 Charge =  0 Multiplicity = 1

                          Input orientation:
 ---------------------------------------------------------------------
 Center     Atomic      Atomic             Coordinates (Angstroms)
 Number     Number       Type             X           Y           Z
 ---------------------------------------------------------------------
      1          6           0        1.350588    4.212528    5.228088
      2          6           0        1.831628    4.064743    3.830085
      3          6           0        1.645355    2.945421    3.113902
      4          6           0        0.981778    1.759257    3.739021
      5          6           0        0.406157    1.947834    5.094602
      6          6           0        0.531740    3.092003    5.785293
      7          8           0        1.662307    5.186875    5.885491
      8          8           0        0.942806    0.674242    3.193814
      9          1           0        2.363261    4.921226    3.431129
     10          6           0       -0.100018    3.201864    7.145871
     11          8           0       -0.088011    2.311120    7.959931
     12          8           0       -0.711125    4.378380    7.306197
     13          6           0       -1.352402    4.593636    8.581290
     14          1           0       -1.781721    5.590305    8.520382
     15          1           0       -0.616161    4.538029    9.383481
     16          1           0       -2.128103    3.845116    8.746025
     17          6           0        2.044726    2.852924    1.670067
     18          8           0        3.313155    3.252553    1.481516
     19          8           0        1.295949    2.499745    0.797151
     20          6           0        3.778811    3.238007    0.113605
     21          1           0       -0.117510    1.092172    5.506537
     22          1           0        4.814024    3.566484    0.159728
     23          1           0        3.182267    3.918297   -0.495086
     24          1           0        3.709258    2.229776   -0.295098
 ---------------------------------------------------------------------

 SCF Done:  E(UB3LYP) =  -837.432722388     A.U. after    1 cycles

 Alpha  occ. eigenvalues --  -19.19694 -19.19357 -19.15714 -19.15676 -19.13967
 Alpha  occ. eigenvalues --  -19.13793 -10.33327 -10.33255 -10.30668 -10.30571
 Alpha  occ. eigenvalues --  -10.24546 -10.24486 -10.24440 -10.24213 -10.23696
 Alpha  occ. eigenvalues --  -10.23633  -1.13814  -1.13731  -1.08934  -1.08754
 Alpha  occ. eigenvalues --   -1.05141  -1.04961  -0.89271  -0.83892  -0.76792
 Alpha  occ. eigenvalues --   -0.75846  -0.72816  -0.68242  -0.64666  -0.60766
 Alpha  occ. eigenvalues --   -0.58690  -0.55736  -0.55304  -0.54432  -0.50946
 Alpha  occ. eigenvalues --   -0.50725  -0.50188  -0.49911  -0.49125  -0.48107
 Alpha  occ. eigenvalues --   -0.46761  -0.46691  -0.44827  -0.44449  -0.43832
 Alpha  occ. eigenvalues --   -0.43274  -0.42095  -0.41625  -0.38896  -0.38553
 Alpha  occ. eigenvalues --   -0.33728  -0.33658  -0.33314  -0.33191  -0.31275
 Alpha  occ. eigenvalues --   -0.30893  -0.30455  -0.28649
 Alpha virt. eigenvalues --   -0.15429  -0.07848  -0.03080  -0.02232  -0.01294
 Alpha virt. eigenvalues --   -0.00845   0.00487   0.00925   0.01294   0.02345
 Alpha virt. eigenvalues --    0.02564   0.02775   0.02999   0.03955   0.04169

  Beta  occ. eigenvalues --  -19.19694 -19.19357 -19.15714 -19.15676 -19.13967
  Beta  occ. eigenvalues --  -19.13793 -10.33327 -10.33255 -10.30668 -10.30571
  Beta  occ. eigenvalues --  -10.24546 -10.24486 -10.24440 -10.24213 -10.23696
  Beta  occ. eigenvalues --  -10.23633  -1.13814  -1.13731  -1.08934  -1.08754
  Beta  occ. eigenvalues --   -1.05141  -1.04961  -0.89271  -0.83892  -0.76792
  Beta  occ. eigenvalues --   -0.75846  -0.72816  -0.68242  -0.64666  -0.60766
  Beta  occ. eigenvalues --   -0.58690  -0.55736  -0.55304  -0.54432  -0.50946
  Beta  occ. eigenvalues --   -0.50725  -0.50188  -0.49911  -0.49125  -0.48107
  Beta  occ. eigenvalues --   -0.46761  -0.46691  -0.44827  -0.44449  -0.43832
  Beta  occ. eigenvalues --   -0.43274  -0.42095  -0.41625  -0.38896  -0.38553
  Beta  occ. eigenvalues --   -0.33728  -0.33658  -0.33314  -0.33191  -0.31275
  Beta  occ. eigenvalues --   -0.30893  -0.30455  -0.28649
  Beta virt. eigenvalues --   -0.15429  -0.07848  -0.03080  -0.02232  -0.01294
  Beta virt. eigenvalues --   -0.00845   0.00487   0.00925   0.01294   0.02345
  Beta virt. eigenvalues --    0.02564   0.02775   0.02999   0.03955   0.04169

 Mulliken charges and spin densities:
               1          2
     1  C   -0.967376   0.000000
     2  C    0.014891  -0.000000
     3  C    0.994113  -0.000000
     4  C   -1.002735   0.000000
     5  C   -0.017616  -0.000000
     6  C    1.093604  -0.000000
     7  O   -0.172704  -0.000000
     8  O   -0.170383  -0.000000
     9  H    0.233978  -0.000000
    10  C   -0.204901   0.000000
    11  O   -0.216524  -0.000000
    12  O   -0.029255   0.000000
    13  C   -0.255488  -0.000000
    14  H    0.166580  -0.000000
    15  H    0.192428  -0.000000
    16  H    0.176861   0.000000
    17  C   -0.123790   0.000000
    18  O   -0.041746   0.000000
    19  O   -0.193643  -0.000000
    20  C   -0.256090  -0.000000
    21  H    0.243501  -0.000000
    22  H    0.167208  -0.000000
    23  H    0.184394   0.000000
    24  H    0.184693  -0.000000
 Sum of Mulliken charges =  -0.00000  -0.00000

 Dipole moment (field-independent basis, Debye):
    X=              0.5321    Y=              2.5903    Z=             -0.3373  Tot=              2.6658
 Quadrupole moment (field-independent basis, Debye-Ang):
   XX=            -79.1690   YY=            -83.9365   ZZ=            -89.6274
   XY=              0.3082   XZ=            -16.3898   YZ=              8.0623

  Exact polarizability: 106.347   7.403 141.811 -27.737  30.337 168.072
 Approx polarizability: 150.949  24.118 273.544  -1.647  73.813 227.461

                      1                      2                      3
                      A                      A                      A
 Frequencies --     22.2058                34.6055                40.3937
 Red. masses --      5.9059                 6.3379                 6.7984
 Frc consts  --      0.0017                 0.0045                 0.0065
 IR Inten    --      2.6890                 1.3781                 1.2452

                      4                      5                      6
                      A                      A                      A
 Frequencies --     88.0505                98.5149               107.6207
 Red. masses --      3.9695                 4.2223                 3.8678
 Frc consts  --      0.0181                 0.0241                 0.0264
 IR Inten    --      0.6815                 3.2957                 0.2485

                      7                      8                      9
                      A                      A                      A
 Frequencies --    125.2756               128.5490               140.4563
 Red. masses --      1.5864                 1.2046                 2.3468
 Frc consts  --      0.0147                 0.0117                 0.0273
 IR Inten    --      3.0848                 0.1541                 0.8476

                     10                     11                     12
                      A                      A                      A
 Frequencies --    191.4560               209.3372               223.1350
 Red. masses --      5.0444                 5.2175                 7.7721
 Frc consts  --      0.1089                 0.1347                 0.2280
 IR Inten    --      0.8254                12.5699                 2.2561

                     13                     14                     15
                      A                      A                      A
 Frequencies --    253.7568               269.6553               314.0119
 Red. masses --      6.6369                 6.2754                 4.6536
 Frc consts  --      0.2518                 0.2688                 0.2704
 IR Inten    --      5.6101                 4.7228                 7.4702

                     16                     17                     18
                      A                      A                      A
 Frequencies --    330.9293               337.8993               443.8642
 Red. masses --      4.7367                 9.6339                 4.6469
 Frc consts  --      0.3056                 0.6481                 0.5394
 IR Inten    --     27.7265                 2.2231                 1.5137

                     19                     20                     21
                      A                      A                      A
 Frequencies --    478.0599               490.5946               526.6717
 Red. masses --     10.0965                 9.1515                 7.9073
 Frc consts  --      1.3595                 1.2977                 1.2923
 IR Inten    --      0.6886                 0.7569                36.5161

                     22                     23                     24
                      A                      A                      A
 Frequencies --    562.7964               619.4724               716.1744
 Red. masses --      5.8241                 7.8839                 7.4902
 Frc consts  --      1.0869                 1.7825                 2.2635
 IR Inten    --      3.5630                 1.5603                 7.3353

                     25                     26                     27
                      A                      A                      A
 Frequencies --    720.2625               781.3354               782.5801
 Red. masses --      7.2506                 5.5718                 3.9205
 Frc consts  --      2.2162                 2.0041                 1.4147
 IR Inten    --      2.8625                 3.4809                 0.5008

                     28                     29                     30
                      A                      A                      A
 Frequencies --    813.8374               822.3143               853.7794
 Red. masses --      6.4001                 8.9398                 4.0445
 Frc consts  --      2.4975                 3.5617                 1.7370
 IR Inten    --     26.0736                19.9694                 3.1213

                     31                     32                     33
                      A                      A                      A
 Frequencies --    912.7566               937.6565               955.8460
 Red. masses --      2.6764                 2.5536                 1.8424
 Frc consts  --      1.3137                 1.3228                 0.9918
 IR Inten    --     10.1540                 0.6276                37.0148

                     34                     35                     36
                      A                      A                      A
 Frequencies --    976.1611              1039.6369              1089.8557
 Red. masses --      3.5227                 8.6694                 4.5836
 Frc consts  --      1.9777                 5.5208                 3.2077
 IR Inten    --     22.1730                 6.3140               323.1016

                     37                     38                     39
                      A                      A                      A
 Frequencies --   1169.6388              1171.0207              1198.0961
 Red. masses --      1.2795                 1.2816                 1.9426
 Frc consts  --      1.0314                 1.0355                 1.6429
 IR Inten    --      0.7645                 1.0859                25.9766

                     40                     41                     42
                      A                      A                      A
 Frequencies --   1204.4359              1217.9869              1222.6361
 Red. masses --      1.8403                 1.8519                 2.4332
 Frc consts  --      1.5730                 1.6187                 2.1430
 IR Inten    --     39.2260                38.9399                18.0914

                     43                     44                     45
                      A                      A                      A
 Frequencies --   1269.1037              1279.1846              1354.1004
 Red. masses --      3.0311                 4.2416                 2.2896
 Frc consts  --      2.8764                 4.0893                 2.4735
 IR Inten    --    320.3234               467.3457               115.8552

                     46                     47                     48
                      A                      A                      A
 Frequencies --   1371.8397              1470.1285              1470.6761
 Red. masses --      4.5596                 1.1986                 1.2052
 Frc consts  --      5.0557                 1.5263                 1.5359
 IR Inten    --     37.3885                24.7317                 7.9042

                     49                     50                     51
                      A                      A                      A
 Frequencies --   1483.7085              1483.9114              1494.2663
 Red. masses --      1.0440                 1.0442                 1.0474
 Frc consts  --      1.3541                 1.3547                 1.3779
 IR Inten    --     10.9782                10.2074                10.3743

                     52                     53                     54
                      A                      A                      A
 Frequencies --   1496.0058              1651.7745              1685.4982
 Red. masses --      1.0477                 8.9654                 9.5267
 Frc consts  --      1.3815                14.4119                15.9459
 IR Inten    --      9.7061                 4.3802                 0.3202

                     55                     56                     57
                      A                      A                      A
 Frequencies --   1727.3464              1732.8470              1778.8940
 Red. masses --     11.2852                11.9642                11.7349
 Frc consts  --     19.8389                21.1667                21.8791
 IR Inten    --     53.2157               314.8828               262.3451

                     58                     59                     60
                      A                      A                      A
 Frequencies --   1800.9231              3055.3997              3055.6446
 Red. masses --     11.9422                 1.0296                 1.0295
 Frc consts  --     22.8204                 5.6631                 5.6633
 IR Inten    --    304.0286                38.4888                17.7691

                     61                     62                     63
                      A                      A                      A
 Frequencies --   3131.1466              3131.9312              3166.1824
 Red. masses --      1.1075                 1.1075                 1.1068
 Frc consts  --      6.3971                 6.4004                 6.5371
 IR Inten    --     13.6424                12.9292                 9.5159

                     64                     65                     66
                      A                      A                      A
 Frequencies --   3167.3286              3189.7102              3191.1631
 Red. masses --      1.1065                 1.0925                 1.0928
 Frc consts  --      6.5400                 6.5487                 6.5566
 IR Inten    --      9.6775                 0.3368                 0.2082

 - Thermochemistry -
 -------------------
 Temperature   298.150 Kelvin.  Pressure   1.00000 Atm.
 Atom     1 has atomic number  6 and mass  12.00000

 Molecular mass:   224.03209 amu.
 Principal axes and moments of inertia in atomic units:
                           1         2         3
     Eigenvalues --  1348.855717005.932887897.23528
           X           -0.41582   0.37573   0.82820
           Y            0.14177   0.92631  -0.34906
           Z            0.89833   0.02773   0.43845
 This molecule is an asymmetric top.
 Rotational symmetry number  1.
 Warning -- assumption of classical behavior for rotation
           may cause significant error
 Rotational temperatures (Kelvin)      0.06421     0.01236     0.01097
 Rotational constants (GHZ):           1.33798     0.25760     0.22853
 Zero-point vibrational energy     444185.6 (Joules/Mol)
                                  106.16291 (Kcal/Mol)
 Warning -- explicit consideration of  23 degrees of freedom as
           vibrations may cause significant error
 Vibrational temperatures:     31.95    49.79    58.12   126.69   141.74
          (Kelvin)            154.84   180.24   184.95   202.09   275.46
                              301.19   321.04   365.10   387.97   451.79
                              476.13   486.16   638.62   687.82   705.86
                              757.76   809.74   891.28  1030.42  1036.30
                             1124.17  1125.96  1170.93  1183.13  1228.40
                             1313.25  1349.08  1375.25  1404.48  1495.81
                             1568.06  1682.85  1684.84  1723.79  1732.91
                             1752.41  1759.10  1825.96  1840.46  1948.25
                             1973.77  2115.19  2115.97  2134.73  2135.02
                             2149.92  2152.42  2376.54  2425.06  2485.27
                             2493.18  2559.43  2591.13  4396.04  4396.39
                             4505.02  4506.15  4555.43  4557.08  4589.28
                             4591.37

 Zero-point correction=                           0.169181 (Hartree/Particle)
 Thermal correction to Energy=                    0.184917
 Thermal correction to Enthalpy=                  0.185861
 Thermal correction to Gibbs Free Energy=         0.123622
 Sum of electronic and zero-point Energies=           -837.263541
 Sum of electronic and thermal Energies=              -837.247806
 Sum of electronic and thermal Enthalpies=            -837.246862
 Sum of electronic and thermal Free Energies=         -837.309101

                     E (Thermal)             CV                S
                      KCal/Mol        Cal/Mol-Kelvin    Cal/Mol-Kelvin
 Total                  116.037             54.228            130.993
 Electronic               0.000              0.000              0.000
 Translational            0.889              2.981             42.122
 Rotational               0.889              2.981             32.679
 Vibrational            114.260             48.266             56.192
 Vibration     1          0.593              1.985              6.426
 Vibration     2          0.594              1.983              5.546
 Vibration     3          0.594              1.981              5.240
 Vibration     4          0.601              1.958              3.703
 Vibration     5          0.604              1.950              3.483
 Vibration     6          0.606              1.943              3.311
 Vibration     7          0.610              1.928              3.017
 Vibration     8          0.611              1.925              2.968
 Vibration     9          0.615              1.913              2.798
 Vibration    10          0.634              1.852              2.214
 Vibration    11          0.642              1.826              2.049
 Vibration    12          0.649              1.806              1.934
 Vibration    13          0.665              1.756              1.704
 Vibration    14          0.674              1.729              1.598
 Vibration    15          0.702              1.647              1.341
 Vibration    16          0.713              1.614              1.256
 Vibration    17          0.718              1.600              1.222
 Vibration    18          0.803              1.374              0.815
 Vibration    19          0.835              1.299              0.715
 Vibration    20          0.846              1.271              0.682
 Vibration    21          0.882              1.191              0.595
 Vibration    22          0.919              1.112              0.518
 Vibration    23          0.979              0.991              0.417

 Optimization completed.
    -- Stationary point found.
 Normal termination of Gaussian 16 at Wed Dec 20 03:16:32 2023.
