 Q-Chem 5.4, Q-Chem, Inc., Pleasanton, CA (2021)
 Q-Chem 5.4.0 for Intel X86 EM64T Linux

User input:
--------------------------------------------------------------
$molecule
-2 1
C                 -1.0649970000      0.9975610000     -3.1251160000
C                 -1.8847970000      1.2003530000     -1.9607570000
C                  0.3081560000      0.7759000000     -2.7585490000
C                  0.7309390000      0.4906310000     -1.4644710000
C                 -0.2184700000      0.2488610000     -0.4000410000
C                 -1.4742500000      0.9174260000     -0.6621930000
C                  0.0704380000     -0.5499870000      0.8191930000
C                 -0.8789770000     -0.7917390000      1.8836210000
C                  1.3262180000     -1.2185400000      1.0813630000
C                 -0.4562030000     -1.0769910000      3.1777150000
C                  1.7367580000     -1.5014600000      2.3799220000
C                  0.9169400000     -1.2986790000      3.5442790000
O                 -1.4712770000      1.1521300000     -4.3241900000
O                  1.3232380000     -1.4532090000      4.7433540000
C                  2.2106910000      0.7599940000     -1.1814740000
C                  2.5575450000      2.2564610000     -1.3305470000
C                  4.0220670000      2.5671840000     -0.9971470000
C                  4.3778800000      4.0516850000     -1.1416180000
C                  2.1117140000     -1.9256000000     -0.0255420000
C                  1.9529810000     -3.4589010000      0.0509000000
C                  2.6838690000     -4.1925800000     -1.0804590000
C                  2.5314800000     -5.7170100000     -1.0163780000
C                 -2.3587170000     -1.0611380000      1.6006100000
C                 -2.7054490000     -2.5576520000      1.7494910000
C                 -4.1699600000     -2.8684550000      1.4161140000
C                 -4.5256380000     -4.3530050000      1.5603990000
C                 -2.2597680000      1.6244800000      0.4447020000
C                 -2.1011670000      3.1577880000      0.3682040000
C                 -2.8320530000      3.8914220000      1.4995910000
C                 -2.6798120000      5.4158670000      1.4354740000
H                 -2.8389700000      1.7008730000     -2.1215840000
H                  1.0507840000      0.9483180000     -3.5367510000
H                 -1.1988670000     -1.2493540000      3.9558950000
H                  2.6909140000     -2.0020040000      2.5407760000
H                  2.8608240000      0.1881680000     -1.8590350000
H                  2.4718680000      0.4688810000     -0.1657090000
H                  1.9023160000      2.8344760000     -0.6676100000
H                  2.3336290000      2.5909500000     -2.3493740000
H                  4.6760720000      1.9728380000     -1.6496070000
H                  4.2383380000      2.2394240000      0.0272930000
H                  4.2010130000      4.4010880000     -2.1650210000
H                  5.4295800000      4.2454110000     -0.8985170000
H                  3.7635880000      4.6679490000     -0.4763250000
H                  3.1840090000     -1.6887570000      0.0279140000
H                  1.7639650000     -1.6153610000     -1.0091360000
H                  0.8841040000     -3.7016010000      0.0116650000
H                  2.3141530000     -3.8230200000      1.0188960000
H                  3.7509700000     -3.9336320000     -1.0501100000
H                  2.3121860000     -3.8303090000     -2.0470490000
H                  2.9232340000     -6.1125550000     -0.0725540000
H                  3.0638280000     -6.2157160000     -1.8352790000
H                  1.4773370000     -6.0079190000     -1.0788990000
H                 -2.6199640000     -0.7698930000      0.5849040000
H                 -3.0088440000     -0.4894500000      2.2782950000
H                 -2.4814550000     -2.8922500000      2.7682660000
H                 -2.0502010000     -3.1355210000      1.0864470000
H                 -4.3863010000     -2.5405740000      0.3917270000
H                 -4.8239880000     -2.2742530000      2.0686840000
H                 -3.9113250000     -4.9691250000      0.8949920000
H                 -5.5773330000     -4.5467890000      1.3173220000
H                 -4.3486910000     -4.7025330000      2.5837450000
H                 -1.9119610000      1.3142910000      1.4282960000
H                 -3.3320470000      1.3875540000      0.3913090000
H                 -2.4624370000      3.5218560000     -0.5997750000
H                 -1.0323100000      3.4005870000      0.4073600000
H                 -2.4602820000      3.5292050000      2.4661660000
H                 -3.8991330000      3.6323760000      1.4693110000
H                 -1.6256950000      5.7068780000      1.4979640000
H                 -3.2121890000      5.9145380000      2.2543770000
H                 -3.0716260000      5.8113550000      0.4916510000
$end
$rem
MAX_SCF_CYCLES=200
BASIS  =  6-311++G(d,p)
GUI  =  2
JOB_TYPE  =  SP
METHOD  =  B3LYP
SCF_CONVERGENCE  = 6
SOLVENT_METHOD = COSMO
$end
$solvent
dielectric 37.219
opticaldielectric 1.43
$end

--------------------------------------------------------------

             Standard Nuclear Orientation (Angstroms)
    I     Atom           X                Y                Z
 ----------------------------------------------------------------
    1      C      -2.0178699535    -0.0009606254    -3.0575172006
    2      C      -1.7976020606    -1.1872365890    -2.2744719211
    3      C      -1.8024507165     1.1846077443    -2.2719751465
    4      C      -1.1746892105     1.1912549774    -1.0307527476
    5      C      -0.5518894742    -0.0006001879    -0.4974206181
    6      C      -1.1697780907    -1.1938303848    -1.0332392381
    7      C       0.5518833863     0.0005835821     0.4974872054
    8      C       1.1746658709    -1.1912797150     1.0308198379
    9      C       1.1697660068     1.1938055448     1.0333249106
   10      C       1.8024167179    -1.1846492648     2.2720574262
   11      C       1.7975823569     1.1872056960     2.2745522737
   12      C       2.0178614885     0.0009157662     3.0575862558
   13      O      -2.4940888126    -0.0006669416    -4.2407115987
   14      O       2.4940421904     0.0006313127     4.2407981132
   15      C      -1.4593704952     2.4145046943    -0.1561520356
   16      C      -2.9534343708     2.5140922247     0.2177455414
   17      C      -3.2611102980     3.6988062239     1.1420384036
   18      C      -4.7431036601     3.8072904822     1.5203832467
   19      C       1.4487823872     2.4203947749     0.1616568495
   20      C       2.9415714553     2.5257625734    -0.2158745089
   21      C       3.2427366329     3.7149482635    -1.1365222486
   22      C       4.7228888847     3.8287327332    -1.5204727828
   23      C       1.4593762474    -2.4145071081     0.1562020579
   24      C       2.9534177050    -2.5139087493    -0.2178329951
   25      C       3.2611757528    -3.6986058349    -1.1421213687
   26      C       4.7431494031    -3.8068938495    -1.5205939687
   27      C      -1.4487900834    -2.4204354897    -0.1615898516
   28      C      -2.9415924998    -2.5259076735     0.2158438618
   29      C      -3.2427066344    -3.7150927903     1.1365059988
   30      C      -4.7228725974    -3.8290046127     1.5203727576
   31      H      -2.2484521794    -2.1054450536    -2.6492506481
   32      H      -2.2573806323     2.1015875649    -2.6448148523
   33      H       2.2572905006    -2.1016649073     2.6448778741
   34      H       2.2484647146     2.1053937096     2.6493426803
   35      H      -1.1694312517     3.3469622842    -0.6613301020
   36      H      -0.8973100964     2.3665860901     0.7747242477
   37      H      -3.2532621922     1.5807282472     0.7095247720
   38      H      -3.5605130822     2.5896137379    -0.6909797534
   39      H      -2.9425137305     4.6304703339     0.6550353516
   40      H      -2.6581534845     3.6131116775     2.0546043477
   41      H      -5.3693509290     3.9251252805     0.6289532657
   42      H      -4.9349868080     4.6621441137     2.1800095618
   43      H      -5.0817294312     2.9040308028     2.0392332187
   44      H       1.1573122690     3.3503179481     0.6706330568
   45      H       0.8848639841     2.3740222240    -0.7681175221
   46      H       3.2426223095     1.5952708099    -0.7123563087
   47      H       3.5509892817     2.5995510034     0.6914343119
   48      H       2.9237047685     4.6438471894    -0.6445414281
   49      H       2.6363059044     3.6313088105    -2.0469787118
   50      H       5.3525644052     3.9446112879    -0.6311968493
   51      H       4.9098743870     4.6866942067    -2.1774655128
   52      H       5.0616360102     2.9284292965    -2.0443606457
   53      H       0.8972134812    -2.3666969636    -0.7746145395
   54      H       1.1696050108    -3.3469759021     0.6614582536
   55      H       3.5605784090    -2.5893209341     0.6908476508
   56      H       3.2530731046    -1.5805176400    -0.7096638066
   57      H       2.6581252250    -3.6130157353    -2.0546357521
   58      H       2.9427509150    -4.6303021452    -0.6550650530
   59      H       5.0816023955    -2.9036024710    -2.0395015227
   60      H       4.9350945192    -4.6617404338    -2.1802116074
   61      H       5.3694922178    -3.9246128893    -0.6292163801
   62      H      -0.8849236685    -2.3740184036     0.7682188395
   63      H      -1.1572233511    -3.3503500531    -0.6705247602
   64      H      -3.5509492029    -2.5997831423    -0.6914993420
   65      H      -3.2427596813    -1.5954257276     0.7122726184
   66      H      -2.6363385115    -3.6313767556     2.0469956402
   67      H      -2.9235624767    -4.6439777888     0.6445699246
   68      H      -5.0617240100    -2.9287332421     2.0442489179
   69      H      -4.9098219979    -4.6869872156     2.1773475932
   70      H      -5.3524890209    -3.9449286193     0.6310608843
 ----------------------------------------------------------------

  103   -1241.8309526128      8.89e-07  Convergence criterion met
 Total energy in the final basis set =    -1241.8309526128
    9   -1242.0790787334      9.46e-07  Convergence criterion met
 Total energy in the final basis set =    -1242.0790787334

                    Orbital Energies (a.u.)
 --------------------------------------------------------------

 Alpha MOs
 -- Occupied --
-19.0387 -19.0387 -10.1876 -10.1876 -10.1532 -10.1532 -10.1532 -10.1532
-10.1521 -10.1521 -10.1520 -10.1520 -10.1484 -10.1484 -10.1484 -10.1484
-10.1478 -10.1478 -10.1478 -10.1478 -10.1478 -10.1475 -10.1464 -10.1464
-10.1463 -10.1462 -10.1209 -10.1209 -10.1208 -10.1208  -0.9565  -0.9565
 -0.8328  -0.8093  -0.7937  -0.7878  -0.7776  -0.7745  -0.7485  -0.7396
 -0.7165  -0.7093  -0.7070  -0.6779  -0.6778  -0.6545  -0.6297  -0.6260
 -0.6110  -0.6091  -0.5740  -0.5707  -0.5663  -0.5629  -0.5495  -0.5381
 -0.5237  -0.5218  -0.4770  -0.4679  -0.4622  -0.4572  -0.4555  -0.4446
 -0.4274  -0.4241  -0.4219  -0.4186  -0.4175  -0.4146  -0.4133  -0.4063
 -0.4029  -0.3964  -0.3940  -0.3939  -0.3857  -0.3824  -0.3797  -0.3753
 -0.3709  -0.3648  -0.3639  -0.3614  -0.3540  -0.3452  -0.3432  -0.3423
 -0.3411  -0.3374  -0.3320  -0.3317  -0.3314  -0.3259  -0.3241  -0.3217
 -0.3169  -0.3167  -0.3155  -0.3116  -0.3095  -0.3094  -0.3039  -0.3015
 -0.2856  -0.2853  -0.2497  -0.2137  -0.2125  -0.1979  -0.1978  -0.1896
 -0.1289

          Ground-State Mulliken Net Atomic Charges

     Atom                 Charge (a.u.)
  ----------------------------------------
      1 C                    -0.366216
      2 C                    -0.371046
      3 C                    -0.375396
      4 C                     1.080183
      5 C                    -0.037925
      6 C                     1.065990
      7 C                    -0.037150
      8 C                     1.067145
      9 C                     1.080389
     10 C                    -0.369854
     11 C                    -0.377342
     12 C                    -0.366820
     13 O                    -0.712318
     14 O                    -0.712353
     15 C                    -0.389609
     16 C                    -0.753994
     17 C                    -0.168713
     18 C                    -0.733907
     19 C                    -0.391032
     20 C                    -0.749223
     21 C                    -0.169603
     22 C                    -0.733387
     23 C                    -0.387609
     24 C                    -0.748246
     25 C                    -0.170582
     26 C                    -0.734186
     27 C                    -0.387685
     28 C                    -0.744019
     29 C                    -0.170969
     30 C                    -0.733687
     31 H                     0.162456
     32 H                     0.161483
     33 H                     0.162579
     34 H                     0.161641
     35 H                     0.191677
     36 H                     0.109678
     37 H                     0.053333
     38 H                     0.158176
     39 H                     0.139853
     40 H                     0.139046
     41 H                     0.142473
     42 H                     0.154563
     43 H                     0.149739
     44 H                     0.191794
     45 H                     0.108734
     46 H                     0.052192
     47 H                     0.159025
     48 H                     0.139897
     49 H                     0.139004
     50 H                     0.142403
     51 H                     0.154544
     52 H                     0.149782
     53 H                     0.108899
     54 H                     0.192374
     55 H                     0.158350
     56 H                     0.052915
     57 H                     0.139089
     58 H                     0.139859
     59 H                     0.149694
     60 H                     0.154571
     61 H                     0.142589
     62 H                     0.107789
     63 H                     0.192516
     64 H                     0.158865
     65 H                     0.051883
     66 H                     0.139061
     67 H                     0.139833
     68 H                     0.149732
     69 H                     0.154560
     70 H                     0.142510
  ----------------------------------------
  Sum of atomic charges =    -2.000000

                    Cartesian Multipole Moments
 -----------------------------------------------------------------
    Charge (ESU x 10^10)
                -9.6064
    Dipole Moment (Debye)
         X      -0.0019      Y       0.0294      Z      -0.0013
       Tot       0.0295
    Quadrupole Moments (Debye-Ang)
        XX    -253.5311     XY      -0.0329     YY    -197.8057
        XZ     -79.0695     YZ      -0.0152     ZZ    -340.5519

 Total job time:  3455.57s(wall), 26518.98s(cpu)
        *  Thank you very much for using Q-Chem.  Have a nice day.  *
