 Gaussian 16, Revision A.03,
 Gaussian 16:  ES64L-G16RevA.03 25-Dec-2016

 ----------------------------------------------------------------
 #P UB3LYP/6-311++G(d,p) SCRF=(PCM,Solvent=n,n-DiMethylFormamide)
 ----------------------------------------------------------------

 ------------------
 Quinone PCM in DMF
 ------------------
 Symbolic Z-matrix:
 Charge =  0 Multiplicity = 1

                         Standard orientation:
 ---------------------------------------------------------------------
 Center     Atomic      Atomic             Coordinates (Angstroms)
 Number     Number       Type             X           Y           Z
 ---------------------------------------------------------------------
      1          8           0        4.117922   -1.440546    0.000056
      2          6           0        3.077466   -0.821729    0.000019
      3          7           0        3.027191    0.570937    0.000045
      4          6           0        1.907248    1.410533    0.000026
      5          8           0        2.022282    2.612139    0.000041
      6          6           0        0.611347    0.664314   -0.000021
      7          7           0       -0.513202    1.337311   -0.000048
      8          6           0       -1.667988    0.630354   -0.000068
      9          6           0       -2.909061    1.317293   -0.000055
     10          6           0       -4.083076    0.606272    0.000040
     11          6           0       -4.064085   -0.811932    0.000104
     12          6           0       -2.878302   -1.507368    0.000051
     13          6           0       -1.650102   -0.803256   -0.000050
     14          7           0       -0.476206   -1.485380   -0.000077
     15          6           0        0.621576   -0.767160   -0.000065
     16          7           0        1.835055   -1.429896   -0.000056
     17          1           0        3.929397    1.031232    0.000079
     18          1           0       -2.889198    2.400354   -0.000088
     19          1           0       -5.033889    1.125972    0.000076
     20          1           0       -5.003377   -1.353288    0.000204
     21          1           0       -2.849819   -2.590177    0.000096
     22          1           0        1.825251   -2.441564   -0.000073
 ---------------------------------------------------------------------

 SCF Done:  E(UB3LYP) =  -754.410182682     A.U. after   15 cycles

 The electronic state is 1-A.
 Alpha  occ. eigenvalues --  -19.13552 -19.12967 -14.38883 -14.38739 -14.36114
 Alpha  occ. eigenvalues --  -14.34975 -10.34752 -10.32226 -10.29473 -10.25709
 Alpha  occ. eigenvalues --  -10.24620 -10.24011 -10.20289 -10.19929 -10.19824
 Alpha  occ. eigenvalues --  -10.19658  -1.10700  -1.08529  -1.03175  -0.98729
 Alpha  occ. eigenvalues --   -0.95900  -0.93205  -0.87447  -0.79744  -0.77819
 Alpha  occ. eigenvalues --   -0.72643  -0.70326  -0.68195  -0.64104  -0.62886
 Alpha  occ. eigenvalues --   -0.59232  -0.58860  -0.55206  -0.52612  -0.50972
 Alpha  occ. eigenvalues --   -0.50482  -0.49803  -0.47389  -0.47154  -0.46083
 Alpha  occ. eigenvalues --   -0.46000  -0.45463  -0.44201  -0.39356  -0.39193
 Alpha  occ. eigenvalues --   -0.38717  -0.37067  -0.34488  -0.32997  -0.32919
 Alpha  occ. eigenvalues --   -0.31637  -0.30705  -0.28413  -0.27500  -0.25782
 Alpha virt. eigenvalues --   -0.11396  -0.05831  -0.02624  -0.01403  -0.00691
 Alpha virt. eigenvalues --    0.00072   0.00971   0.01556   0.01935   0.02352
 Alpha virt. eigenvalues --    0.03549   0.03987   0.04592   0.04731   0.05800

  Beta  occ. eigenvalues --  -19.13552 -19.12967 -14.38883 -14.38739 -14.36114
  Beta  occ. eigenvalues --  -14.34975 -10.34752 -10.32226 -10.29473 -10.25709
  Beta  occ. eigenvalues --  -10.24620 -10.24011 -10.20289 -10.19929 -10.19824
  Beta  occ. eigenvalues --  -10.19658  -1.10700  -1.08529  -1.03175  -0.98729
  Beta  occ. eigenvalues --   -0.95900  -0.93205  -0.87447  -0.79744  -0.77819
  Beta  occ. eigenvalues --   -0.72643  -0.70326  -0.68195  -0.64104  -0.62886
  Beta  occ. eigenvalues --   -0.59232  -0.58860  -0.55206  -0.52612  -0.50972
  Beta  occ. eigenvalues --   -0.50482  -0.49803  -0.47389  -0.47154  -0.46083
  Beta  occ. eigenvalues --   -0.46000  -0.45463  -0.44201  -0.39356  -0.39193
  Beta  occ. eigenvalues --   -0.38717  -0.37067  -0.34488  -0.32997  -0.32919
  Beta  occ. eigenvalues --   -0.31637  -0.30705  -0.28413  -0.27500  -0.25782
  Beta virt. eigenvalues --   -0.11396  -0.05831  -0.02624  -0.01403  -0.00691
  Beta virt. eigenvalues --    0.00072   0.00971   0.01556   0.01935   0.02352
  Beta virt. eigenvalues --    0.03549   0.03987   0.04592   0.04731   0.05800

 Mulliken charges and spin densities:
               1          2
     1  O   -0.362332   0.000000
     2  C    0.392837  -0.000000
     3  N   -0.447423  -0.000000
     4  C    0.393585   0.000000
     5  O   -0.350218   0.000000
     6  C   -0.135910  -0.000000
     7  N    0.008416   0.000000
     8  C   -0.046233  -0.000000
     9  C   -0.142666   0.000000
    10  C   -0.312980  -0.000000
    11  C   -0.224459   0.000000
    12  C   -0.191632   0.000000
    13  C    0.050780   0.000000
    14  N   -0.065138  -0.000000
    15  C    0.234532   0.000000
    16  N   -0.452259  -0.000000
    17  H    0.427771   0.000000
    18  H    0.216991   0.000000
    19  H    0.210109   0.000000
    20  H    0.214362  -0.000000
    21  H    0.206972  -0.000000
    22  H    0.374894  -0.000000
 Sum of Mulliken charges =  -0.00000  -0.00000

 Dipole moment (field-independent basis, Debye):
    X=             -5.2384    Y=             -2.8649    Z=              0.0000  Tot=              5.9706
 Quadrupole moment (field-independent basis, Debye-Ang):
   XX=            -84.2987   YY=           -101.8873   ZZ=            -91.4909
   XY=              3.0567   XZ=             -0.0012   YZ=             -0.0002

 Normal termination of Gaussian 16 at Sat Jan 13 19:17:47 2024.
