 Gaussian 16, Revision A.03,
 Gaussian 16:  ES64L-G16RevA.03 25-Dec-2016

 ----------------------------------------------------------------------
 #P UB3LYP/6-311++G(d,p) nosym opt freq SCRF=(PCM,Solvent=n,n-DiMethylF
 ormamide)
 ----------------------------------------------------------------------

 --------
 Oxidized
 --------
 Symbolic Z-matrix:
 Charge =  0 Multiplicity = 1

 SCF Done:  E(UB3LYP) =  -917.887096846     A.U. after   15 cycles
 SCF Done:  E(UB3LYP) =  -917.887104121     A.U. after   11 cycles
 SCF Done:  E(UB3LYP) =  -917.887094951     A.U. after   11 cycles
 SCF Done:  E(UB3LYP) =  -917.887112150     A.U. after   10 cycles
 SCF Done:  E(UB3LYP) =  -917.887116599     A.U. after   10 cycles
 SCF Done:  E(UB3LYP) =  -917.887142076     A.U. after   13 cycles
 SCF Done:  E(UB3LYP) =  -917.887184927     A.U. after   14 cycles
 SCF Done:  E(UB3LYP) =  -917.887136921     A.U. after   15 cycles
 SCF Done:  E(UB3LYP) =  -917.887184035     A.U. after   15 cycles
 SCF Done:  E(UB3LYP) =  -917.887222308     A.U. after   12 cycles
 SCF Done:  E(UB3LYP) =  -917.859514004     A.U. after   15 cycles
 SCF Done:  E(UB3LYP) =  -917.887043478     A.U. after   12 cycles
 SCF Done:  E(UB3LYP) =  -917.887222687     A.U. after    8 cycles
 SCF Done:  E(UB3LYP) =  -917.887189622     A.U. after   12 cycles
 SCF Done:  E(UB3LYP) =  -917.887230281     A.U. after   11 cycles
 SCF Done:  E(UB3LYP) =  -917.887193289     A.U. after   11 cycles
 SCF Done:  E(UB3LYP) =  -917.887193589     A.U. after   10 cycles
 SCF Done:  E(UB3LYP) =  -917.887193616     A.U. after    9 cycles
 SCF Done:  E(UB3LYP) =  -917.887193625     A.U. after    8 cycles
 Optimization completed.
    -- Stationary point found.
 Normal termination of Gaussian 16 at Sun Feb 11 17:41:25 2024.

 ----------------------------------------------------------------------
 #P Geom=AllCheck Guess=TCheck SCRF=Check GenChk UB3LYP/6-311++G(d,p) F
 req
 ----------------------------------------------------------------------

 Structure from the checkpoint file:  "211.chk"
 --------
 Oxidized
 --------
 Charge =  0 Multiplicity = 1

                          Input orientation:
 ---------------------------------------------------------------------
 Center     Atomic      Atomic             Coordinates (Angstroms)
 Number     Number       Type             X           Y           Z
 ---------------------------------------------------------------------
      1          6           0        5.265424   -2.323234    0.389707
      2          6           0        6.025589   -1.607654   -0.530103
      3          6           0        5.400756   -0.766754   -1.454809
      4          6           0        3.871233   -2.217621    0.383218
      5          6           0        3.245998   -1.375675   -0.547831
      6          6           0        4.015104   -0.647277   -1.460012
      7          6           0        3.079849   -2.981761    1.394747
      8          6           0        1.593056   -3.037242    1.237802
      9          6           0        0.985590   -2.153199    0.338098
     10          6           0        1.768442   -1.251796   -0.555255
     11          6           0        0.774645   -3.929017    2.014197
     12          6           0       -0.653724   -3.853580    1.873562
     13          6           0       -0.422505   -2.092139    0.224736
     14          6           0       -1.219331   -2.910547    0.976827
     15          8           0        3.667572   -3.520454    2.325179
     16          8           0        1.203871   -0.451614   -1.292937
     17          1           0        5.739673   -2.970381    1.116111
     18          1           0        7.105158   -1.701841   -0.526484
     19          1           0        5.994970   -0.206991   -2.167397
     20          1           0       -2.298674   -2.855413    0.887586
     21          1           0        3.514949    0.004278   -2.165175
     22          1           0       -0.850573   -1.383612   -0.471741
     23          6           0       -1.495908   -4.715431    2.616298
     24          6           0       -0.957108   -5.647894    3.472786
     25          6           0        0.447056   -5.753744    3.604798
     26          6           0        1.282518   -4.922914    2.902307
     27          8           0       -1.703636   -6.508380    4.218948
     28          1           0       -2.571014   -4.633975    2.495092
     29          1           0        0.851404   -6.507246    4.270476
     30          1           0        2.347626   -5.023340    3.026443
     31          1           0       -2.644818   -6.362123    4.060220
 ---------------------------------------------------------------------

 SCF Done:  E(UB3LYP) =  -917.887193625     A.U. after    1 cycles

 Alpha  occ. eigenvalues --  -19.17260 -19.13196 -19.13113 -10.28683 -10.28277
 Alpha  occ. eigenvalues --  -10.25717 -10.21843 -10.21092 -10.21057 -10.21047
 Alpha  occ. eigenvalues --  -10.20913 -10.20772 -10.19910 -10.19875 -10.19826
 Alpha  occ. eigenvalues --  -10.19796 -10.19775 -10.19364 -10.19131 -10.19046
 Alpha  occ. eigenvalues --  -10.18833  -1.08392  -1.06673  -1.06333  -0.90182
 Alpha  occ. eigenvalues --   -0.88873  -0.85114  -0.81344  -0.78821  -0.77891
 Alpha  occ. eigenvalues --   -0.76837  -0.74723  -0.69559  -0.66689  -0.66014
 Alpha  occ. eigenvalues --   -0.63670  -0.62373  -0.59117  -0.57993  -0.56065
 Alpha  occ. eigenvalues --   -0.54413  -0.52656  -0.50902  -0.49377  -0.49139
 Alpha  occ. eigenvalues --   -0.47941  -0.46444  -0.46062  -0.45759  -0.45225
 Alpha  occ. eigenvalues --   -0.44624  -0.43677  -0.43421  -0.43246  -0.41854
 Alpha  occ. eigenvalues --   -0.41590  -0.39739  -0.39457  -0.39015  -0.37757
 Alpha  occ. eigenvalues --   -0.37517  -0.37045  -0.35843  -0.33096  -0.30748
 Alpha  occ. eigenvalues --   -0.28788  -0.28378  -0.27993  -0.27311  -0.25929
 Alpha  occ. eigenvalues --   -0.23718
 Alpha virt. eigenvalues --   -0.12330  -0.07299  -0.05360  -0.03157  -0.01248
 Alpha virt. eigenvalues --   -0.00789  -0.00285   0.00636   0.00967   0.01771
 Alpha virt. eigenvalues --    0.02460   0.02617   0.03133   0.03183   0.03681

  Beta  occ. eigenvalues --  -19.17260 -19.13196 -19.13113 -10.28683 -10.28277
  Beta  occ. eigenvalues --  -10.25717 -10.21843 -10.21092 -10.21057 -10.21047
  Beta  occ. eigenvalues --  -10.20913 -10.20772 -10.19910 -10.19875 -10.19826
  Beta  occ. eigenvalues --  -10.19796 -10.19775 -10.19364 -10.19131 -10.19046
  Beta  occ. eigenvalues --  -10.18833  -1.08392  -1.06673  -1.06333  -0.90182
  Beta  occ. eigenvalues --   -0.88873  -0.85114  -0.81344  -0.78821  -0.77891
  Beta  occ. eigenvalues --   -0.76837  -0.74723  -0.69559  -0.66689  -0.66014
  Beta  occ. eigenvalues --   -0.63670  -0.62373  -0.59117  -0.57993  -0.56065
  Beta  occ. eigenvalues --   -0.54413  -0.52656  -0.50902  -0.49377  -0.49139
  Beta  occ. eigenvalues --   -0.47941  -0.46444  -0.46062  -0.45759  -0.45225
  Beta  occ. eigenvalues --   -0.44624  -0.43677  -0.43421  -0.43246  -0.41854
  Beta  occ. eigenvalues --   -0.41590  -0.39739  -0.39457  -0.39015  -0.37757
  Beta  occ. eigenvalues --   -0.37517  -0.37045  -0.35843  -0.33096  -0.30748
  Beta  occ. eigenvalues --   -0.28788  -0.28378  -0.27993  -0.27311  -0.25929
  Beta  occ. eigenvalues --   -0.23718
  Beta virt. eigenvalues --   -0.12330  -0.07299  -0.05360  -0.03157  -0.01248
  Beta virt. eigenvalues --   -0.00789  -0.00285   0.00636   0.00967   0.01771
  Beta virt. eigenvalues --    0.02460   0.02617   0.03133   0.03183   0.03681

 Mulliken charges and spin densities:
               1          2
     1  C    0.095220  -0.000000
     2  C   -0.410778   0.000000
     3  C   -0.403610  -0.000000
     4  C    0.132306   0.000000
     5  C    0.303787  -0.000000
     6  C    0.100760   0.000000
     7  C   -1.230040   0.000000
     8  C    0.539659  -0.000000
     9  C    1.021158   0.000000
    10  C   -0.711828  -0.000000
    11  C    0.725344  -0.000000
    12  C    0.940316   0.000000
    13  C   -0.387059  -0.000000
    14  C   -0.496431  -0.000000
    15  O   -0.252329   0.000000
    16  O   -0.275086   0.000000
    17  H    0.190784   0.000000
    18  H    0.208748  -0.000000
    19  H    0.207154   0.000000
    20  H    0.190415  -0.000000
    21  H    0.188548  -0.000000
    22  H    0.182212  -0.000000
    23  C   -0.050706  -0.000000
    24  C   -0.292189   0.000000
    25  C   -0.573190  -0.000000
    26  C   -0.528531  -0.000000
    27  O   -0.264952   0.000000
    28  H    0.156521  -0.000000
    29  H    0.226972  -0.000000
    30  H    0.156537  -0.000000
    31  H    0.310288  -0.000000
 Sum of Mulliken charges =  -0.00000  -0.00000

 Dipole moment (field-independent basis, Debye):
    X=             -1.6477    Y=             -1.2869    Z=             -0.4396  Tot=              2.1364
 Quadrupole moment (field-independent basis, Debye-Ang):
   XX=            -87.5846   YY=           -117.5162   ZZ=           -126.5200
   XY=             16.9340   XZ=            -19.2200   YZ=              0.4994

  Exact polarizability: 411.140  49.107 307.566 -46.111-163.502 306.537
 Approx polarizability: 466.708  22.696 370.507 -17.650-200.512 373.004

                      1                      2                      3
                      A                      A                      A
 Frequencies --     24.8539                49.6828                75.6946
 Red. masses --      8.1023                 5.5748                 6.3731
 Frc consts  --      0.0029                 0.0081                 0.0215
 IR Inten    --      7.7920                 3.2328                 1.9154

                      4                      5                      6
                      A                      A                      A
 Frequencies --    108.4806               156.9908               161.2822
 Red. masses --      4.6727                 6.5097                 7.4124
 Frc consts  --      0.0324                 0.0945                 0.1136
 IR Inten    --      0.4546                 1.7168                 2.4616

                      7                      8                      9
                      A                      A                      A
 Frequencies --    179.0402               239.5756               272.1471
 Red. masses --      4.8074                 5.2247                 6.1652
 Frc consts  --      0.0908                 0.1767                 0.2690
 IR Inten    --      0.2762                 0.1823                 0.5837

                     10                     11                     12
                      A                      A                      A
 Frequencies --    287.1885               330.0259               337.9118
 Red. masses --      6.9220                 5.4234                 7.5640
 Frc consts  --      0.3364                 0.3480                 0.5089
 IR Inten    --      1.1163                 1.4143                 1.6756

                     13                     14                     15
                      A                      A                      A
 Frequencies --    386.2650               391.2714               404.0625
 Red. masses --      3.6666                 1.4219                 7.5464
 Frc consts  --      0.3223                 0.1283                 0.7259
 IR Inten    --     45.3962               150.1312                12.9328

                     16                     17                     18
                      A                      A                      A
 Frequencies --    408.3278               430.5831               452.5293
 Red. masses --      3.3537                 3.2812                 4.6618
 Frc consts  --      0.3295                 0.3584                 0.5625
 IR Inten    --     13.7820                 1.0965                 3.1819

                     19                     20                     21
                      A                      A                      A
 Frequencies --    467.3337               480.9372               510.2316
 Red. masses --      5.3413                 7.9234                 3.4052
 Frc consts  --      0.6873                 1.0798                 0.5223
 IR Inten    --     12.2882                29.0564                22.8321

                     22                     23                     24
                      A                      A                      A
 Frequencies --    520.7157               553.9322               562.8786
 Red. masses --      7.7621                 6.8869                 4.6948
 Frc consts  --      1.2400                 1.2450                 0.8764
 IR Inten    --     38.4167                27.5651                 3.9253

                     25                     26                     27
                      A                      A                      A
 Frequencies --    628.0215               648.7280               660.3476
 Red. masses --      6.0271                 3.7950                 6.7475
 Frc consts  --      1.4006                 0.9410                 1.7335
 IR Inten    --     11.8731                 1.0165                13.9959

                     28                     29                     30
                      A                      A                      A
 Frequencies --    688.5927               699.8035               731.5366
 Red. masses --      6.8689                 4.5480                 2.1792
 Frc consts  --      1.9189                 1.3123                 0.6871
 IR Inten    --      0.4388                 3.1636               111.0043

                     31                     32                     33
                      A                      A                      A
 Frequencies --    740.9006               751.3154               795.5857
 Red. masses --      6.8160                 4.6781                 6.1784
 Frc consts  --      2.2045                 1.5558                 2.3041
 IR Inten    --      4.8796                 3.3349                20.1004

                     34                     35                     36
                      A                      A                      A
 Frequencies --    802.2810               811.2548               831.6431
 Red. masses --      1.9424                 2.9148                 6.1254
 Frc consts  --      0.7366                 1.1302                 2.4961
 IR Inten    --      2.5930                26.3231                27.9176

                     37                     38                     39
                      A                      A                      A
 Frequencies --    839.1608               846.5802               876.3768
 Red. masses --      1.6078                 1.7516                 1.5870
 Frc consts  --      0.6671                 0.7396                 0.7181
 IR Inten    --     15.9161                16.3278                80.0614

                     40                     41                     42
                      A                      A                      A
 Frequencies --    908.0451               913.9379               970.7822
 Red. masses --      6.7530                 1.4415                 3.9233
 Frc consts  --      3.2807                 0.7094                 2.1784
 IR Inten    --     13.3943                 0.4062                 8.6177

                     43                     44                     45
                      A                      A                      A
 Frequencies --    994.0168               999.2843              1003.8702
 Red. masses --      1.3145                 1.4642                 3.3967
 Frc consts  --      0.7652                 0.8614                 2.0168
 IR Inten    --     10.2910                20.2793               241.2519

                     46                     47                     48
                      A                      A                      A
 Frequencies --   1005.9789              1021.4064              1055.8586
 Red. masses --      1.4106                 1.3293                 2.2228
 Frc consts  --      0.8411                 0.8171                 1.4600
 IR Inten    --     25.4442                 0.1217                 2.2118

                     49                     50                     51
                      A                      A                      A
 Frequencies --   1075.8115              1115.0367              1167.5383
 Red. masses --      3.4159                 2.0928                 1.3302
 Frc consts  --      2.3293                 1.5331                 1.0684
 IR Inten    --     43.0934                 7.6051                75.1950

                     52                     53                     54
                      A                      A                      A
 Frequencies --   1172.9972              1179.2386              1193.9493
 Red. masses --      1.5543                 1.2008                 1.4738
 Frc consts  --      1.2600                 0.9838                 1.2379
 IR Inten    --    155.2375                30.8052               298.3851

                     55                     56                     57
                      A                      A                      A
 Frequencies --   1195.8652              1206.6752              1237.5144
 Red. masses --      2.3899                 1.6561                 2.1491
 Frc consts  --      2.0137                 1.4208                 1.9391
 IR Inten    --    146.3184                30.7321               186.5876

                     58                     59                     60
                      A                      A                      A
 Frequencies --   1274.9343              1283.9647              1315.0121
 Red. masses --      2.1607                 2.2035                 3.2522
 Frc consts  --      2.0693                 2.1403                 3.3135
 IR Inten    --    417.9626               446.5535               228.1151

                     61                     62                     63
                      A                      A                      A
 Frequencies --   1317.4598              1358.9778              1367.3465
 Red. masses --      2.3306                 7.7175                 3.9514
 Frc consts  --      2.3833                 8.3975                 4.3527
 IR Inten    --    295.7479                41.3345                37.0170

                     64                     65                     66
                      A                      A                      A
 Frequencies --   1391.3626              1408.3222              1447.3630
 Red. masses --      6.7038                 3.9960                 2.8908
 Frc consts  --      7.6464                 4.6696                 3.5679
 IR Inten    --    134.3147                40.6982                35.2565

                     67                     68                     69
                      A                      A                      A
 Frequencies --   1479.6229              1493.7165              1508.0888
 Red. masses --      2.3675                 2.6183                 2.6241
 Frc consts  --      3.0539                 3.4420                 3.5163
 IR Inten    --     11.3537               357.7159                 4.2818

                     70                     71                     72
                      A                      A                      A
 Frequencies --   1546.2059              1594.8444              1615.5911
 Red. masses --      3.5394                 7.2180                 7.0564
 Frc consts  --      4.9856                10.8170                10.8517
 IR Inten    --     76.4876                16.4616                68.0894

                     73                     74                     75
                      A                      A                      A
 Frequencies --   1619.2087              1627.8099              1647.7829
 Red. masses --      6.1340                 6.2274                 6.1163
 Frc consts  --      9.4754                 9.7222                 9.7846
 IR Inten    --    308.0033                13.0447               416.9420

                     76                     77                     78
                      A                      A                      A
 Frequencies --   1684.9349              1690.8817              3169.2454
 Red. masses --     11.8526                11.5921                 1.0913
 Frc consts  --     19.8258                19.5272                 6.4578
 IR Inten    --     46.1177               737.8997                18.8513

                     79                     80                     81
                      A                      A                      A
 Frequencies --   3175.9699              3178.4669              3187.7955
 Red. masses --      1.0900                 1.0875                 1.0913
 Frc consts  --      6.4780                 6.4729                 6.5340
 IR Inten    --     16.1848                 3.6624                10.6010

                     82                     83                     84
                      A                      A                      A
 Frequencies --   3190.9732              3204.0817              3207.4686
 Red. masses --      1.0916                 1.0929                 1.0947
 Frc consts  --      6.5490                 6.6104                 6.6357
 IR Inten    --     12.7364                 5.9234                20.5332

                     85                     86                     87
                      A                      A                      A
 Frequencies --   3209.7629              3257.8689              3801.1877
 Red. masses --      1.0929                 1.0915                 1.0663
 Frc consts  --      6.6341                 6.8256                 9.0773
 IR Inten    --      7.3039                15.6304               190.6157

 - Thermochemistry -
 -------------------
 Temperature   298.150 Kelvin.  Pressure   1.00000 Atm.
 Atom     1 has atomic number  6 and mass  12.00000

 Molecular mass:   274.06299 amu.
 Principal axes and moments of inertia in atomic units:
                           1         2         3
     Eigenvalues --  2318.485309407.02455**********
           X            0.68111   0.73208  -0.01244
           Y            0.52704  -0.47842   0.70239
           Z           -0.50825   0.48496   0.71169
 This molecule is an asymmetric top.
 Rotational symmetry number  1.
 Warning -- assumption of classical behavior for rotation
           may cause significant error
 Rotational temperatures (Kelvin)      0.03736     0.00921     0.00742
 Rotational constants (GHZ):           0.77841     0.19185     0.15470
 Zero-point vibrational energy     603026.3 (Joules/Mol)
                                  144.12675 (Kcal/Mol)
 Warning -- explicit consideration of  24 degrees of freedom as
           vibrations may cause significant error
 Vibrational temperatures:     35.76    71.48   108.91   156.08   225.87
          (Kelvin)            232.05   257.60   344.70   391.56   413.20
                              474.83   486.18   555.75   562.95   581.36
                              587.49   619.51   651.09   672.39   691.96
                              734.11   749.19   796.98   809.86   903.58
                              933.37   950.09   990.73  1006.86  1052.52
                             1065.99  1080.98  1144.67  1154.30  1167.21
                             1196.55  1207.37  1218.04  1260.91  1306.47
                             1314.95  1396.74  1430.17  1437.75  1444.35
                             1447.38  1469.58  1519.15  1547.85  1604.29
                             1679.83  1687.68  1696.66  1717.83  1720.58
                             1736.14  1780.51  1834.35  1847.34  1892.01
                             1895.53  1955.27  1967.31  2001.86  2026.26
                             2082.43  2128.85  2149.12  2169.80  2224.65
                             2294.63  2324.48  2329.68  2342.06  2370.79
                             2424.25  2432.80  4559.84  4569.51  4573.10
                             4586.53  4591.10  4609.96  4614.83  4618.13
                             4687.35  5469.06

 Zero-point correction=                           0.229681 (Hartree/Particle)
 Thermal correction to Energy=                    0.244889
 Thermal correction to Enthalpy=                  0.245833
 Thermal correction to Gibbs Free Energy=         0.186668
 Sum of electronic and zero-point Energies=           -917.657513
 Sum of electronic and thermal Energies=              -917.642305
 Sum of electronic and thermal Enthalpies=            -917.641360
 Sum of electronic and thermal Free Energies=         -917.700525

                     E (Thermal)             CV                S
                      KCal/Mol        Cal/Mol-Kelvin    Cal/Mol-Kelvin
 Total                  153.670             62.187            124.523
 Electronic               0.000              0.000              0.000
 Translational            0.889              2.981             42.723
 Rotational               0.889              2.981             33.897
 Vibrational            151.893             56.226             47.902
 Vibration     1          0.593              1.985              6.203
 Vibration     2          0.595              1.978              4.830
 Vibration     3          0.599              1.965              4.000
 Vibration     4          0.606              1.942              3.296
 Vibration     5          0.621              1.895              2.586
 Vibration     6          0.622              1.890              2.535
 Vibration     7          0.629              1.868              2.338
 Vibration     8          0.657              1.780              1.806
 Vibration     9          0.675              1.725              1.583
 Vibration    10          0.684              1.698              1.490
 Vibration    11          0.713              1.616              1.260
 Vibration    12          0.718              1.600              1.222
 Vibration    13          0.755              1.500              1.015
 Vibration    14          0.759              1.489              0.995
 Vibration    15          0.769              1.461              0.948
 Vibration    16          0.773              1.452              0.933
 Vibration    17          0.792              1.404              0.857
 Vibration    18          0.811              1.355              0.788
 Vibration    19          0.825              1.323              0.745
 Vibration    20          0.837              1.292              0.708
 Vibration    21          0.865              1.227              0.633
 Vibration    22          0.876              1.204              0.608
 Vibration    23          0.909              1.131              0.536
 Vibration    24          0.919              1.112              0.518

 Optimization completed.
    -- Stationary point found.
 Normal termination of Gaussian 16 at Sun Feb 11 19:20:31 2024.
