 Q-Chem 5.4, Q-Chem, Inc., Pleasanton, CA (2021)
 Q-Chem 5.4.0 for Intel X86 EM64T Linux

User input:
--------------------------------------------------------------
$molecule
-2 1
C                 -5.4413060000     -0.2435350000     -0.5722080000
C                 -5.5823800000     -0.6377690000     -1.8913890000
C                 -4.4803140000     -0.5359850000     -2.7726820000
C                 -4.2218360000      0.2625170000     -0.0709880000
C                 -3.1034460000      0.3657920000     -0.9652810000
C                 -3.2746690000     -0.0431370000     -2.3069190000
C                 -4.1528410000      0.6729370000      1.3402050000
C                 -2.8641310000      1.1615510000      1.7208290000
C                 -1.7594760000      1.2530260000      0.8383560000
C                 -1.8007240000      0.8815200000     -0.5278040000
S                 -2.6455390000      1.8692190000      3.3545360000
C                 -2.6659760000      0.5312280000      4.5307890000
C                 -3.0868970000     -0.7702590000      4.2163300000
C                 -2.2616840000      0.8110340000      5.8458940000
C                 -2.2572250000     -0.1695050000      6.8421530000
C                 -3.0742410000     -1.7508640000      5.2025600000
C                 -2.6644830000     -1.4658690000      6.5083620000
C                 -1.8028610000      0.1658990000      8.2472280000
O                 -5.1589790000      0.5721900000      2.1181770000
O                 -0.8019710000      0.9713720000     -1.3315980000
H                 -6.2657410000     -0.3078840000      0.1309270000
H                 -6.5344630000     -1.0253450000     -2.2488720000
H                 -4.5823820000     -0.8442190000     -3.8117150000
H                 -2.4078520000      0.0492250000     -2.9540620000
H                 -0.8156420000      1.6329380000      1.2179890000
H                 -3.4407290000     -0.9830350000      3.2171220000
H                 -1.9342230000      1.8187750000      6.0903570000
H                 -3.4046000000     -2.7551290000      4.9514720000
H                 -2.6664040000     -2.2432770000      7.2671750000
H                 -0.7708490000      0.5384360000      8.2613680000
H                 -1.8404960000     -0.7088410000      8.9042630000
H                 -2.4288410000      0.9428040000      8.7003360000
$end

$rem
BASIS  =  6-311++G(d,p)
GUI  =  2
JOB_TYPE  =  SP
METHOD  =  B3LYP
SCF_CONVERGENCE  = 8
SOLVENT_METHOD = sm12
$end

$smx
solvent dimethylformamide
charges CM5
$end

--------------------------------------------------------------

             Standard Nuclear Orientation (Angstroms)
    I     Atom           X                Y                Z
 ----------------------------------------------------------------
    1      C      -5.4413060000    -0.2435350000    -0.5722080000
    2      C      -5.5823800000    -0.6377690000    -1.8913890000
    3      C      -4.4803140000    -0.5359850000    -2.7726820000
    4      C      -4.2218360000     0.2625170000    -0.0709880000
    5      C      -3.1034460000     0.3657920000    -0.9652810000
    6      C      -3.2746690000    -0.0431370000    -2.3069190000
    7      C      -4.1528410000     0.6729370000     1.3402050000
    8      C      -2.8641310000     1.1615510000     1.7208290000
    9      C      -1.7594760000     1.2530260000     0.8383560000
   10      C      -1.8007240000     0.8815200000    -0.5278040000
   11      S      -2.6455390000     1.8692190000     3.3545360000
   12      C      -2.6659760000     0.5312280000     4.5307890000
   13      C      -3.0868970000    -0.7702590000     4.2163300000
   14      C      -2.2616840000     0.8110340000     5.8458940000
   15      C      -2.2572250000    -0.1695050000     6.8421530000
   16      C      -3.0742410000    -1.7508640000     5.2025600000
   17      C      -2.6644830000    -1.4658690000     6.5083620000
   18      C      -1.8028610000     0.1658990000     8.2472280000
   19      O      -5.1589790000     0.5721900000     2.1181770000
   20      O      -0.8019710000     0.9713720000    -1.3315980000
   21      H      -6.2657410000    -0.3078840000     0.1309270000
   22      H      -6.5344630000    -1.0253450000    -2.2488720000
   23      H      -4.5823820000    -0.8442190000    -3.8117150000
   24      H      -2.4078520000     0.0492250000    -2.9540620000
   25      H      -0.8156420000     1.6329380000     1.2179890000
   26      H      -3.4407290000    -0.9830350000     3.2171220000
   27      H      -1.9342230000     1.8187750000     6.0903570000
   28      H      -3.4046000000    -2.7551290000     4.9514720000
   29      H      -2.6664040000    -2.2432770000     7.2671750000
   30      H      -0.7708490000     0.5384360000     8.2613680000
   31      H      -1.8404960000    -0.7088410000     8.9042630000
   32      H      -2.4288410000     0.9428040000     8.7003360000
 ----------------------------------------------------------------

   18   -1203.8892397134      6.15e-09  Convergence criterion met
 Total energy in the final basis set =    -1204.1727629194

                    Orbital Energies (a.u.)
 --------------------------------------------------------------

 Alpha MOs
 -- Occupied --
-88.8419 -19.0264 -19.0220 -10.2073 -10.1908 -10.1904 -10.1842 -10.1821
-10.1783 -10.1774 -10.1773 -10.1757 -10.1727 -10.1727 -10.1720 -10.1716
-10.1645 -10.1608 -10.1598 -10.1381  -7.9267  -5.8905  -5.8865  -5.8813
 -0.9496  -0.9391  -0.8678  -0.8493  -0.8046  -0.7793  -0.7669  -0.7462
 -0.7364  -0.6940  -0.6867  -0.6509  -0.6101  -0.6043  -0.5998  -0.5699
 -0.5443  -0.5126  -0.4949  -0.4852  -0.4716  -0.4529  -0.4476  -0.4334
 -0.4255  -0.4235  -0.4175  -0.4149  -0.3981  -0.3911  -0.3886  -0.3758
 -0.3691  -0.3645  -0.3574  -0.3497  -0.3445  -0.3339  -0.3283  -0.3241
 -0.3120  -0.2866  -0.2549  -0.2512  -0.2411  -0.2320  -0.2081  -0.2042
 -0.1968  -0.1240

          Ground-State Mulliken Net Atomic Charges

     Atom                 Charge (a.u.)
  ----------------------------------------
      1 C                     0.214460
      2 C                     1.671531
      3 C                     1.616512
      4 C                    -1.238334
      5 C                    -2.585869
      6 C                    -0.322434
      7 C                    -2.360601
      8 C                     1.846719
      9 C                    -1.298628
     10 C                    -2.355553
     11 S                     0.974880
     12 C                    -2.463225
     13 C                    -4.281392
     14 C                     0.993711
     15 C                     2.924910
     16 C                     1.080773
     17 C                    -0.099891
     18 C                     1.978766
     19 O                    -0.233454
     20 O                    -0.424568
     21 H                     0.107158
     22 H                     0.418065
     23 H                     0.419078
     24 H                     0.100509
     25 H                    -0.030559
     26 H                    -0.405212
     27 H                     0.304417
     28 H                     0.371065
     29 H                     0.276045
     30 H                     0.238454
     31 H                     0.329956
     32 H                     0.232711
  ----------------------------------------
  Sum of atomic charges =    -2.000000

                    Cartesian Multipole Moments
 -----------------------------------------------------------------
    Charge (ESU x 10^10)
                -9.6064
    Dipole Moment (Debye)
         X      28.8119      Y      -6.9813      Z      -4.8854
       Tot      30.0455
    Quadrupole Moments (Debye-Ang)
        XX    -260.8639     XY      16.8131     YY    -145.6689
        XZ      32.8394     YZ      -4.9846     ZZ    -178.1240

 Total job time:  985.32s(wall), 7715.68s(cpu)
        *  Thank you very much for using Q-Chem.  Have a nice day.  *
