 Q-Chem 5.4, Q-Chem, Inc., Pleasanton, CA (2021)
 Q-Chem 5.4.0 for Intel X86 EM64T Linux

User input:
--------------------------------------------------------------
$molecule
0 1
C                 -4.8495050000     -0.3363170000     -3.9313510000
C                 -4.2356070000     -1.3701810000     -4.6370780000
C                 -3.0913440000     -1.9897820000     -4.1205850000
C                 -4.3139600000      0.0724450000     -2.7103720000
C                 -3.1684220000     -0.5408290000     -2.1832940000
C                 -2.5665920000     -1.5747720000     -2.9049810000
C                 -4.9585990000      1.1659850000     -1.9563230000
C                 -4.3610040000      1.5688340000     -0.6536650000
C                 -3.2489980000      0.9967030000     -0.1314630000
C                 -2.5915420000     -0.1040030000     -0.8751720000
O                 -5.9590570000      1.7619910000     -2.3405370000
O                 -1.5894730000     -0.6464960000     -0.4284450000
O                 -5.0196890000      2.5641840000     -0.0338570000
O                 -4.7015070000     -1.8221520000     -5.8337340000
C                 -2.6725900000      1.4140880000      1.1915470000
C                 -3.2077090000      0.5707920000      2.3692260000
C                 -2.6113250000      0.9966750000      3.7146690000
C                 -3.1305930000      0.1711360000      4.8972220000
C                 -2.5394130000      0.5948190000      6.2466660000
C                 -3.0542930000     -0.2330130000      7.4295850000
C                 -2.4635150000      0.1897850000      8.7794070000
C                 -2.9765590000     -0.6395210000      9.9621590000
C                 -2.3863870000     -0.2169540000     11.3121050000
C                 -2.8981090000     -1.0462920000     12.4954450000
C                 -2.3033270000     -0.6162400000     13.8396330000
H                 -5.7368350000      0.1600890000     -4.3102330000
H                 -2.6316720000     -2.7908960000     -4.6865530000
H                 -1.6818910000     -2.0455490000     -2.4945250000
H                 -5.7623010000      2.8039970000     -0.6190540000
H                 -5.4867460000     -1.3280210000     -6.0938990000
H                 -2.9048660000      2.4675510000      1.3673740000
H                 -1.5861140000      1.3064860000      1.1452100000
H                 -2.9793920000     -0.4841180000      2.1842440000
H                 -4.2994250000      0.6588050000      2.4070870000
H                 -2.8311740000      2.0578850000      3.8890250000
H                 -1.5181040000      0.9142150000      3.6670310000
H                 -2.9088840000     -0.8894390000      4.7221330000
H                 -4.2246020000      0.2499420000      4.9409930000
H                 -2.7629440000      1.6551020000      6.4225560000
H                 -1.4452660000      0.5190150000      6.2014790000
H                 -2.8303930000     -1.2931230000      7.2532070000
H                 -4.1486100000     -0.1579030000      7.4744590000
H                 -2.6884200000      1.2496140000      8.9564500000
H                 -1.3691810000      0.1159360000      8.7339570000
H                 -2.7511960000     -1.6992780000      9.7851560000
H                 -4.0709980000     -0.5661290000     10.0074210000
H                 -2.6120410000      0.8426590000     11.4905130000
H                 -1.2917490000     -0.2898160000     11.2677960000
H                 -2.6717680000     -2.1048510000     12.3182210000
H                 -3.9916810000     -0.9735820000     12.5403370000
H                 -1.2127590000     -0.7111660000     13.8381210000
H                 -2.6881310000     -1.2266660000     14.6614500000
H                 -2.5426970000      0.4285770000     14.0619490000
$end
$rem
MAX_SCF_CYCLES=200
BASIS  =  6-311++G(d,p)
GUI  =  2
JOB_TYPE  =  SP
THRESH = 14
scf_guess = GWH
SCF_CONVERGENCE = 8
SCF_ALGORITHM = RCA_DIIS
METHOD  =  B3LYP
SOLVENT_METHOD = PCM
$end
$pcm
theory = CPCM
$end
$solvent
dielectric 37.219
opticaldielectric 1.43
$end

--------------------------------------------------------------

             Standard Nuclear Orientation (Angstroms)
    I     Atom           X                Y                Z
 ----------------------------------------------------------------
    1      C      -4.8495050000    -0.3363170000    -3.9313510000
    2      C      -4.2356070000    -1.3701810000    -4.6370780000
    3      C      -3.0913440000    -1.9897820000    -4.1205850000
    4      C      -4.3139600000     0.0724450000    -2.7103720000
    5      C      -3.1684220000    -0.5408290000    -2.1832940000
    6      C      -2.5665920000    -1.5747720000    -2.9049810000
    7      C      -4.9585990000     1.1659850000    -1.9563230000
    8      C      -4.3610040000     1.5688340000    -0.6536650000
    9      C      -3.2489980000     0.9967030000    -0.1314630000
   10      C      -2.5915420000    -0.1040030000    -0.8751720000
   11      O      -5.9590570000     1.7619910000    -2.3405370000
   12      O      -1.5894730000    -0.6464960000    -0.4284450000
   13      O      -5.0196890000     2.5641840000    -0.0338570000
   14      O      -4.7015070000    -1.8221520000    -5.8337340000
   15      C      -2.6725900000     1.4140880000     1.1915470000
   16      C      -3.2077090000     0.5707920000     2.3692260000
   17      C      -2.6113250000     0.9966750000     3.7146690000
   18      C      -3.1305930000     0.1711360000     4.8972220000
   19      C      -2.5394130000     0.5948190000     6.2466660000
   20      C      -3.0542930000    -0.2330130000     7.4295850000
   21      C      -2.4635150000     0.1897850000     8.7794070000
   22      C      -2.9765590000    -0.6395210000     9.9621590000
   23      C      -2.3863870000    -0.2169540000    11.3121050000
   24      C      -2.8981090000    -1.0462920000    12.4954450000
   25      C      -2.3033270000    -0.6162400000    13.8396330000
   26      H      -5.7368350000     0.1600890000    -4.3102330000
   27      H      -2.6316720000    -2.7908960000    -4.6865530000
   28      H      -1.6818910000    -2.0455490000    -2.4945250000
   29      H      -5.7623010000     2.8039970000    -0.6190540000
   30      H      -5.4867460000    -1.3280210000    -6.0938990000
   31      H      -2.9048660000     2.4675510000     1.3673740000
   32      H      -1.5861140000     1.3064860000     1.1452100000
   33      H      -2.9793920000    -0.4841180000     2.1842440000
   34      H      -4.2994250000     0.6588050000     2.4070870000
   35      H      -2.8311740000     2.0578850000     3.8890250000
   36      H      -1.5181040000     0.9142150000     3.6670310000
   37      H      -2.9088840000    -0.8894390000     4.7221330000
   38      H      -4.2246020000     0.2499420000     4.9409930000
   39      H      -2.7629440000     1.6551020000     6.4225560000
   40      H      -1.4452660000     0.5190150000     6.2014790000
   41      H      -2.8303930000    -1.2931230000     7.2532070000
   42      H      -4.1486100000    -0.1579030000     7.4744590000
   43      H      -2.6884200000     1.2496140000     8.9564500000
   44      H      -1.3691810000     0.1159360000     8.7339570000
   45      H      -2.7511960000    -1.6992780000     9.7851560000
   46      H      -4.0709980000    -0.5661290000    10.0074210000
   47      H      -2.6120410000     0.8426590000    11.4905130000
   48      H      -1.2917490000    -0.2898160000    11.2677960000
   49      H      -2.6717680000    -2.1048510000    12.3182210000
   50      H      -3.9916810000    -0.9735820000    12.5403370000
   51      H      -1.2127590000    -0.7111660000    13.8381210000
   52      H      -2.6881310000    -1.2266660000    14.6614500000
   53      H      -2.5426970000     0.4285770000    14.0619490000
 ----------------------------------------------------------------

   97   -1118.3610214530      3.05E-09 Convergence criterion met
 Total energy in the final basis set = -1118.36102145

                    Orbital Energies (a.u.)
 --------------------------------------------------------------

 Alpha MOs
 -- Occupied --
-19.1767 -19.1723 -19.1500 -19.1273 -10.2940 -10.2791 -10.2653 -10.2634
-10.2137 -10.2029 -10.2029 -10.2004 -10.1995 -10.1956 -10.1744 -10.1653
-10.1589 -10.1582 -10.1570 -10.1561 -10.1558 -10.1557 -10.1556 -10.1555
-10.1519  -1.1069  -1.0847  -1.0669  -1.0611  -0.8916  -0.8425  -0.8106
 -0.8007  -0.7880  -0.7794  -0.7682  -0.7452  -0.7180  -0.6946  -0.6739
 -0.6636  -0.6398  -0.6209  -0.6105  -0.5897  -0.5828  -0.5761  -0.5703
 -0.5685  -0.5547  -0.5288  -0.5158  -0.5053  -0.4831  -0.4729  -0.4719
 -0.4690  -0.4586  -0.4548  -0.4475  -0.4454  -0.4354  -0.4292  -0.4282
 -0.4251  -0.4182  -0.4179  -0.4120  -0.4058  -0.3989  -0.3968  -0.3916
 -0.3796  -0.3760  -0.3739  -0.3689  -0.3557  -0.3531  -0.3468  -0.3384
 -0.3341  -0.3306  -0.3247  -0.3211  -0.3194  -0.3167  -0.3160  -0.3042
 -0.2965  -0.2869  -0.2782  -0.2666  -0.2472

          Ground-State Mulliken Net Atomic Charges

     Atom                 Charge (a.u.)
  ----------------------------------------
      1 C                     0.369769
      2 C                    -0.733574
      3 C                    -0.104005
      4 C                     0.844603
      5 C                    -0.479247
      6 C                     0.072134
      7 C                    -0.810202
      8 C                    -0.612843
      9 C                     1.936086
     10 C                    -0.670313
     11 O                    -0.318065
     12 O                    -0.302866
     13 O                    -0.239012
     14 O                    -0.266568
     15 C                    -0.313696
     16 C                    -0.906337
     17 C                    -0.349852
     18 C                    -0.017330
     19 C                     0.030664
     20 C                     0.053950
     21 C                    -0.048491
     22 C                    -0.313779
     23 C                    -0.508285
     24 C                    -0.302020
     25 C                    -0.710697
     26 H                     0.200468
     27 H                     0.246450
     28 H                     0.206970
     29 H                     0.321189
     30 H                     0.328361
     31 H                     0.239773
     32 H                     0.225809
     33 H                     0.184326
     34 H                     0.184297
     35 H                     0.125545
     36 H                     0.127073
     37 H                     0.133014
     38 H                     0.132855
     39 H                     0.137834
     40 H                     0.138052
     41 H                     0.134119
     42 H                     0.134519
     43 H                     0.133386
     44 H                     0.133234
     45 H                     0.131727
     46 H                     0.131543
     47 H                     0.128734
     48 H                     0.128616
     49 H                     0.135271
     50 H                     0.135164
     51 H                     0.144648
     52 H                     0.152361
     53 H                     0.144639
  ----------------------------------------
  Sum of atomic charges =     0.000000

                    Cartesian Multipole Moments
 -----------------------------------------------------------------
    Charge (ESU x 10^10)
                -0.0000
    Dipole Moment (Debye)
         X      -2.7020      Y       0.0114      Z      -2.7682
       Tot       3.8683
    Quadrupole Moments (Debye-Ang)
        XX    -136.9045     XY       1.4846     YY    -155.7149
        XZ      16.5832     YZ       2.2887     ZZ    -138.5169

 Total job time:  3258.25s(wall), 18828.83s(cpu)
        *  Thank you very much for using Q-Chem.  Have a nice day.  *
