 Gaussian 16, Revision A.03,
 Gaussian 16:  ES64L-G16RevA.03 25-Dec-2016

 --------------------------------------
 #P UB3LYP/6-311++G(d,p) nosym opt freq
 --------------------------------------

 -------
 Reduced
 -------
 Symbolic Z-matrix:
 Charge = -2 Multiplicity = 1

 SCF Done:  E(UB3LYP) =  -1012.10853654     A.U. after   27 cycles
 SCF Done:  E(UB3LYP) =  -1012.10853650     A.U. after   17 cycles
 SCF Done:  E(UB3LYP) =  -1012.10853653     A.U. after   17 cycles
 Optimization completed.
    -- Stationary point found.
 Normal termination of Gaussian 16 at Mon Jan  8 01:39:50 2024.

 ----------------------------------------------------------------------
 #P Geom=AllCheck Guess=TCheck SCRF=Check GenChk UB3LYP/6-311++G(d,p) F
 req
 ----------------------------------------------------------------------

 Structure from the checkpoint file:  "277-an.chk"
 -------
 Reduced
 -------
 Charge = -2 Multiplicity = 1

                          Input orientation:
 ---------------------------------------------------------------------
 Center     Atomic      Atomic             Coordinates (Angstroms)
 Number     Number       Type             X           Y           Z
 ---------------------------------------------------------------------
      1          6           0       -0.230008    3.932058    0.225823
      2          6           0       -1.439228    3.456065    0.703124
      3          6           0       -1.659873    2.057020    0.769570
      4          6           0        0.802033    3.066497   -0.202231
      5          6           0        0.576983    1.646354   -0.141440
      6          6           0       -0.667687    1.187688    0.352701
      7          6           0        2.050333    3.637375   -0.704904
      8          6           0        3.011435    2.657253   -1.104404
      9          6           0        2.801821    1.242416   -1.034429
     10          6           0        1.580655    0.678631   -0.567216
     11          8           0        2.232017    4.910471   -0.756435
     12          8           0        1.350122   -0.596892   -0.502767
     13          1           0       -0.024557    4.996384    0.160768
     14          1           0       -2.214445    4.149540    1.026556
     15          1           0       -2.606985    1.670221    1.144258
     16          1           0       -0.802142    0.110706    0.386632
     17         16           0        4.556664    3.272367   -1.795609
     18          6           0        5.199302    4.337294   -0.441987
     19          6           0        3.870470    0.265695   -1.459532
     20          1           0        6.098286    4.838747   -0.819536
     21          1           0        5.459731    3.734342    0.433686
     22          1           0        4.419910    5.060458   -0.196730
     23          1           0        4.065296    0.294013   -2.543642
     24          1           0        3.525427   -0.738326   -1.200267
     25          1           0        4.834599    0.470824   -0.974761
 ---------------------------------------------------------------------

 SCF Done:  E(UB3LYP) =  -1012.10853653     A.U. after    2 cycles

 Alpha  occ. eigenvalues --  -88.58338 -18.77074 -18.76116  -9.94622  -9.93329
 Alpha  occ. eigenvalues --   -9.92526  -9.92438  -9.92233  -9.91469  -9.91295
 Alpha  occ. eigenvalues --   -9.90967  -9.90142  -9.89996  -9.89865  -9.88906
 Alpha  occ. eigenvalues --   -7.66876  -5.63286  -5.62901  -5.62272  -0.68892
 Alpha  occ. eigenvalues --   -0.67490  -0.59112  -0.54876  -0.51285  -0.48835
 Alpha  occ. eigenvalues --   -0.48534  -0.43745  -0.39620  -0.38071  -0.33366
 Alpha  occ. eigenvalues --   -0.32056  -0.28293  -0.24122  -0.22825  -0.19671
 Alpha  occ. eigenvalues --   -0.19349  -0.18403  -0.17254  -0.16497  -0.15809
 Alpha  occ. eigenvalues --   -0.13985  -0.13548  -0.12536  -0.12171  -0.10493
 Alpha  occ. eigenvalues --   -0.09944  -0.09070  -0.07573  -0.06385  -0.06256
 Alpha  occ. eigenvalues --   -0.05186   0.00627   0.01450   0.02324   0.04540
 Alpha  occ. eigenvalues --    0.05091   0.06096   0.13546
 Alpha virt. eigenvalues --    0.16311   0.16376   0.18113   0.18771   0.19877
 Alpha virt. eigenvalues --    0.20781   0.21657   0.22015   0.22349   0.22687
 Alpha virt. eigenvalues --    0.23838   0.24360   0.24548   0.25723   0.26112

  Beta  occ. eigenvalues --  -88.58338 -18.77074 -18.76116  -9.94622  -9.93329
  Beta  occ. eigenvalues --   -9.92526  -9.92438  -9.92233  -9.91469  -9.91295
  Beta  occ. eigenvalues --   -9.90967  -9.90142  -9.89996  -9.89865  -9.88906
  Beta  occ. eigenvalues --   -7.66876  -5.63286  -5.62901  -5.62272  -0.68892
  Beta  occ. eigenvalues --   -0.67490  -0.59112  -0.54876  -0.51285  -0.48835
  Beta  occ. eigenvalues --   -0.48534  -0.43745  -0.39620  -0.38071  -0.33366
  Beta  occ. eigenvalues --   -0.32056  -0.28293  -0.24122  -0.22825  -0.19671
  Beta  occ. eigenvalues --   -0.19349  -0.18403  -0.17254  -0.16497  -0.15809
  Beta  occ. eigenvalues --   -0.13985  -0.13548  -0.12536  -0.12171  -0.10493
  Beta  occ. eigenvalues --   -0.09944  -0.09070  -0.07573  -0.06385  -0.06256
  Beta  occ. eigenvalues --   -0.05186   0.00627   0.01450   0.02324   0.04540
  Beta  occ. eigenvalues --    0.05091   0.06096   0.13546
  Beta virt. eigenvalues --    0.16311   0.16376   0.18113   0.18771   0.19877
  Beta virt. eigenvalues --    0.20781   0.21657   0.22015   0.22349   0.22687
  Beta virt. eigenvalues --    0.23838   0.24360   0.24548   0.25723   0.26112

 Mulliken charges and spin densities:
               1          2
     1  C    0.004535   0.000000
     2  C   -0.307491   0.000000
     3  C   -0.360975   0.000000
     4  C    0.441627   0.000000
     5  C    0.751309   0.000000
     6  C    0.085597  -0.000000
     7  C   -1.208447   0.000000
     8  C    0.613216  -0.000000
     9  C    0.658044  -0.000000
    10  C   -1.225196  -0.000000
    11  O   -0.508722   0.000000
    12  O   -0.530113   0.000000
    13  H    0.134195   0.000000
    14  H    0.068242   0.000000
    15  H    0.067107  -0.000000
    16  H    0.128357   0.000000
    17  S   -0.736464  -0.000000
    18  C   -0.282911  -0.000000
    19  C   -0.235071   0.000000
    20  H   -0.187734  -0.000000
    21  H    0.054144  -0.000000
    22  H    0.232230   0.000000
    23  H    0.083286  -0.000000
    24  H    0.181566   0.000000
    25  H    0.079668  -0.000000
 Sum of Mulliken charges =  -2.00000   0.00000

 Dipole moment (field-independent basis, Debye):
    X=            -18.9447    Y=            -22.3563    Z=              6.5249  Tot=             30.0213
 Quadrupole moment (field-independent basis, Debye-Ang):
   XX=           -188.8059   YY=           -214.0958   ZZ=           -120.6293
   XY=            -55.8869   XZ=             26.8259   YZ=             18.4960

  Exact polarizability:1041.809 390.276 470.432 -79.859 -16.712 200.666
 Approx polarizability:1107.242 319.169 587.801-121.205  -5.619 277.913

                      1                      2                      3
                      A                      A                      A
 Frequencies --     58.9669                71.6440                87.3099
 Red. masses --      5.7524                 3.3842                 2.0927
 Frc consts  --      0.0118                 0.0102                 0.0094
 IR Inten    --      6.7672                11.2579                 5.6629

                      4                      5                      6
                      A                      A                      A
 Frequencies --    110.9248               137.8396               170.5296
 Red. masses --      1.3854                 3.9593                 1.6699
 Frc consts  --      0.0100                 0.0443                 0.0286
 IR Inten    --      9.1077                 3.4817                48.3833

                      7                      8                      9
                      A                      A                      A
 Frequencies --    184.6817               194.5047               232.7919
 Red. masses --      1.8989                 4.5351                 5.5232
 Frc consts  --      0.0382                 0.1011                 0.1764
 IR Inten    --      3.4238                 1.4158                27.4232

                     10                     11                     12
                      A                      A                      A
 Frequencies --    271.5276               299.0094               327.2760
 Red. masses --      4.5277                 5.8290                 5.0291
 Frc consts  --      0.1967                 0.3071                 0.3174
 IR Inten    --      1.3807                 3.6537                 3.1028

                     13                     14                     15
                      A                      A                      A
 Frequencies --    357.4017               372.4825               386.1645
 Red. masses --      5.2253                 9.6107                 8.0133
 Frc consts  --      0.3933                 0.7856                 0.7041
 IR Inten    --      2.6707                 0.7566                 4.7849

                     16                     17                     18
                      A                      A                      A
 Frequencies --    423.7847               457.4553               490.4278
 Red. masses --      6.5783                 3.3097                10.2638
 Frc consts  --      0.6961                 0.4081                 1.4545
 IR Inten    --    156.5896                 2.0462               305.8234

                     19                     20                     21
                      A                      A                      A
 Frequencies --    517.1848               567.3631               653.8463
 Red. masses --      4.9064                 6.4391                 6.2368
 Frc consts  --      0.7732                 1.2212                 1.5710
 IR Inten    --      4.6267                 6.7589                 9.0083

                     22                     23                     24
                      A                      A                      A
 Frequencies --    662.4237               672.0682               684.8552
 Red. masses --      6.1521                 5.6312                 1.9304
 Frc consts  --      1.5905                 1.4986                 0.5335
 IR Inten    --     18.0092                25.8853                58.2776

                     25                     26                     27
                      A                      A                      A
 Frequencies --    688.5202               751.8121               771.4484
 Red. masses --      5.1296                 2.5038                 1.8871
 Frc consts  --      1.4327                 0.8338                 0.6617
 IR Inten    --      6.0757                17.8134                 1.6875

                     28                     29                     30
                      A                      A                      A
 Frequencies --    798.2993               818.8342               849.0089
 Red. masses --      6.8363                 2.6381                 4.3387
 Frc consts  --      2.5669                 1.0421                 1.8426
 IR Inten    --     56.4398                 2.5823                28.6380

                     31                     32                     33
                      A                      A                      A
 Frequencies --    953.4751               955.7716               958.8045
 Red. masses --      1.2348                 1.1844                 1.3654
 Frc consts  --      0.6614                 0.6374                 0.7396
 IR Inten    --      0.8565                33.1358                 4.5815

                     34                     35                     36
                      A                      A                      A
 Frequencies --    965.4697               975.9816              1016.1451
 Red. masses --      4.2111                 1.4760                 2.1454
 Frc consts  --      2.3127                 0.8283                 1.3052
 IR Inten    --     32.9560                 9.8245               305.1423

                     37                     38                     39
                      A                      A                      A
 Frequencies --   1020.3009              1041.5027              1091.5847
 Red. masses --      1.8919                 1.4402                 2.0044
 Frc consts  --      1.1604                 0.9204                 1.4072
 IR Inten    --      8.7444                 1.2086                26.7100

                     40                     41                     42
                      A                      A                      A
 Frequencies --   1116.1924              1139.5244              1191.8417
 Red. masses --      1.6742                 2.7986                 2.1156
 Frc consts  --      1.2289                 2.1411                 1.7706
 IR Inten    --    222.3572               113.1611                37.6599

                     43                     44                     45
                      A                      A                      A
 Frequencies --   1209.0022              1250.9531              1288.6207
 Red. masses --      2.8503                 2.2939                 1.2251
 Frc consts  --      2.4547                 2.1150                 1.1986
 IR Inten    --    147.5614                61.4443               198.0258

                     46                     47                     48
                      A                      A                      A
 Frequencies --   1321.2549              1348.5250              1363.8771
 Red. masses --      5.2517                 3.2760                 1.9241
 Frc consts  --      5.4016                 3.5100                 2.1088
 IR Inten    --    550.0877                20.7695               101.6795

                     49                     50                     51
                      A                      A                      A
 Frequencies --   1402.5004              1414.0208              1433.4827
 Red. masses --      2.8117                 3.4476                 2.7466
 Frc consts  --      3.2585                 4.0614                 3.3253
 IR Inten    --     44.5834               328.3895               661.5039

                     52                     53                     54
                      A                      A                      A
 Frequencies --   1439.8846              1464.1696              1476.7188
 Red. masses --      1.4498                 1.2245                 2.4996
 Frc consts  --      1.7710                 1.5466                 3.2115
 IR Inten    --    433.8978                25.2928               914.5272

                     55                     56                     57
                      A                      A                      A
 Frequencies --   1488.6327              1497.4455              1498.3623
 Red. masses --      1.7092                 1.5699                 1.1207
 Frc consts  --      2.2316                 2.0741                 1.4824
 IR Inten    --    128.8374               117.3108                26.7315

                     58                     59                     60
                      A                      A                      A
 Frequencies --   1563.4719              1585.6525              2936.0024
 Red. masses --      6.8595                 5.4171                 1.0603
 Frc consts  --      9.8792                 8.0247                 5.3849
 IR Inten    --   1532.1430                55.8362               275.8247

                     61                     62                     63
                      A                      A                      A
 Frequencies --   2979.8689              2979.9547              3052.4590
 Red. masses --      1.0733                 1.0319                 1.1035
 Frc consts  --      5.6151                 5.3989                 6.0581
 IR Inten    --    120.3113                79.2975                49.3135

                     64                     65                     66
                      A                      A                      A
 Frequencies --   3073.7651              3083.2646              3097.9864
 Red. masses --      1.0939                 1.0824                 1.1054
 Frc consts  --      6.0892                 6.0625                 6.2510
 IR Inten    --     16.6964                37.5301               197.6437

                     67                     68                     69
                      A                      A                      A
 Frequencies --   3108.1908              3154.6692              3157.1577
 Red. masses --      1.0908                 1.0900                 1.0910
 Frc consts  --      6.2091                 6.3911                 6.4069
 IR Inten    --    226.9299                23.8700               129.6754

 - Thermochemistry -
 -------------------
 Temperature   298.150 Kelvin.  Pressure   1.00000 Atm.
 Atom     1 has atomic number  6 and mass  12.00000

 Molecular mass:   218.04015 amu.
 Principal axes and moments of inertia in atomic units:
                           1         2         3
     Eigenvalues --  2032.867404106.727395944.79866
           X            0.93235  -0.15598   0.32617
           Y            0.19146   0.97828  -0.07944
           Z           -0.30669   0.13651   0.94197
 This molecule is an asymmetric top.
 Rotational symmetry number  1.
 Warning -- assumption of classical behavior for rotation
           may cause significant error
 Rotational temperatures (Kelvin)      0.04261     0.02109     0.01457
 Rotational constants (GHZ):           0.88778     0.43946     0.30358
 Zero-point vibrational energy     479504.4 (Joules/Mol)
                                  114.60430 (Kcal/Mol)
 Warning -- explicit consideration of  20 degrees of freedom as
           vibrations may cause significant error
 Vibrational temperatures:     84.84   103.08   125.62   159.60   198.32
          (Kelvin)            245.35   265.72   279.85   334.94   390.67
                              430.21   470.88   514.22   535.92   555.60
                              609.73   658.18   705.62   744.11   816.31
                              940.74   953.08   966.96   985.35   990.63
                             1081.69  1109.94  1148.57  1178.12  1221.53
                             1371.84  1375.14  1379.51  1389.10  1404.22
                             1462.01  1467.99  1498.49  1570.55  1605.95
                             1639.52  1714.79  1739.48  1799.84  1854.04
                             1900.99  1940.23  1962.31  2017.89  2034.46
                             2062.46  2071.67  2106.61  2124.67  2141.81
                             2154.49  2155.81  2249.49  2281.40  4224.25
                             4287.37  4287.49  4391.81  4422.46  4436.13
                             4457.31  4471.99  4538.87  4542.45

 Zero-point correction=                           0.182634 (Hartree/Particle)
 Thermal correction to Energy=                    0.196481
 Thermal correction to Enthalpy=                  0.197425
 Thermal correction to Gibbs Free Energy=         0.142060
 Sum of electronic and zero-point Energies=          -1011.925903
 Sum of electronic and thermal Energies=             -1011.912055
 Sum of electronic and thermal Enthalpies=           -1011.911111
 Sum of electronic and thermal Free Energies=        -1011.966476

                     E (Thermal)             CV                S
                      KCal/Mol        Cal/Mol-Kelvin    Cal/Mol-Kelvin
 Total                  123.294             52.730            116.525
 Electronic               0.000              0.000              0.000
 Translational            0.889              2.981             42.042
 Rotational               0.889              2.981             32.273
 Vibrational            121.516             46.768             42.210
 Vibration     1          0.596              1.974              4.491
 Vibration     2          0.598              1.968              4.108
 Vibration     3          0.601              1.958              3.719
 Vibration     4          0.607              1.940              3.253
 Vibration     5          0.614              1.916              2.834
 Vibration     6          0.626              1.879              2.430
 Vibration     7          0.631              1.861              2.281
 Vibration     8          0.635              1.848              2.184
 Vibration     9          0.654              1.791              1.857
 Vibration    10          0.675              1.726              1.586
 Vibration    11          0.692              1.676              1.422
 Vibration    12          0.711              1.621              1.273
 Vibration    13          0.733              1.560              1.133
 Vibration    14          0.744              1.529              1.070
 Vibration    15          0.755              1.500              1.015
 Vibration    16          0.786              1.419              0.879
 Vibration    17          0.816              1.344              0.774
 Vibration    18          0.846              1.271              0.682
 Vibration    19          0.872              1.212              0.617
 Vibration    20          0.923              1.102              0.509

 Optimization completed.
    -- Stationary point found.
 Normal termination of Gaussian 16 at Mon Jan  8 02:30:26 2024.
