 Gaussian 16, Revision A.03,
 Gaussian 16:  ES64L-G16RevA.03 25-Dec-2016

 ----------------------------------------------------------------
 #P UB3LYP/6-311++G(d,p) SCRF=(PCM,Solvent=n,n-DiMethylFormamide)
 ----------------------------------------------------------------

 -------
 Reduced
 -------
 Symbolic Z-matrix:
 Charge = -2 Multiplicity = 1

                         Standard orientation:
 ---------------------------------------------------------------------
 Center     Atomic      Atomic             Coordinates (Angstroms)
 Number     Number       Type             X           Y           Z
 ---------------------------------------------------------------------
      1          6           0        1.996513   -1.852920   -0.084726
      2          6           0        3.357225   -1.621879    0.023345
      3          6           0        3.830575   -0.290569    0.141586
      4          6           0        1.053109   -0.800533   -0.082111
      5          6           0        1.532613    0.551638    0.031288
      6          6           0        2.928557    0.758389    0.142401
      7          6           0       -0.368571   -1.115574   -0.210210
      8          6           0       -1.216714    0.035213   -0.192942
      9          6           0       -0.749867    1.383044   -0.066437
     10          6           0        0.634495    1.699894    0.036205
     11          8           0       -0.778724   -2.330948   -0.315460
     12          8           0        1.094749    2.909026    0.138304
     13          1           0        1.596814   -2.858439   -0.176393
     14          1           0        4.058799   -2.455098    0.019279
     15          1           0        4.899060   -0.096022    0.228288
     16          1           0        3.254592    1.790580    0.228449
     17         16           0       -2.981096   -0.255333   -0.408355
     18          6           0       -3.365677   -1.399773    0.977899
     19          6           0       -1.707121    2.549080   -0.039381
     20          1           0       -4.410099   -1.713013    0.862859
     21          1           0       -3.241186   -0.895438    1.941396
     22          1           0       -2.688848   -2.251697    0.896064
     23          1           0       -2.219664    2.700735   -1.002892
     24          1           0       -1.128965    3.448758    0.185668
     25          1           0       -2.501988    2.414272    0.706701
 ---------------------------------------------------------------------

 SCF Done:  E(UB3LYP) =  -1012.37395292     A.U. after   18 cycles

 The electronic state is 1-A.
 Alpha  occ. eigenvalues --  -88.81506 -19.01620 -19.01005 -10.17318 -10.16659
 Alpha  occ. eigenvalues --  -10.16444 -10.15008 -10.14930 -10.14698 -10.14522
 Alpha  occ. eigenvalues --  -10.14396 -10.13719 -10.13635 -10.13152 -10.12854
 Alpha  occ. eigenvalues --   -7.90080  -5.86470  -5.86101  -5.85491  -0.93517
 Alpha  occ. eigenvalues --   -0.92439  -0.82416  -0.78453  -0.74369  -0.72104
 Alpha  occ. eigenvalues --   -0.71778  -0.66915  -0.62956  -0.61257  -0.56518
 Alpha  occ. eigenvalues --   -0.55286  -0.51706  -0.47516  -0.45836  -0.42954
 Alpha  occ. eigenvalues --   -0.42177  -0.40659  -0.40085  -0.39522  -0.39119
 Alpha  occ. eigenvalues --   -0.37645  -0.36719  -0.36174  -0.35515  -0.34991
 Alpha  occ. eigenvalues --   -0.33424  -0.32325  -0.31485  -0.30756  -0.30164
 Alpha  occ. eigenvalues --   -0.28774  -0.22870  -0.22217  -0.22069  -0.19784
 Alpha  occ. eigenvalues --   -0.19307  -0.18655  -0.11066
 Alpha virt. eigenvalues --   -0.00749  -0.00015   0.00423   0.00926   0.01510
 Alpha virt. eigenvalues --    0.02283   0.02899   0.03093   0.04199   0.04836
 Alpha virt. eigenvalues --    0.05069   0.05584   0.05718   0.06652   0.06815

  Beta  occ. eigenvalues --  -88.81506 -19.01620 -19.01005 -10.17318 -10.16659
  Beta  occ. eigenvalues --  -10.16444 -10.15008 -10.14930 -10.14698 -10.14522
  Beta  occ. eigenvalues --  -10.14396 -10.13719 -10.13635 -10.13152 -10.12854
  Beta  occ. eigenvalues --   -7.90080  -5.86470  -5.86101  -5.85491  -0.93517
  Beta  occ. eigenvalues --   -0.92439  -0.82416  -0.78453  -0.74369  -0.72104
  Beta  occ. eigenvalues --   -0.71778  -0.66915  -0.62956  -0.61257  -0.56518
  Beta  occ. eigenvalues --   -0.55286  -0.51706  -0.47516  -0.45836  -0.42954
  Beta  occ. eigenvalues --   -0.42177  -0.40659  -0.40085  -0.39522  -0.39119
  Beta  occ. eigenvalues --   -0.37645  -0.36719  -0.36174  -0.35515  -0.34991
  Beta  occ. eigenvalues --   -0.33424  -0.32325  -0.31485  -0.30756  -0.30164
  Beta  occ. eigenvalues --   -0.28774  -0.22870  -0.22217  -0.22069  -0.19784
  Beta  occ. eigenvalues --   -0.19307  -0.18655  -0.11066
  Beta virt. eigenvalues --   -0.00749  -0.00015   0.00423   0.00926   0.01510
  Beta virt. eigenvalues --    0.02283   0.02899   0.03093   0.04199   0.04836
  Beta virt. eigenvalues --    0.05069   0.05584   0.05718   0.06652   0.06815

 Mulliken charges and spin densities:
               1          2
     1  C    0.062938   0.000000
     2  C   -0.396497  -0.000000
     3  C   -0.462444   0.000000
     4  C    0.329593  -0.000000
     5  C    0.449104  -0.000000
     6  C    0.097136  -0.000000
     7  C   -0.786064   0.000000
     8  C    0.489470  -0.000000
     9  C    0.335673   0.000000
    10  C   -0.847197   0.000000
    11  O   -0.641605  -0.000000
    12  O   -0.686008  -0.000000
    13  H    0.154232   0.000000
    14  H    0.154915  -0.000000
    15  H    0.154449   0.000000
    16  H    0.147222  -0.000000
    17  S   -0.664481   0.000000
    18  C   -0.602460  -0.000000
    19  C   -0.226883  -0.000000
    20  H    0.147932   0.000000
    21  H    0.154522  -0.000000
    22  H    0.201799   0.000000
    23  H    0.140032  -0.000000
    24  H    0.169047  -0.000000
    25  H    0.125574  -0.000000
 Sum of Mulliken charges =  -2.00000  -0.00000

 Dipole moment (field-independent basis, Debye):
    X=             -0.8803    Y=             -3.0805    Z=              2.2081  Tot=              3.8911
 Quadrupole moment (field-independent basis, Debye-Ang):
   XX=           -129.7937   YY=           -155.8850   ZZ=           -108.4954
   XY=            -13.3594   XZ=             -6.5572   YZ=             -5.6634

 Normal termination of Gaussian 16 at Sun Jan 21 09:03:28 2024.
