 Q-Chem 5.4, Q-Chem, Inc., Pleasanton, CA (2021)
 Q-Chem 5.4.0 for Intel X86 EM64T Linux

User input:
--------------------------------------------------------------
$molecule
0 1
C                 -4.8495050000     -0.3363170000     -3.9313510000
C                 -4.2356070000     -1.3701810000     -4.6370780000
C                 -3.0913440000     -1.9897820000     -4.1205850000
C                 -4.3139600000      0.0724450000     -2.7103720000
C                 -3.1684220000     -0.5408290000     -2.1832940000
C                 -2.5665920000     -1.5747720000     -2.9049810000
C                 -4.9585990000      1.1659850000     -1.9563230000
C                 -4.3610040000      1.5688340000     -0.6536650000
C                 -3.2489980000      0.9967030000     -0.1314630000
C                 -2.5915420000     -0.1040030000     -0.8751720000
O                 -5.9590570000      1.7619910000     -2.3405370000
O                 -1.5894730000     -0.6464960000     -0.4284450000
O                 -5.0196890000      2.5641840000     -0.0338570000
O                 -4.7015070000     -1.8221520000     -5.8337340000
C                 -2.6725900000      1.4140880000      1.1915470000
C                 -3.2077090000      0.5707920000      2.3692260000
C                 -2.6113250000      0.9966750000      3.7146690000
C                 -3.1305930000      0.1711360000      4.8972220000
C                 -2.5394130000      0.5948190000      6.2466660000
C                 -3.0542930000     -0.2330130000      7.4295850000
C                 -2.4635150000      0.1897850000      8.7794070000
C                 -2.9765590000     -0.6395210000      9.9621590000
C                 -2.3863870000     -0.2169540000     11.3121050000
C                 -2.8981090000     -1.0462920000     12.4954450000
C                 -2.3033270000     -0.6162400000     13.8396330000
H                 -5.7368350000      0.1600890000     -4.3102330000
H                 -2.6316720000     -2.7908960000     -4.6865530000
H                 -1.6818910000     -2.0455490000     -2.4945250000
H                 -5.7623010000      2.8039970000     -0.6190540000
H                 -5.4867460000     -1.3280210000     -6.0938990000
H                 -2.9048660000      2.4675510000      1.3673740000
H                 -1.5861140000      1.3064860000      1.1452100000
H                 -2.9793920000     -0.4841180000      2.1842440000
H                 -4.2994250000      0.6588050000      2.4070870000
H                 -2.8311740000      2.0578850000      3.8890250000
H                 -1.5181040000      0.9142150000      3.6670310000
H                 -2.9088840000     -0.8894390000      4.7221330000
H                 -4.2246020000      0.2499420000      4.9409930000
H                 -2.7629440000      1.6551020000      6.4225560000
H                 -1.4452660000      0.5190150000      6.2014790000
H                 -2.8303930000     -1.2931230000      7.2532070000
H                 -4.1486100000     -0.1579030000      7.4744590000
H                 -2.6884200000      1.2496140000      8.9564500000
H                 -1.3691810000      0.1159360000      8.7339570000
H                 -2.7511960000     -1.6992780000      9.7851560000
H                 -4.0709980000     -0.5661290000     10.0074210000
H                 -2.6120410000      0.8426590000     11.4905130000
H                 -1.2917490000     -0.2898160000     11.2677960000
H                 -2.6717680000     -2.1048510000     12.3182210000
H                 -3.9916810000     -0.9735820000     12.5403370000
H                 -1.2127590000     -0.7111660000     13.8381210000
H                 -2.6881310000     -1.2266660000     14.6614500000
H                 -2.5426970000      0.4285770000     14.0619490000
$end

$rem
BASIS  =  6-311++G(d,p)
GUI  =  2
JOB_TYPE  =  SP
METHOD  =  B3LYP
SCF_CONVERGENCE  = 8
SOLVENT_METHOD = sm12
$end

$smx
solvent dimethylformamide
charges CM5
$end

--------------------------------------------------------------

             Standard Nuclear Orientation (Angstroms)
    I     Atom           X                Y                Z
 ----------------------------------------------------------------
    1      C      -4.8495050000    -0.3363170000    -3.9313510000
    2      C      -4.2356070000    -1.3701810000    -4.6370780000
    3      C      -3.0913440000    -1.9897820000    -4.1205850000
    4      C      -4.3139600000     0.0724450000    -2.7103720000
    5      C      -3.1684220000    -0.5408290000    -2.1832940000
    6      C      -2.5665920000    -1.5747720000    -2.9049810000
    7      C      -4.9585990000     1.1659850000    -1.9563230000
    8      C      -4.3610040000     1.5688340000    -0.6536650000
    9      C      -3.2489980000     0.9967030000    -0.1314630000
   10      C      -2.5915420000    -0.1040030000    -0.8751720000
   11      O      -5.9590570000     1.7619910000    -2.3405370000
   12      O      -1.5894730000    -0.6464960000    -0.4284450000
   13      O      -5.0196890000     2.5641840000    -0.0338570000
   14      O      -4.7015070000    -1.8221520000    -5.8337340000
   15      C      -2.6725900000     1.4140880000     1.1915470000
   16      C      -3.2077090000     0.5707920000     2.3692260000
   17      C      -2.6113250000     0.9966750000     3.7146690000
   18      C      -3.1305930000     0.1711360000     4.8972220000
   19      C      -2.5394130000     0.5948190000     6.2466660000
   20      C      -3.0542930000    -0.2330130000     7.4295850000
   21      C      -2.4635150000     0.1897850000     8.7794070000
   22      C      -2.9765590000    -0.6395210000     9.9621590000
   23      C      -2.3863870000    -0.2169540000    11.3121050000
   24      C      -2.8981090000    -1.0462920000    12.4954450000
   25      C      -2.3033270000    -0.6162400000    13.8396330000
   26      H      -5.7368350000     0.1600890000    -4.3102330000
   27      H      -2.6316720000    -2.7908960000    -4.6865530000
   28      H      -1.6818910000    -2.0455490000    -2.4945250000
   29      H      -5.7623010000     2.8039970000    -0.6190540000
   30      H      -5.4867460000    -1.3280210000    -6.0938990000
   31      H      -2.9048660000     2.4675510000     1.3673740000
   32      H      -1.5861140000     1.3064860000     1.1452100000
   33      H      -2.9793920000    -0.4841180000     2.1842440000
   34      H      -4.2994250000     0.6588050000     2.4070870000
   35      H      -2.8311740000     2.0578850000     3.8890250000
   36      H      -1.5181040000     0.9142150000     3.6670310000
   37      H      -2.9088840000    -0.8894390000     4.7221330000
   38      H      -4.2246020000     0.2499420000     4.9409930000
   39      H      -2.7629440000     1.6551020000     6.4225560000
   40      H      -1.4452660000     0.5190150000     6.2014790000
   41      H      -2.8303930000    -1.2931230000     7.2532070000
   42      H      -4.1486100000    -0.1579030000     7.4744590000
   43      H      -2.6884200000     1.2496140000     8.9564500000
   44      H      -1.3691810000     0.1159360000     8.7339570000
   45      H      -2.7511960000    -1.6992780000     9.7851560000
   46      H      -4.0709980000    -0.5661290000    10.0074210000
   47      H      -2.6120410000     0.8426590000    11.4905130000
   48      H      -1.2917490000    -0.2898160000    11.2677960000
   49      H      -2.6717680000    -2.1048510000    12.3182210000
   50      H      -3.9916810000    -0.9735820000    12.5403370000
   51      H      -1.2127590000    -0.7111660000    13.8381210000
   52      H      -2.6881310000    -1.2266660000    14.6614500000
   53      H      -2.5426970000     0.4285770000    14.0619490000
 ----------------------------------------------------------------

   15   -1118.3411964918      7.66e-09  Convergence criterion met
 Total energy in the final basis set =    -1118.3709063196

                    Orbital Energies (a.u.)
 --------------------------------------------------------------

 Alpha MOs
 -- Occupied --
-19.1776 -19.1749 -19.1498 -19.1235 -10.2935 -10.2764 -10.2659 -10.2648
-10.2153 -10.2039 -10.2039 -10.2029 -10.2004 -10.1972 -10.1763 -10.1686
-10.1652 -10.1634 -10.1633 -10.1628 -10.1624 -10.1623 -10.1620 -10.1618
-10.1575  -1.1079  -1.0875  -1.0671  -1.0568  -0.8926  -0.8438  -0.8162
 -0.8054  -0.7916  -0.7817  -0.7720  -0.7495  -0.7219  -0.6974  -0.6768
 -0.6664  -0.6433  -0.6239  -0.6130  -0.5941  -0.5844  -0.5817  -0.5762
 -0.5748  -0.5560  -0.5291  -0.5164  -0.5059  -0.4890  -0.4778  -0.4732
 -0.4671  -0.4613  -0.4565  -0.4487  -0.4466  -0.4364  -0.4341  -0.4305
 -0.4291  -0.4201  -0.4191  -0.4129  -0.4081  -0.4018  -0.4003  -0.3935
 -0.3827  -0.3799  -0.3769  -0.3723  -0.3584  -0.3555  -0.3516  -0.3432
 -0.3389  -0.3360  -0.3305  -0.3271  -0.3255  -0.3236  -0.3231  -0.3051
 -0.3005  -0.2875  -0.2752  -0.2669  -0.2484

          Ground-State Mulliken Net Atomic Charges

     Atom                 Charge (a.u.)
  ----------------------------------------
      1 C                     0.937523
      2 C                    -0.090482
      3 C                     0.272618
      4 C                     1.144408
      5 C                    -1.177202
      6 C                     0.006654
      7 C                    -0.968180
      8 C                    -0.631774
      9 C                     1.431064
     10 C                    -1.449750
     11 O                    -0.278056
     12 O                    -0.300260
     13 O                    -0.200604
     14 O                    -0.214051
     15 C                    -0.138203
     16 C                    -0.901890
     17 C                    -0.141440
     18 C                     0.080804
     19 C                     0.155013
     20 C                     0.108552
     21 C                    -0.046642
     22 C                    -0.303725
     23 C                    -0.569298
     24 C                    -0.342648
     25 C                    -0.654223
     26 H                     0.249527
     27 H                     0.283885
     28 H                     0.203708
     29 H                     0.295475
     30 H                     0.321268
     31 H                     0.228342
     32 H                     0.178331
     33 H                     0.112010
     34 H                     0.142006
     35 H                     0.107769
     36 H                     0.104983
     37 H                     0.107135
     38 H                     0.110752
     39 H                     0.114396
     40 H                     0.112783
     41 H                     0.111575
     42 H                     0.113431
     43 H                     0.114949
     44 H                     0.113802
     45 H                     0.114129
     46 H                     0.114717
     47 H                     0.106841
     48 H                     0.106089
     49 H                     0.128637
     50 H                     0.128865
     51 H                     0.141339
     52 H                     0.163532
     53 H                     0.141516
  ----------------------------------------
  Sum of atomic charges =     0.000000

                    Cartesian Multipole Moments
 -----------------------------------------------------------------
    Charge (ESU x 10^10)
                -0.0000
    Dipole Moment (Debye)
         X      -2.0627      Y      -0.2903      Z      -2.5425
       Tot       3.2868
    Quadrupole Moments (Debye-Ang)
        XX    -141.1733     XY       2.1711     YY    -155.4396
        XZ      14.7745     YZ       2.7065     ZZ    -139.3215

 Total job time:  2404.40s(wall), 18051.98s(cpu)
        *  Thank you very much for using Q-Chem.  Have a nice day.  *
