 Q-Chem 5.4, Q-Chem, Inc., Pleasanton, CA (2021)
 Q-Chem 5.4.0 for Intel X86 EM64T Linux

User input:
--------------------------------------------------------------
$molecule
-1 2
C                 -4.3820420000     -0.4547770000     -0.1039920000
C                 -2.8955010000     -0.7008730000     -0.1126800000
C                 -2.3921110000     -1.9896050000     -0.3134980000
C                 -1.0375520000     -2.2544550000     -0.2921500000
Cl                -0.6283590000     -3.9616820000     -0.5698750000
C                 -0.0772720000     -1.2325960000     -0.0846940000
C                  1.3696830000     -1.5083400000     -0.0458870000
O                  1.8510710000     -2.6592930000     -0.1227990000
C                  2.2615360000     -0.3525940000      0.0918290000
C                  3.6573560000     -0.5655430000      0.0995200000
C                  4.5387850000      0.4899690000      0.2200020000
C                  4.0453590000      1.8077190000      0.3410210000
C                  2.6845420000      2.0360000000      0.3384050000
C                  1.7673030000      0.9671050000      0.2152100000
C                  0.3378960000      1.2462740000      0.2251930000
O                 -0.0542510000      2.4523830000      0.3383930000
C                 -0.5780550000      0.1159610000      0.0901250000
C                 -1.9970920000      0.3539200000      0.0975360000
N                 -2.4964250000      1.6178130000      0.3555690000
H                 -4.7127610000     -0.0069810000      0.8418560000
H                 -4.6976840000      0.2280180000     -0.9063160000
H                 -4.9300760000     -1.3894510000     -0.2429080000
H                 -3.0809960000     -2.8094930000     -0.4817600000
H                  4.0043570000     -1.5876590000      0.0054300000
H                  5.6095920000      0.3089030000      0.2220400000
H                  4.7371000000      2.6394870000      0.4372680000
H                  2.2771770000      3.0353330000      0.4321830000
H                 -1.7738520000      2.3439740000      0.3250670000
H                 -3.4077280000      1.8304850000     -0.0170230000
$end

$rem
BASIS  =  6-311++G(d,p)
GUI  =  2
JOB_TYPE  =  SP
METHOD  =  B3LYP
SCF_CONVERGENCE  = 8
SOLVENT_METHOD = sm12
$end

$smx
solvent dimethylformamide
charges CM5
$end

--------------------------------------------------------------

             Standard Nuclear Orientation (Angstroms)
    I     Atom           X                Y                Z
 ----------------------------------------------------------------
    1      C      -4.3820420000    -0.4547770000    -0.1039920000
    2      C      -2.8955010000    -0.7008730000    -0.1126800000
    3      C      -2.3921110000    -1.9896050000    -0.3134980000
    4      C      -1.0375520000    -2.2544550000    -0.2921500000
    5      Cl     -0.6283590000    -3.9616820000    -0.5698750000
    6      C      -0.0772720000    -1.2325960000    -0.0846940000
    7      C       1.3696830000    -1.5083400000    -0.0458870000
    8      O       1.8510710000    -2.6592930000    -0.1227990000
    9      C       2.2615360000    -0.3525940000     0.0918290000
   10      C       3.6573560000    -0.5655430000     0.0995200000
   11      C       4.5387850000     0.4899690000     0.2200020000
   12      C       4.0453590000     1.8077190000     0.3410210000
   13      C       2.6845420000     2.0360000000     0.3384050000
   14      C       1.7673030000     0.9671050000     0.2152100000
   15      C       0.3378960000     1.2462740000     0.2251930000
   16      O      -0.0542510000     2.4523830000     0.3383930000
   17      C      -0.5780550000     0.1159610000     0.0901250000
   18      C      -1.9970920000     0.3539200000     0.0975360000
   19      N      -2.4964250000     1.6178130000     0.3555690000
   20      H      -4.7127610000    -0.0069810000     0.8418560000
   21      H      -4.6976840000     0.2280180000    -0.9063160000
   22      H      -4.9300760000    -1.3894510000    -0.2429080000
   23      H      -3.0809960000    -2.8094930000    -0.4817600000
   24      H       4.0043570000    -1.5876590000     0.0054300000
   25      H       5.6095920000     0.3089030000     0.2220400000
   26      H       4.7371000000     2.6394870000     0.4372680000
   27      H       2.2771770000     3.0353330000     0.4321830000
   28      H      -1.7738520000     2.3439740000     0.3250670000
   29      H      -3.4077280000     1.8304850000    -0.0170230000
 ----------------------------------------------------------------

   18   -1243.3349941564      7.03e-09  Convergence criterion met
 Total energy in the final basis set =    -1243.4221946500

                    Orbital Energies (a.u.)
 --------------------------------------------------------------

 Alpha MOs
 -- Occupied --
******** -19.0804 -19.0728 -14.3101 -10.2311 -10.2288 -10.2261 -10.2213
-10.1900 -10.1853 -10.1817 -10.1816 -10.1811 -10.1801 -10.1782 -10.1776
-10.1774 -10.1770 -10.1743  -9.4522  -7.2166  -7.2074  -7.2064  -1.0075
 -1.0043  -0.9212  -0.8750  -0.8633  -0.8208  -0.7993  -0.7593  -0.7567
 -0.7247  -0.7049  -0.6642  -0.6393  -0.6220  -0.5849  -0.5637  -0.5528
 -0.5245  -0.5125  -0.4838  -0.4766  -0.4583  -0.4522  -0.4466  -0.4373
 -0.4307  -0.4253  -0.4201  -0.4091  -0.4037  -0.3939  -0.3867  -0.3798
 -0.3793  -0.3693  -0.3560  -0.3487  -0.3443  -0.3403  -0.3048  -0.2947
 -0.2694  -0.2625  -0.2549  -0.2481  -0.2303  -0.2141  -0.1413

 Beta MOs
 -- Occupied --
******** -19.0751 -19.0669 -14.3099 -10.2293 -10.2276 -10.2257 -10.2212
-10.1892 -10.1852 -10.1812 -10.1806 -10.1805 -10.1796 -10.1778 -10.1774
-10.1772 -10.1762 -10.1744  -9.4521  -7.2166  -7.2072  -7.2064  -0.9984
 -0.9942  -0.9200  -0.8735  -0.8614  -0.8195  -0.7960  -0.7575  -0.7548
 -0.7228  -0.7024  -0.6588  -0.6373  -0.6200  -0.5838  -0.5618  -0.5511
 -0.5229  -0.5116  -0.4820  -0.4741  -0.4573  -0.4510  -0.4457  -0.4324
 -0.4303  -0.4241  -0.4121  -0.4033  -0.4018  -0.3926  -0.3785  -0.3772
 -0.3715  -0.3658  -0.3547  -0.3426  -0.3383  -0.3325  -0.3040  -0.2899
 -0.2561  -0.2510  -0.2486  -0.2433  -0.2253  -0.2057

          Ground-State Mulliken Net Atomic Charges

     Atom                 Charge (a.u.)    Spin (a.u.)
  --------------------------------------------------------
      1 C                     1.992532      -0.001094
      2 C                     1.645248       0.078967
      3 C                    -0.302836       0.024493
      4 C                     0.338225       0.044825
      5 Cl                    0.480115       0.003605
      6 C                    -1.007826       0.063595
      7 C                    -3.436709       0.049272
      8 O                    -0.189146       0.218304
      9 C                    -1.469484       0.056737
     10 C                    -0.015152       0.019187
     11 C                     0.924308       0.043226
     12 C                     0.937302       0.028101
     13 C                     0.071354       0.035761
     14 C                    -1.098457       0.014694
     15 C                    -1.510816       0.100403
     16 O                    -0.278914       0.197167
     17 C                    -0.743420      -0.002462
     18 C                     0.210925       0.019103
     19 N                    -0.228034       0.013437
     20 H                     0.247833       0.003727
     21 H                     0.271901       0.003837
     22 H                     0.314414       0.000183
     23 H                     0.172854      -0.003109
     24 H                     0.144204      -0.001384
     25 H                     0.350867      -0.003330
     26 H                     0.358901      -0.002462
     27 H                     0.166917      -0.001327
     28 H                     0.301251      -0.002545
     29 H                     0.351642      -0.000912
  --------------------------------------------------------
  Sum of atomic charges =    -1.000000

                    Cartesian Multipole Moments
 -----------------------------------------------------------------
    Charge (ESU x 10^10)
                -4.8032
    Dipole Moment (Debye)
         X      -5.2795      Y       3.9025      Z      -0.6894
       Tot       6.6014
    Quadrupole Moments (Debye-Ang)
        XX    -122.5985     XY       5.1694     YY    -155.6502
        XZ       2.3465     YZ      -4.6000     ZZ    -126.4432

 Total job time:  897.68s(wall), 6880.95s(cpu)
        *  Thank you very much for using Q-Chem.  Have a nice day.  *
