 Gaussian 16, Revision A.03,
 Gaussian 16:  ES64L-G16RevA.03 25-Dec-2016

 ----------------------------------------------------------------
 #P UB3LYP/6-311++G(d,p) SCRF=(PCM,Solvent=n,n-DiMethylFormamide)
 ----------------------------------------------------------------

 ------------------
 Quinone PCM in DMF
 ------------------
 Symbolic Z-matrix:
 Charge =  0 Multiplicity = 1

                         Standard orientation:
 ---------------------------------------------------------------------
 Center     Atomic      Atomic             Coordinates (Angstroms)
 Number     Number       Type             X           Y           Z
 ---------------------------------------------------------------------
      1          6           0       -0.120575    1.458052    0.000008
      2          6           0        1.153607    0.676018   -0.000014
      3          6           0        1.153606   -0.676021    0.000005
      4          6           0       -0.120579   -1.458057    0.000124
      5          6           0       -1.407242   -0.677536    0.000002
      6          6           0       -1.407239    0.677529    0.000000
      7          8           0       -0.138735    2.664689    0.000192
      8          8           0       -0.138731   -2.664695    0.000169
      9          6           0       -2.607435    1.443553   -0.000026
     10          6           0       -2.607443   -1.443555   -0.000057
     11          7           0       -3.581244    2.063542   -0.000058
     12          7           0       -3.581264   -2.063525   -0.000114
     13         17           0        2.592266    1.613579   -0.000066
     14         17           0        2.592268   -1.613577   -0.000048
 ---------------------------------------------------------------------

 SCF Done:  E(UB3LYP) =  -1485.31877727     A.U. after   15 cycles

 The electronic state is 1-A.
 Alpha  occ. eigenvalues -- -101.59870-101.59870 -19.18419 -19.18418 -14.36745
 Alpha  occ. eigenvalues --  -14.36744 -10.34013 -10.34012 -10.30499 -10.30426
 Alpha  occ. eigenvalues --  -10.30235 -10.30163 -10.26258 -10.26255  -9.51305
 Alpha  occ. eigenvalues --   -9.51304  -7.27809  -7.27808  -7.26809  -7.26809
 Alpha  occ. eigenvalues --   -7.26680  -7.26679  -1.12335  -1.12117  -0.97064
 Alpha  occ. eigenvalues --   -0.95955  -0.95702  -0.91076  -0.90066  -0.81366
 Alpha  occ. eigenvalues --   -0.78403  -0.70190  -0.68076  -0.61084  -0.59628
 Alpha  occ. eigenvalues --   -0.57584  -0.52199  -0.51068  -0.50438  -0.48969
 Alpha  occ. eigenvalues --   -0.47867  -0.46943  -0.44332  -0.42017  -0.41919
 Alpha  occ. eigenvalues --   -0.40897  -0.40336  -0.39475  -0.38704  -0.37585
 Alpha  occ. eigenvalues --   -0.36839  -0.34776  -0.33922  -0.33770  -0.32890
 Alpha  occ. eigenvalues --   -0.30130
 Alpha virt. eigenvalues --   -0.18463  -0.11040  -0.05529  -0.04513  -0.02680
 Alpha virt. eigenvalues --   -0.01278  -0.00302   0.01528   0.01733   0.01823
 Alpha virt. eigenvalues --    0.02173   0.02929   0.04128   0.04433   0.05067

  Beta  occ. eigenvalues -- -101.59870-101.59870 -19.18419 -19.18418 -14.36745
  Beta  occ. eigenvalues --  -14.36744 -10.34013 -10.34012 -10.30499 -10.30426
  Beta  occ. eigenvalues --  -10.30235 -10.30163 -10.26258 -10.26255  -9.51305
  Beta  occ. eigenvalues --   -9.51304  -7.27809  -7.27808  -7.26809  -7.26809
  Beta  occ. eigenvalues --   -7.26680  -7.26679  -1.12335  -1.12117  -0.97064
  Beta  occ. eigenvalues --   -0.95955  -0.95702  -0.91076  -0.90066  -0.81366
  Beta  occ. eigenvalues --   -0.78403  -0.70190  -0.68076  -0.61084  -0.59628
  Beta  occ. eigenvalues --   -0.57584  -0.52199  -0.51068  -0.50438  -0.48969
  Beta  occ. eigenvalues --   -0.47867  -0.46943  -0.44332  -0.42017  -0.41919
  Beta  occ. eigenvalues --   -0.40897  -0.40336  -0.39475  -0.38704  -0.37585
  Beta  occ. eigenvalues --   -0.36839  -0.34776  -0.33922  -0.33770  -0.32890
  Beta  occ. eigenvalues --   -0.30130
  Beta virt. eigenvalues --   -0.18463  -0.11040  -0.05529  -0.04513  -0.02680
  Beta virt. eigenvalues --   -0.01278  -0.00302   0.01528   0.01733   0.01823
  Beta virt. eigenvalues --    0.02173   0.02929   0.04128   0.04433   0.05067

 Mulliken charges and spin densities:
               1          2
     1  C   -1.560279  -0.000000
     2  C    0.632168   0.000000
     3  C    0.632199   0.000000
     4  C   -1.560313  -0.000000
     5  C    2.083817   0.000000
     6  C    2.083869   0.000000
     7  O   -0.153815   0.000000
     8  O   -0.153816   0.000000
     9  C   -1.337358  -0.000000
    10  C   -1.337371  -0.000000
    11  N   -0.175355   0.000000
    12  N   -0.175354   0.000000
    13  Cl   0.510805  -0.000000
    14  Cl   0.510804  -0.000000
 Sum of Mulliken charges =  -0.00000   0.00000

 Dipole moment (field-independent basis, Debye):
    X=              5.5432    Y=             -0.0000    Z=             -0.0002  Tot=              5.5432
 Quadrupole moment (field-independent basis, Debye-Ang):
   XX=           -113.6480   YY=           -115.1065   ZZ=            -87.4475
   XY=              0.0001   XZ=             -0.0009   YZ=             -0.0005

 Normal termination of Gaussian 16 at Sun Jan 21 06:41:40 2024.
