 Gaussian 16, Revision A.03,
 Gaussian 16:  ES64L-G16RevA.03 25-Dec-2016

 ----------------------------------------------------------------
 #P UB3LYP/6-311++G(d,p) SCRF=(PCM,Solvent=n,n-DiMethylFormamide)
 ----------------------------------------------------------------

 ------------------
 Quinone PCM in DMF
 ------------------
 Symbolic Z-matrix:
 Charge =  0 Multiplicity = 1

                         Standard orientation:
 ---------------------------------------------------------------------
 Center     Atomic      Atomic             Coordinates (Angstroms)
 Number     Number       Type             X           Y           Z
 ---------------------------------------------------------------------
      1          6           0       -0.364696   -1.817005   -0.000050
      2          6           0       -1.719339   -1.519542   -0.000047
      3          6           0       -2.142361   -0.178948   -0.000024
      4          6           0        0.580602   -0.788322   -0.000042
      5          6           0        0.158462    0.551952   -0.000064
      6          6           0       -1.201455    0.855446   -0.000046
      7          6           0        2.038198   -1.123826    0.000020
      8          6           0        2.995165    0.008297    0.000062
      9          6           0        2.591829    1.286723    0.000020
     10          6           0        1.158299    1.664847   -0.000103
     11          8           0        2.433490   -2.276499    0.000052
     12          8           0        0.820788    2.835257    0.000029
     13          6           0       -3.541679    0.125559    0.000036
     14          7           0       -4.671620    0.364919    0.000103
     15          1           0       -0.018620   -2.843165   -0.000034
     16          1           0       -2.457023   -2.312325   -0.000054
     17          1           0       -1.511882    1.892691   -0.000051
     18          1           0        4.044105   -0.267441    0.000127
     19          1           0        3.292392    2.114656    0.000072
 ---------------------------------------------------------------------

 SCF Done:  E(UB3LYP) =  -627.533983048     A.U. after   15 cycles

 The electronic state is 1-A.
 Alpha  occ. eigenvalues --  -19.14885 -19.14830 -14.33922 -10.29674 -10.29672
 Alpha  occ. eigenvalues --  -10.24953 -10.23866 -10.22800 -10.22642 -10.22473
 Alpha  occ. eigenvalues --  -10.22381 -10.22143 -10.22061 -10.21528  -1.08185
 Alpha  occ. eigenvalues --   -1.08008  -0.94139  -0.91136  -0.85706  -0.80914
 Alpha  occ. eigenvalues --   -0.79839  -0.71906  -0.68812  -0.66570  -0.61140
 Alpha  occ. eigenvalues --   -0.58895  -0.55557  -0.52509  -0.51716  -0.48262
 Alpha  occ. eigenvalues --   -0.47693  -0.47083  -0.46624  -0.45669  -0.44358
 Alpha  occ. eigenvalues --   -0.43144  -0.42214  -0.41510  -0.39849  -0.39360
 Alpha  occ. eigenvalues --   -0.37249  -0.36481  -0.31873  -0.30089  -0.29830
 Alpha  occ. eigenvalues --   -0.29440  -0.28992
 Alpha virt. eigenvalues --   -0.14064  -0.08422  -0.05992  -0.00750   0.00362
 Alpha virt. eigenvalues --    0.00515   0.00815   0.01148   0.01941   0.02375
 Alpha virt. eigenvalues --    0.02830   0.04110   0.04136   0.05240   0.06015

  Beta  occ. eigenvalues --  -19.14885 -19.14830 -14.33922 -10.29674 -10.29672
  Beta  occ. eigenvalues --  -10.24953 -10.23866 -10.22800 -10.22642 -10.22473
  Beta  occ. eigenvalues --  -10.22381 -10.22143 -10.22061 -10.21528  -1.08185
  Beta  occ. eigenvalues --   -1.08008  -0.94139  -0.91136  -0.85706  -0.80914
  Beta  occ. eigenvalues --   -0.79839  -0.71906  -0.68812  -0.66570  -0.61140
  Beta  occ. eigenvalues --   -0.58895  -0.55557  -0.52509  -0.51716  -0.48262
  Beta  occ. eigenvalues --   -0.47693  -0.47083  -0.46624  -0.45669  -0.44358
  Beta  occ. eigenvalues --   -0.43144  -0.42214  -0.41510  -0.39849  -0.39360
  Beta  occ. eigenvalues --   -0.37249  -0.36481  -0.31873  -0.30089  -0.29830
  Beta  occ. eigenvalues --   -0.29440  -0.28992
  Beta virt. eigenvalues --   -0.14064  -0.08422  -0.05992  -0.00750   0.00362
  Beta virt. eigenvalues --    0.00515   0.00815   0.01148   0.01941   0.02375
  Beta virt. eigenvalues --    0.02830   0.04110   0.04136   0.05240   0.06015

 Mulliken charges and spin densities:
               1          2
     1  C    0.566718  -0.000000
     2  C   -0.877409   0.000000
     3  C    2.004282  -0.000000
     4  C    0.188758   0.000000
     5  C   -0.042285  -0.000000
     6  C    0.362313  -0.000000
     7  C   -0.704160   0.000000
     8  C    0.191300  -0.000000
     9  C    0.132212  -0.000000
    10  C   -0.541026   0.000000
    11  O   -0.266284  -0.000000
    12  O   -0.268579  -0.000000
    13  C   -1.642536  -0.000000
    14  N   -0.228084   0.000000
    15  H    0.198785   0.000000
    16  H    0.235612   0.000000
    17  H    0.202993   0.000000
    18  H    0.241970  -0.000000
    19  H    0.245421  -0.000000
 Sum of Mulliken charges =  -0.00000  -0.00000

 Dipole moment (field-independent basis, Debye):
    X=              4.2596    Y=             -1.6229    Z=             -0.0004  Tot=              4.5583
 Quadrupole moment (field-independent basis, Debye-Ang):
   XX=            -99.0192   YY=            -89.6863   ZZ=            -79.3006
   XY=             13.6227   XZ=              0.0010   YZ=             -0.0002

 Normal termination of Gaussian 16 at Sun Jan 21 07:47:01 2024.
