 Gaussian 16, Revision A.03,
 Gaussian 16:  ES64L-G16RevA.03 25-Dec-2016

 --------------------------------------
 #P UB3LYP/6-311++G(d,p) nosym opt freq
 --------------------------------------

 --------
 Oxidized
 --------
 Symbolic Z-matrix:
 Charge =  0 Multiplicity = 1

 SCF Done:  E(UB3LYP) =  -627.520449949     A.U. after   16 cycles
 SCF Done:  E(UB3LYP) =  -627.520446714     A.U. after   11 cycles
 SCF Done:  E(UB3LYP) =  -627.520450460     A.U. after   10 cycles
 Optimization completed.
    -- Stationary point found.
 Normal termination of Gaussian 16 at Sun Jan  7 20:15:16 2024.

 ----------------------------------------------------------------------
 #P Geom=AllCheck Guess=TCheck SCRF=Check GenChk UB3LYP/6-311++G(d,p) F
 req
 ----------------------------------------------------------------------

 Structure from the checkpoint file:  "227.chk"
 --------
 Oxidized
 --------
 Charge =  0 Multiplicity = 1

                          Input orientation:
 ---------------------------------------------------------------------
 Center     Atomic      Atomic             Coordinates (Angstroms)
 Number     Number       Type             X           Y           Z
 ---------------------------------------------------------------------
      1          6           0        5.680678   -5.107933    1.281444
      2          6           0        6.693063   -5.018624    0.337706
      3          6           0        6.604008   -4.072342   -0.698035
      4          6           0        4.572737   -4.260278    1.205772
      5          6           0        4.483085   -3.314117    0.170747
      6          6           0        5.497823   -3.220884   -0.779568
      7          6           0        3.488391   -4.367778    2.230363
      8          6           0        2.337290   -3.442889    2.099846
      9          6           0        2.252338   -2.540440    1.112211
     10          6           0        3.303171   -2.399224    0.075971
     11          8           0        3.539095   -5.178426    3.138763
     12          8           0        3.199327   -1.570100   -0.810339
     13          6           0        7.650653   -3.982163   -1.671286
     14          7           0        8.497924   -3.914160   -2.453314
     15          1           0        5.730595   -5.830157    2.086847
     16          1           0        7.554430   -5.672770    0.390836
     17          1           0        5.415116   -2.487096   -1.571374
     18          1           0        1.568083   -3.545509    2.857537
     19          1           0        1.409924   -1.864004    1.017160
 ---------------------------------------------------------------------

 SCF Done:  E(UB3LYP) =  -627.520450460     A.U. after    1 cycles

 Alpha  occ. eigenvalues --  -19.15492 -19.15444 -14.33772 -10.30378 -10.30366
 Alpha  occ. eigenvalues --  -10.25907 -10.23823 -10.23711 -10.23538 -10.23478
 Alpha  occ. eigenvalues --  -10.23403 -10.23397 -10.23301 -10.22740  -1.08760
 Alpha  occ. eigenvalues --   -1.08567  -0.94063  -0.91952  -0.86850  -0.81934
 Alpha  occ. eigenvalues --   -0.80991  -0.72890  -0.69784  -0.67716  -0.62213
 Alpha  occ. eigenvalues --   -0.59773  -0.56662  -0.53381  -0.52758  -0.49224
 Alpha  occ. eigenvalues --   -0.48440  -0.48137  -0.47590  -0.46389  -0.45436
 Alpha  occ. eigenvalues --   -0.43786  -0.42856  -0.42396  -0.40685  -0.38679
 Alpha  occ. eigenvalues --   -0.37529  -0.36236  -0.32968  -0.31014  -0.30601
 Alpha  occ. eigenvalues --   -0.30172  -0.29595
 Alpha virt. eigenvalues --   -0.14927  -0.09290  -0.07169  -0.01683  -0.00754
 Alpha virt. eigenvalues --   -0.00051   0.00535   0.00800   0.01107   0.01536
 Alpha virt. eigenvalues --    0.02359   0.03090   0.03502   0.05158   0.05173

  Beta  occ. eigenvalues --  -19.15492 -19.15444 -14.33772 -10.30378 -10.30366
  Beta  occ. eigenvalues --  -10.25907 -10.23823 -10.23711 -10.23538 -10.23478
  Beta  occ. eigenvalues --  -10.23403 -10.23397 -10.23301 -10.22740  -1.08760
  Beta  occ. eigenvalues --   -1.08567  -0.94063  -0.91952  -0.86850  -0.81934
  Beta  occ. eigenvalues --   -0.80991  -0.72890  -0.69784  -0.67716  -0.62213
  Beta  occ. eigenvalues --   -0.59773  -0.56662  -0.53381  -0.52758  -0.49224
  Beta  occ. eigenvalues --   -0.48440  -0.48137  -0.47590  -0.46389  -0.45436
  Beta  occ. eigenvalues --   -0.43786  -0.42856  -0.42396  -0.40685  -0.38679
  Beta  occ. eigenvalues --   -0.37529  -0.36236  -0.32968  -0.31014  -0.30601
  Beta  occ. eigenvalues --   -0.30172  -0.29595
  Beta virt. eigenvalues --   -0.14927  -0.09290  -0.07169  -0.01683  -0.00754
  Beta virt. eigenvalues --   -0.00051   0.00535   0.00800   0.01107   0.01536
  Beta virt. eigenvalues --    0.02359   0.03090   0.03502   0.05158   0.05173

 Mulliken charges and spin densities:
               1          2
     1  C    0.546166  -0.000000
     2  C   -0.827559   0.000000
     3  C    1.931616   0.000000
     4  C    0.170532   0.000000
     5  C   -0.025393   0.000000
     6  C    0.304388  -0.000000
     7  C   -0.744476   0.000000
     8  C    0.198446   0.000000
     9  C    0.147026   0.000000
    10  C   -0.588848  -0.000000
    11  O   -0.210952  -0.000000
    12  O   -0.209057   0.000000
    13  C   -1.610569  -0.000000
    14  N   -0.140013   0.000000
    15  H    0.195597  -0.000000
    16  H    0.208061  -0.000000
    17  H    0.205109   0.000000
    18  H    0.223015  -0.000000
    19  H    0.226912  -0.000000
 Sum of Mulliken charges =  -0.00000   0.00000

 Dipole moment (field-independent basis, Debye):
    X=             -2.3621    Y=             -0.5614    Z=              2.6163  Tot=              3.5693
 Quadrupole moment (field-independent basis, Debye-Ang):
   XX=           -107.1924   YY=            -78.2877   ZZ=            -92.7833
   XY=              2.1152   XZ=             20.5046   YZ=             -3.1319

  Exact polarizability: 158.766 -26.463 114.052 -46.593 -35.454 145.289
 Approx polarizability: 235.579 -39.615 209.314 -63.972 -92.590 263.926

                      1                      2                      3
                      A                      A                      A
 Frequencies --     68.0929                83.5991               126.0359
 Red. masses --      6.5922                 8.8840                11.4190
 Frc consts  --      0.0180                 0.0366                 0.1069
 IR Inten    --      0.7766                14.3825                 4.3093

                      4                      5                      6
                      A                      A                      A
 Frequencies --    138.2055               219.0500               262.6567
 Red. masses --      5.5688                 7.2675                 4.4376
 Frc consts  --      0.0627                 0.2055                 0.1804
 IR Inten    --      1.4637                 1.0890                 0.0667

                      7                      8                      9
                      A                      A                      A
 Frequencies --    269.6683               333.5907               405.2598
 Red. masses --      7.9492                12.3852                 3.8356
 Frc consts  --      0.3406                 0.8120                 0.3712
 IR Inten    --      1.7806                 6.4785                 0.2398

                     10                     11                     12
                      A                      A                      A
 Frequencies --    423.0549               441.9976               450.4105
 Red. masses --      8.6461                 5.0816                11.6652
 Frc consts  --      0.9117                 0.5849                 1.3943
 IR Inten    --      9.3970                 0.6694                 7.7604

                     13                     14                     15
                      A                      A                      A
 Frequencies --    512.7334               564.8836               585.5996
 Red. masses --      8.7968                 7.3062                 4.2639
 Frc consts  --      1.3626                 1.3736                 0.8615
 IR Inten    --     13.6656                 0.5956                 6.1000

                     16                     17                     18
                      A                      A                      A
 Frequencies --    610.1498               617.9471               641.3772
 Red. masses --      5.2468                 2.6484                 5.8739
 Frc consts  --      1.1508                 0.5959                 1.4237
 IR Inten    --      0.0599                 0.2568                 2.8280

                     19                     20                     21
                      A                      A                      A
 Frequencies --    698.6181               719.0261               776.9816
 Red. masses --      3.8039                 7.0594                 7.0467
 Frc consts  --      1.0939                 2.1503                 2.5065
 IR Inten    --      7.4765                 2.7208                 2.4379

                     22                     23                     24
                      A                      A                      A
 Frequencies --    792.8542               857.0361               886.7383
 Red. masses --      6.2241                 1.6536                 1.6903
 Frc consts  --      2.3052                 0.7156                 0.7831
 IR Inten    --      0.3032                79.7185                 0.4346

                     25                     26                     27
                      A                      A                      A
 Frequencies --    895.2255               955.6032              1009.4099
 Red. masses --      5.4703                 1.4293                 1.3484
 Frc consts  --      2.5830                 0.7690                 0.8095
 IR Inten    --      9.3090                 5.8667                 0.2228

                     28                     29                     30
                      A                      A                      A
 Frequencies --   1017.5903              1058.2988              1072.5945
 Red. masses --      1.2519                 3.4622                 2.5161
 Frc consts  --      0.7637                 2.2846                 1.7055
 IR Inten    --      0.0012                47.9368                11.2367

                     31                     32                     33
                      A                      A                      A
 Frequencies --   1153.3701              1159.7983              1206.1806
 Red. masses --      1.4044                 1.4948                 3.0492
 Frc consts  --      1.1007                 1.1846                 2.6137
 IR Inten    --     14.5289                30.2455                 1.0474

                     34                     35                     36
                      A                      A                      A
 Frequencies --   1250.0020              1295.2855              1316.0120
 Red. masses --      2.0684                 1.7554                 3.8721
 Frc consts  --      1.9041                 1.7352                 3.9511
 IR Inten    --      1.0373                 2.5127               293.5086

                     37                     38                     39
                      A                      A                      A
 Frequencies --   1340.3078              1388.3095              1439.8564
 Red. masses --      7.9357                 1.7571                 4.1326
 Frc consts  --      8.3994                 1.9954                 5.0479
 IR Inten    --      6.2089                 4.0316                 2.6546

                     40                     41                     42
                      A                      A                      A
 Frequencies --   1511.1001              1593.1829              1637.1460
 Red. masses --      2.8166                 7.5959                 6.1438
 Frc consts  --      3.7893                11.3596                 9.7021
 IR Inten    --      0.2054                 3.7024                55.4212

                     43                     44                     45
                      A                      A                      A
 Frequencies --   1662.4045              1729.2251              1735.2367
 Red. masses --      7.9528                10.8616                11.4996
 Frc consts  --     12.9492                19.1358                20.4010
 IR Inten    --     34.5616                45.8563               370.2735

                     46                     47                     48
                      A                      A                      A
 Frequencies --   2338.0893              3176.1801              3193.0949
 Red. masses --     12.6792                 1.0875                 1.0976
 Frc consts  --     40.8380                 6.4638                 6.5935
 IR Inten    --     17.2214                 0.4192                 2.4485

                     49                     50                     51
                      A                      A                      A
 Frequencies --   3193.2565              3205.7783              3206.6696
 Red. masses --      1.0902                 1.0930                 1.0945
 Frc consts  --      6.5499                 6.6183                 6.6307
 IR Inten    --      0.6454                 1.6548                 2.5937

 - Thermochemistry -
 -------------------
 Temperature   298.150 Kelvin.  Pressure   1.00000 Atm.
 Atom     1 has atomic number  6 and mass  12.00000

 Molecular mass:   183.03203 amu.
 Principal axes and moments of inertia in atomic units:
                           1         2         3
     Eigenvalues --  1396.281663447.912644844.19429
           X            0.81367  -0.33703   0.47365
           Y           -0.08461   0.73744   0.67010
           Z           -0.57513  -0.58532   0.57152
 This molecule is an asymmetric top.
 Rotational symmetry number  1.
 Warning -- assumption of classical behavior for rotation
           may cause significant error
 Rotational temperatures (Kelvin)      0.06203     0.02512     0.01788
 Rotational constants (GHZ):           1.29253     0.52343     0.37256
 Zero-point vibrational energy     342280.2 (Joules/Mol)
                                   81.80692 (Kcal/Mol)
 Warning -- explicit consideration of  17 degrees of freedom as
           vibrations may cause significant error
 Vibrational temperatures:     97.97   120.28   181.34   198.85   315.16
          (Kelvin)            377.90   387.99   479.96   583.08   608.68
                              635.94   648.04   737.71   812.74   842.55
                              877.87   889.09   922.80  1005.16  1034.52
                             1117.90  1140.74  1233.08  1275.82  1288.03
                             1374.90  1452.32  1464.09  1522.66  1543.22
                             1659.44  1668.69  1735.42  1798.47  1863.63
                             1893.45  1928.40  1997.47  2071.63  2174.14
                             2292.23  2355.49  2391.83  2487.97  2496.62
                             3363.99  4569.81  4594.15  4594.38  4612.40
                             4613.68

 Zero-point correction=                           0.130368 (Hartree/Particle)
 Thermal correction to Energy=                    0.140949
 Thermal correction to Enthalpy=                  0.141894
 Thermal correction to Gibbs Free Energy=         0.093488
 Sum of electronic and zero-point Energies=           -627.390083
 Sum of electronic and thermal Energies=              -627.379501
 Sum of electronic and thermal Enthalpies=            -627.378557
 Sum of electronic and thermal Free Energies=         -627.426962

                     E (Thermal)             CV                S
                      KCal/Mol        Cal/Mol-Kelvin    Cal/Mol-Kelvin
 Total                   88.447             40.673            101.877
 Electronic               0.000              0.000              0.000
 Translational            0.889              2.981             41.520
 Rotational               0.889              2.981             31.523
 Vibrational             86.670             34.711             28.835
 Vibration     1          0.598              1.969              4.208
 Vibration     2          0.600              1.960              3.805
 Vibration     3          0.611              1.927              3.006
 Vibration     4          0.614              1.915              2.829
 Vibration     5          0.647              1.812              1.967
 Vibration     6          0.670              1.741              1.644
 Vibration     7          0.674              1.729              1.598
 Vibration     8          0.715              1.608              1.243
 Vibration     9          0.770              1.459              0.944
 Vibration    10          0.785              1.420              0.882
 Vibration    11          0.802              1.379              0.820
 Vibration    12          0.809              1.360              0.795
 Vibration    13          0.868              1.222              0.627
 Vibration    14          0.921              1.107              0.514
 Vibration    15          0.943              1.063              0.475
 Vibration    16          0.969              1.010              0.433
 Vibration    17          0.978              0.994              0.420

 Optimization completed.
    -- Stationary point found.
 Normal termination of Gaussian 16 at Sun Jan  7 20:23:21 2024.
