 Gaussian 16, Revision A.03,
 Gaussian 16:  ES64L-G16RevA.03 25-Dec-2016

 ----------------------------------------------------------------
 #P UB3LYP/6-311++G(d,p) SCRF=(PCM,Solvent=n,n-DiMethylFormamide)
 ----------------------------------------------------------------

 -------
 Reduced
 -------
 Symbolic Z-matrix:
 Charge = -2 Multiplicity = 1

                         Standard orientation:
 ---------------------------------------------------------------------
 Center     Atomic      Atomic             Coordinates (Angstroms)
 Number     Number       Type             X           Y           Z
 ---------------------------------------------------------------------
      1         17           0        2.161973   -1.189880    0.000010
      2          6           0        0.577688   -0.267167   -0.000019
      3          6           0       -0.587675   -1.042817   -0.000013
      4          6           0       -1.896843   -0.462994   -0.000017
      5          8           0       -2.997169   -1.162361    0.000010
      6          6           0       -1.855790    0.969668    0.000013
      7          6           0       -0.669617    1.709205    0.000005
      8          6           0        0.658329    1.157615   -0.000034
      9          8           0        1.738791    1.872633    0.000009
     10          1           0       -0.511928   -2.126616    0.000005
     11          1           0       -2.814663    1.491676    0.000043
     12          1           0       -0.716474    2.799673    0.000024
 ---------------------------------------------------------------------

 SCF Done:  E(UB3LYP) =  -841.461442566     A.U. after   17 cycles

 The electronic state is 1-A.
 Alpha  occ. eigenvalues -- -101.52251 -19.01937 -19.01658 -10.18527 -10.17987
 Alpha  occ. eigenvalues --  -10.17466 -10.13115 -10.13109 -10.12736  -9.43663
 Alpha  occ. eigenvalues --   -7.20031  -7.19209  -7.19170  -0.93259  -0.92421
 Alpha  occ. eigenvalues --   -0.82637  -0.77206  -0.69097  -0.65248  -0.56277
 Alpha  occ. eigenvalues --   -0.52772  -0.43844  -0.43159  -0.41107  -0.37619
 Alpha  occ. eigenvalues --   -0.36862  -0.36074  -0.33553  -0.32367  -0.32033
 Alpha  occ. eigenvalues --   -0.30366  -0.28931  -0.22722  -0.21436  -0.20085
 Alpha  occ. eigenvalues --   -0.19690  -0.12443
 Alpha virt. eigenvalues --    0.00622   0.01461   0.01601   0.02085   0.03046
 Alpha virt. eigenvalues --    0.05320   0.05542   0.06162   0.06764   0.07413
 Alpha virt. eigenvalues --    0.09003   0.09056   0.09251   0.09474   0.11614

  Beta  occ. eigenvalues -- -101.52251 -19.01937 -19.01658 -10.18527 -10.17987
  Beta  occ. eigenvalues --  -10.17466 -10.13115 -10.13109 -10.12736  -9.43663
  Beta  occ. eigenvalues --   -7.20031  -7.19209  -7.19170  -0.93259  -0.92421
  Beta  occ. eigenvalues --   -0.82637  -0.77206  -0.69097  -0.65248  -0.56277
  Beta  occ. eigenvalues --   -0.52772  -0.43844  -0.43159  -0.41107  -0.37619
  Beta  occ. eigenvalues --   -0.36862  -0.36074  -0.33553  -0.32367  -0.32033
  Beta  occ. eigenvalues --   -0.30366  -0.28931  -0.22722  -0.21436  -0.20085
  Beta  occ. eigenvalues --   -0.19690  -0.12443
  Beta virt. eigenvalues --    0.00622   0.01461   0.01601   0.02085   0.03046
  Beta virt. eigenvalues --    0.05320   0.05542   0.06162   0.06764   0.07413
  Beta virt. eigenvalues --    0.09003   0.09056   0.09251   0.09474   0.11614

 Mulliken charges and spin densities:
               1          2
     1  Cl   0.042130  -0.000000
     2  C    1.147694   0.000000
     3  C   -0.570915  -0.000000
     4  C   -0.605758   0.000000
     5  O   -0.740697   0.000000
     6  C   -0.008799  -0.000000
     7  C   -0.149653   0.000000
     8  C   -0.838138  -0.000000
     9  O   -0.695396   0.000000
    10  H    0.135986   0.000000
    11  H    0.138555  -0.000000
    12  H    0.144991  -0.000000
 Sum of Mulliken charges =  -2.00000   0.00000

 Dipole moment (field-independent basis, Debye):
    X=              3.0470    Y=             -1.3752    Z=             -0.0000  Tot=              3.3429
 Quadrupole moment (field-independent basis, Debye-Ang):
   XX=           -121.1623   YY=            -87.0271   ZZ=            -67.9453
   XY=            -23.0771   XZ=             -0.0000   YZ=              0.0000

 Normal termination of Gaussian 16 at Sun Jan 21 07:26:45 2024.
