 Gaussian 16, Revision A.03,
 Gaussian 16:  ES64L-G16RevA.03 25-Dec-2016

 ----------------------------------------------------------------------
 #P UB3LYP/6-311++G(d,p) nosym opt freq SCRF=(PCM,Solvent=n,n-DiMethylF
 ormamide)
 ----------------------------------------------------------------------

 -------
 Radical
 -------
 Symbolic Z-matrix:
 Charge = -1 Multiplicity = 2

 SCF Done:  E(UB3LYP) =  -995.037655909     A.U. after   20 cycles
 SCF Done:  E(UB3LYP) =  -995.037821049     A.U. after   15 cycles
 SCF Done:  E(UB3LYP) =  -995.037843970     A.U. after   14 cycles
 SCF Done:  E(UB3LYP) =  -995.037840558     A.U. after   13 cycles
 SCF Done:  E(UB3LYP) =  -995.037845659     A.U. after   11 cycles
 Optimization completed.
    -- Stationary point found.
 Normal termination of Gaussian 16 at Sun Feb 11 00:45:36 2024.

 ----------------------------------------------------------------------
 #P Geom=AllCheck Guess=TCheck SCRF=Check GenChk UB3LYP/6-311++G(d,p) F
 req
 ----------------------------------------------------------------------

 Structure from the checkpoint file:  "229-rad.chk"
 -------
 Radical
 -------
 Charge = -1 Multiplicity = 2

                          Input orientation:
 ---------------------------------------------------------------------
 Center     Atomic      Atomic             Coordinates (Angstroms)
 Number     Number       Type             X           Y           Z
 ---------------------------------------------------------------------
      1          6           0        5.770547   -5.128171    1.238451
      2          6           0        6.780633   -5.039563    0.295930
      3          6           0        6.691570   -4.096993   -0.743203
      4          6           0        4.644228   -4.283888    1.176579
      5          6           0        4.555162   -3.332039    0.127650
      6          6           0        5.592820   -3.258219   -0.820958
      7          6           0        3.592170   -4.415353    2.204093
      8          6           0        2.491538   -3.501935    2.045881
      9          6           0        2.388303   -2.572762    1.035464
     10          6           0        3.395557   -2.428398    0.025747
     11          8           0        3.671491   -5.261832    3.132761
     12          8           0        3.293333   -1.574429   -0.900738
     13          1           0        5.826560   -5.849681    2.044199
     14          1           0        7.640722   -5.697203    0.358850
     15          1           0        5.509662   -2.526720   -1.615624
     16         17           0        1.188641   -3.593656    3.242631
     17          1           0        7.482643   -4.027579   -1.481753
     18          1           0        1.527210   -1.917397    0.979980
 ---------------------------------------------------------------------

 SCF Done:  E(UB3LYP) =  -995.037845659     A.U. after    2 cycles

 Alpha  occ. eigenvalues -- -101.54929 -19.08494 -19.08276 -10.23531 -10.23089
 Alpha  occ. eigenvalues --  -10.22658 -10.18236 -10.17995 -10.17721 -10.17668
 Alpha  occ. eigenvalues --  -10.17489 -10.17480 -10.17358  -9.46379  -7.22799
 Alpha  occ. eigenvalues --   -7.21907  -7.21834  -1.01043  -1.00405  -0.87312
 Alpha  occ. eigenvalues --   -0.85936  -0.79606  -0.75542  -0.73859  -0.68215
 Alpha  occ. eigenvalues --   -0.62472  -0.60965  -0.56566  -0.51775  -0.50648
 Alpha  occ. eigenvalues --   -0.47519  -0.45993  -0.43113  -0.42913  -0.42694
 Alpha  occ. eigenvalues --   -0.42187  -0.40728  -0.39759  -0.38698  -0.36537
 Alpha  occ. eigenvalues --   -0.35890  -0.34467  -0.33968  -0.31370  -0.27711
 Alpha  occ. eigenvalues --   -0.26099  -0.25357  -0.25285  -0.24668  -0.16281
 Alpha virt. eigenvalues --   -0.03838  -0.02384  -0.00189   0.00846   0.01407
 Alpha virt. eigenvalues --    0.01894   0.03086   0.04087   0.04195   0.04857
 Alpha virt. eigenvalues --    0.04951   0.06474   0.06496   0.06894   0.06919

  Beta  occ. eigenvalues -- -101.54926 -19.07863 -19.07638 -10.23373 -10.22961
  Beta  occ. eigenvalues --  -10.22477 -10.18209 -10.17952 -10.17699 -10.17639
  Beta  occ. eigenvalues --  -10.17477 -10.17474 -10.17178  -9.46376  -7.22806
  Beta  occ. eigenvalues --   -7.21886  -7.21833  -0.99950  -0.99285  -0.86968
  Beta  occ. eigenvalues --   -0.85840  -0.79208  -0.75368  -0.73631  -0.67273
  Beta  occ. eigenvalues --   -0.62273  -0.60693  -0.56305  -0.51548  -0.50386
  Beta  occ. eigenvalues --   -0.47203  -0.45897  -0.43038  -0.42527  -0.41750
  Beta  occ. eigenvalues --   -0.41439  -0.40343  -0.39450  -0.36803  -0.35760
  Beta  occ. eigenvalues --   -0.35471  -0.34363  -0.32820  -0.31319  -0.25502
  Beta  occ. eigenvalues --   -0.25243  -0.24764  -0.24544  -0.24078
  Beta virt. eigenvalues --   -0.09524  -0.03071  -0.01261  -0.00165   0.00898
  Beta virt. eigenvalues --    0.01448   0.01947   0.03101   0.04138   0.04806
  Beta virt. eigenvalues --    0.04987   0.05949   0.06505   0.06916   0.06954

 Mulliken charges and spin densities:
               1          2
     1  C   -0.022924   0.043888
     2  C   -0.399862   0.012433
     3  C   -0.405241   0.024865
     4  C    0.167496  -0.009136
     5  C    0.328608   0.030381
     6  C    0.098604   0.024638
     7  C   -1.317624   0.115457
     8  C    1.146350   0.094180
     9  C    0.153956   0.139503
    10  C   -1.033643   0.076136
    11  O   -0.433220   0.233007
    12  O   -0.475032   0.229299
    13  H    0.163333  -0.002664
    14  H    0.191010  -0.001367
    15  H    0.166117  -0.002384
    16  Cl   0.284620   0.005109
    17  H    0.187761  -0.001893
    18  H    0.199692  -0.011453
 Sum of Mulliken charges =  -1.00000   1.00000

 Dipole moment (field-independent basis, Debye):
    X=            -14.5911    Y=             16.4036    Z=             -7.1220  Tot=             23.0803
 Quadrupole moment (field-independent basis, Debye-Ang):
   XX=           -127.1335   YY=           -156.7209   ZZ=           -117.3546
   XY=             48.0648   XZ=            -22.8933   YZ=             42.0976

  Exact polarizability: 244.755 -49.956 197.113 -60.218 -71.277 235.674
 Approx polarizability: 258.194 -53.151 230.342 -55.955 -91.327 269.748

                      1                      2                      3
                      A                      A                      A
 Frequencies --     65.3267               124.4953               160.6049
 Red. masses --     10.8547                 4.4132                 9.5714
 Frc consts  --      0.0273                 0.0403                 0.1455
 IR Inten    --     11.2904                 1.0487                 7.6478

                      4                      5                      6
                      A                      A                      A
 Frequencies --    210.8485               221.6093               279.2425
 Red. masses --     10.3872                 5.0633                 7.9715
 Frc consts  --      0.2721                 0.1465                 0.3662
 IR Inten    --      3.7231                 0.3461                 1.7925

                      7                      8                      9
                      A                      A                      A
 Frequencies --    329.9924               369.9455               378.1839
 Red. masses --     17.8606                10.4626                 5.8765
 Frc consts  --      1.1459                 0.8437                 0.4952
 IR Inten    --      1.0426                24.5347                 0.2067

                     10                     11                     12
                      A                      A                      A
 Frequencies --    438.5471               467.4001               493.7547
 Red. masses --      3.5652                 9.7082                 3.9558
 Frc consts  --      0.4040                 1.2496                 0.5682
 IR Inten    --      2.7704                 4.8211                 0.1145

                     13                     14                     15
                      A                      A                      A
 Frequencies --    506.2110               610.1718               655.3750
 Red. masses --      9.5166                 7.1964                 3.1134
 Frc consts  --      1.4368                 1.5786                 0.7879
 IR Inten    --      5.8963                30.3415                 5.4899

                     16                     17                     18
                      A                      A                      A
 Frequencies --    660.9215               697.9914               724.8802
 Red. masses --      6.1966                 3.7201                 6.4109
 Frc consts  --      1.5948                 1.0679                 1.9847
 IR Inten    --      2.6486                40.7605                12.2087

                     19                     20                     21
                      A                      A                      A
 Frequencies --    782.1277               796.2826               822.2415
 Red. masses --      1.5564                 3.4656                 6.7108
 Frc consts  --      0.5610                 1.2947                 2.6732
 IR Inten    --     89.0242                 6.7816               171.0571

                     22                     23                     24
                      A                      A                      A
 Frequencies --    835.4441               852.8650               892.0826
 Red. masses --      6.5115                 1.6510                 1.4789
 Frc consts  --      2.6777                 0.7076                 0.6934
 IR Inten    --    101.1441                29.8134                 0.0061

                     25                     26                     27
                      A                      A                      A
 Frequencies --    987.1220              1005.8679              1037.4448
 Red. masses --      1.3746                 1.3001                 2.4740
 Frc consts  --      0.7892                 0.7750                 1.5688
 IR Inten    --      2.5167                 0.0105                16.0595

                     28                     29                     30
                      A                      A                      A
 Frequencies --   1086.2130              1103.5907              1138.3245
 Red. masses --      3.1622                 2.9346                 1.6779
 Frc consts  --      2.1982                 2.1058                 1.2810
 IR Inten    --     36.8499                23.8321                72.6605

                     31                     32                     33
                      A                      A                      A
 Frequencies --   1160.4738              1217.7330              1241.9880
 Red. masses --      1.3711                 2.1836                 2.3397
 Frc consts  --      1.0879                 1.9078                 2.1264
 IR Inten    --      3.2361                27.2242                61.2187

                     34                     35                     36
                      A                      A                      A
 Frequencies --   1284.8195              1349.6053              1379.2251
 Red. masses --      1.7858                 9.6438                 3.3799
 Frc consts  --      1.7369                10.3493                 3.7881
 IR Inten    --     34.0941                 1.1189                81.3748

                     37                     38                     39
                      A                      A                      A
 Frequencies --   1459.1211              1463.2958              1488.8293
 Red. masses --      4.0404                 2.8373                 5.5803
 Frc consts  --      5.0683                 3.5794                 7.2878
 IR Inten    --    319.7951               312.4125                 6.6795

                     40                     41                     42
                      A                      A                      A
 Frequencies --   1515.5792              1551.2701              1613.1530
 Red. masses --      5.3027                 5.4241                 8.1162
 Frc consts  --      7.1764                 7.6904                12.4438
 IR Inten    --   1269.9300                 9.1189                 8.1414

                     43                     44                     45
                      A                      A                      A
 Frequencies --   1631.8654              3162.7168              3176.4216
 Red. masses --      6.0030                 1.0862                 1.0905
 Frc consts  --      9.4186                 6.4018                 6.4827
 IR Inten    --      5.8704                 8.6947                19.4124

                     46                     47                     48
                      A                      A                      A
 Frequencies --   3184.6643              3191.2552              3195.2202
 Red. masses --      1.0907                 1.0922                 1.0944
 Frc consts  --      6.5176                 6.5536                 6.5829
 IR Inten    --      8.7226                16.2157                29.5021

 - Thermochemistry -
 -------------------
 Temperature   298.150 Kelvin.  Pressure   1.00000 Atm.
 Atom     1 has atomic number  6 and mass  12.00000

 Molecular mass:   191.99781 amu.
 Principal axes and moments of inertia in atomic units:
                           1         2         3
     Eigenvalues --  1433.121513240.634394673.74936
           X            0.80353  -0.36049   0.47369
           Y           -0.06515   0.73773   0.67195
           Z           -0.59168  -0.57080   0.56930
 This molecule is an asymmetric top.
 Rotational symmetry number  1.
 Warning -- assumption of classical behavior for rotation
           may cause significant error
 Rotational temperatures (Kelvin)      0.06044     0.02673     0.01853
 Rotational constants (GHZ):           1.25931     0.55691     0.38614
 Zero-point vibrational energy     317024.4 (Joules/Mol)
                                   75.77066 (Kcal/Mol)
 Warning -- explicit consideration of  14 degrees of freedom as
           vibrations may cause significant error
 Vibrational temperatures:     93.99   179.12   231.07   303.36   318.85
          (Kelvin)            401.77   474.79   532.27   544.12   630.97
                              672.48   710.40   728.32   877.90   942.94
                              950.92  1004.25  1042.94  1125.31  1145.67
                             1183.02  1202.02  1227.08  1283.51  1420.25
                             1447.22  1492.65  1562.82  1587.82  1637.80
                             1669.66  1752.05  1786.94  1848.57  1941.78
                             1984.40  2099.35  2105.36  2142.09  2180.58
                             2231.93  2320.97  2347.89  4550.44  4570.16
                             4582.02  4591.50  4597.21

 Zero-point correction=                           0.120748 (Hartree/Particle)
 Thermal correction to Energy=                    0.130588
 Thermal correction to Enthalpy=                  0.131532
 Thermal correction to Gibbs Free Energy=         0.084149
 Sum of electronic and zero-point Energies=           -994.917097
 Sum of electronic and thermal Energies=              -994.907258
 Sum of electronic and thermal Enthalpies=            -994.906314
 Sum of electronic and thermal Free Energies=         -994.953696

                     E (Thermal)             CV                S
                      KCal/Mol        Cal/Mol-Kelvin    Cal/Mol-Kelvin
 Total                   81.945             38.442             99.725
 Electronic               0.000              0.000              1.377
 Translational            0.889              2.981             41.662
 Rotational               0.889              2.981             31.451
 Vibrational             80.168             32.480             25.233
 Vibration     1          0.597              1.971              4.289
 Vibration     2          0.610              1.928              3.029
 Vibration     3          0.622              1.891              2.543
 Vibration     4          0.643              1.824              2.036
 Vibration     5          0.648              1.808              1.946
 Vibration     6          0.680              1.712              1.538
 Vibration     7          0.713              1.616              1.260
 Vibration     8          0.742              1.534              1.080
 Vibration     9          0.748              1.517              1.046
 Vibration    10          0.799              1.386              0.831
 Vibration    11          0.825              1.322              0.745
 Vibration    12          0.849              1.264              0.674
 Vibration    13          0.861              1.236              0.643
 Vibration    14          0.969              1.010              0.432

 Optimization completed.
    -- Stationary point found.
 Normal termination of Gaussian 16 at Sun Feb 11 00:55:46 2024.
