 Gaussian 16, Revision A.03,
 Gaussian 16:  ES64L-G16RevA.03 25-Dec-2016

 ----------------------------------------------------------------------
 #P UB3LYP/6-311++G(d,p) nosym opt freq SCRF=(PCM,Solvent=n,n-DiMethylF
 ormamide)
 ----------------------------------------------------------------------

 -------
 Reduced
 -------
 Symbolic Z-matrix:
 Charge = -2 Multiplicity = 1

 SCF Done:  E(UB3LYP) =  -5891.65065543     A.U. after   18 cycles
 SCF Done:  E(UB3LYP) =  -5891.65142143     A.U. after   14 cycles
 SCF Done:  E(UB3LYP) =  -5891.65157574     A.U. after   14 cycles
 SCF Done:  E(UB3LYP) =  -5891.65173727     A.U. after   13 cycles
 SCF Done:  E(UB3LYP) =  -5891.65178866     A.U. after   13 cycles
 SCF Done:  E(UB3LYP) =  -5891.65180913     A.U. after   12 cycles
 SCF Done:  E(UB3LYP) =  -5891.65181270     A.U. after   11 cycles
 SCF Done:  E(UB3LYP) =  -5891.65181355     A.U. after   11 cycles
 SCF Done:  E(UB3LYP) =  -5891.65181390     A.U. after   10 cycles
 Optimization completed.
    -- Stationary point found.
 Normal termination of Gaussian 16 at Sat Feb 10 18:39:44 2024.

 ----------------------------------------------------------------------
 #P Geom=AllCheck Guess=TCheck SCRF=Check GenChk UB3LYP/6-311++G(d,p) F
 req
 ----------------------------------------------------------------------

 Structure from the checkpoint file:  "159-an.chk"
 -------
 Reduced
 -------
 Charge = -2 Multiplicity = 1

                          Input orientation:
 ---------------------------------------------------------------------
 Center     Atomic      Atomic             Coordinates (Angstroms)
 Number     Number       Type             X           Y           Z
 ---------------------------------------------------------------------
      1          7           0       -2.823390    1.427387    1.318076
      2          6           0       -2.489059    0.485832    0.368139
      3          6           0       -3.446382   -0.234200   -0.323876
      4         35           0       -5.329652    0.111454   -0.012013
      5          6           0       -3.119185   -1.223600   -1.279551
      6          6           0       -1.807955   -1.569385   -1.448052
      7         35           0       -1.531130   -2.779664   -2.965950
      8          6           0       -0.726519   -0.961530   -0.723533
      9          6           0        0.627484   -1.439933   -0.795935
     10          8           0        0.964053   -2.560810   -1.340256
     11          6           0        1.632885   -0.572574   -0.218316
     12          6           0        3.006572   -0.907704   -0.360854
     13          6           0        4.009436   -0.120057    0.159677
     14          6           0        3.675559    1.059353    0.874518
     15          6           0        2.353283    1.407644    1.037913
     16          6           0        1.295396    0.619373    0.504953
     17          6           0       -0.071982    1.013572    0.726710
     18          8           0       -0.328243    2.077941    1.454727
     19          6           0       -1.080867    0.193813    0.122017
     20          1           0       -2.010959    2.017213    1.559258
     21          1           0       -3.736573    1.849402    1.233714
     22          1           0       -3.897194   -1.667141   -1.884934
     23          1           0        3.241225   -1.813971   -0.906817
     24          1           0        5.050304   -0.397329    0.024839
     25          1           0        4.461068    1.682189    1.291143
     26          1           0        2.081823    2.302727    1.584400
 ---------------------------------------------------------------------

 SCF Done:  E(UB3LYP) =  -5891.65181390     A.U. after    2 cycles

 Alpha  occ. eigenvalues -- -482.82171-482.80614 -62.47454 -62.45891 -56.29462
 Alpha  occ. eigenvalues --  -56.29113 -56.29108 -56.27914 -56.27557 -56.27525
 Alpha  occ. eigenvalues --  -19.02947 -19.02051 -14.28938 -10.20769 -10.20307
 Alpha  occ. eigenvalues --  -10.19562 -10.18487 -10.18300 -10.16461 -10.15551
 Alpha  occ. eigenvalues --  -10.15423 -10.15396 -10.15336 -10.15056 -10.15021
 Alpha  occ. eigenvalues --  -10.14475 -10.14357  -8.68420  -8.66850  -6.51470
 Alpha  occ. eigenvalues --   -6.50311  -6.50299  -6.49938  -6.48762  -6.48664
 Alpha  occ. eigenvalues --   -2.62579  -2.62246  -2.62235  -2.61317  -2.61315
 Alpha  occ. eigenvalues --   -2.61037  -2.60723  -2.60648  -2.59713  -2.59711
 Alpha  occ. eigenvalues --   -0.94724  -0.93886  -0.90032  -0.83906  -0.82998
 Alpha  occ. eigenvalues --   -0.79605  -0.77344  -0.74357  -0.72769  -0.70988
 Alpha  occ. eigenvalues --   -0.69333  -0.64430  -0.61201  -0.59975  -0.55909
 Alpha  occ. eigenvalues --   -0.53409  -0.52929  -0.49514  -0.48671  -0.45721
 Alpha  occ. eigenvalues --   -0.44414  -0.43257  -0.42545  -0.41903  -0.40242
 Alpha  occ. eigenvalues --   -0.39837  -0.38779  -0.37040  -0.36870  -0.36593
 Alpha  occ. eigenvalues --   -0.36205  -0.34459  -0.33694  -0.32782  -0.32135
 Alpha  occ. eigenvalues --   -0.31283  -0.30536  -0.29604  -0.28849  -0.27298
 Alpha  occ. eigenvalues --   -0.26565  -0.23311  -0.22878  -0.22097  -0.21145
 Alpha  occ. eigenvalues --   -0.19406  -0.19236  -0.11396
 Alpha virt. eigenvalues --   -0.02836  -0.01957  -0.00595   0.00009   0.00282
 Alpha virt. eigenvalues --    0.00840   0.01671   0.01984   0.02503   0.02972
 Alpha virt. eigenvalues --    0.04138   0.04288   0.04810   0.05084   0.05357

  Beta  occ. eigenvalues -- -482.82171-482.80614 -62.47454 -62.45891 -56.29462
  Beta  occ. eigenvalues --  -56.29113 -56.29108 -56.27914 -56.27557 -56.27525
  Beta  occ. eigenvalues --  -19.02947 -19.02051 -14.28938 -10.20769 -10.20307
  Beta  occ. eigenvalues --  -10.19562 -10.18487 -10.18300 -10.16461 -10.15551
  Beta  occ. eigenvalues --  -10.15423 -10.15396 -10.15336 -10.15056 -10.15021
  Beta  occ. eigenvalues --  -10.14475 -10.14357  -8.68420  -8.66850  -6.51470
  Beta  occ. eigenvalues --   -6.50311  -6.50299  -6.49938  -6.48762  -6.48664
  Beta  occ. eigenvalues --   -2.62579  -2.62246  -2.62235  -2.61317  -2.61315
  Beta  occ. eigenvalues --   -2.61037  -2.60723  -2.60648  -2.59713  -2.59711
  Beta  occ. eigenvalues --   -0.94724  -0.93886  -0.90032  -0.83906  -0.82998
  Beta  occ. eigenvalues --   -0.79605  -0.77344  -0.74357  -0.72769  -0.70988
  Beta  occ. eigenvalues --   -0.69333  -0.64430  -0.61201  -0.59975  -0.55909
  Beta  occ. eigenvalues --   -0.53409  -0.52929  -0.49514  -0.48671  -0.45721
  Beta  occ. eigenvalues --   -0.44414  -0.43257  -0.42545  -0.41903  -0.40242
  Beta  occ. eigenvalues --   -0.39837  -0.38779  -0.37040  -0.36870  -0.36593
  Beta  occ. eigenvalues --   -0.36205  -0.34459  -0.33694  -0.32782  -0.32135
  Beta  occ. eigenvalues --   -0.31283  -0.30536  -0.29604  -0.28849  -0.27298
  Beta  occ. eigenvalues --   -0.26565  -0.23311  -0.22878  -0.22097  -0.21145
  Beta  occ. eigenvalues --   -0.19406  -0.19236  -0.11396
  Beta virt. eigenvalues --   -0.02836  -0.01957  -0.00595   0.00009   0.00282
  Beta virt. eigenvalues --    0.00840   0.01671   0.01984   0.02503   0.02972
  Beta virt. eigenvalues --    0.04138   0.04288   0.04810   0.05084   0.05357

 Mulliken charges and spin densities:
               1          2
     1  N   -0.338560  -0.000000
     2  C   -0.859364   0.000000
     3  C    0.356549  -0.000000
     4  Br  -0.244716   0.000000
     5  C   -0.027297  -0.000000
     6  C   -0.180547   0.000000
     7  Br  -0.228010   0.000000
     8  C    0.687261  -0.000000
     9  C   -1.222991   0.000000
    10  O   -0.562936  -0.000000
    11  C    0.027132  -0.000000
    12  C   -0.027254   0.000000
    13  C   -0.435063   0.000000
    14  C   -0.539458  -0.000000
    15  C    0.077516   0.000000
    16  C    0.264586  -0.000000
    17  C   -0.307112   0.000000
    18  O   -0.618166   0.000000
    19  C    0.715498   0.000000
    20  H    0.322349   0.000000
    21  H    0.245644  -0.000000
    22  H    0.260661  -0.000000
    23  H    0.157174  -0.000000
    24  H    0.160058   0.000000
    25  H    0.162077  -0.000000
    26  H    0.154967  -0.000000
 Sum of Mulliken charges =  -2.00000   0.00000

 Dipole moment (field-independent basis, Debye):
    X=              2.4050    Y=              5.8725    Z=              2.6250  Tot=              6.8674
 Quadrupole moment (field-independent basis, Debye-Ang):
   XX=           -178.9517   YY=           -184.0425   ZZ=           -168.3324
   XY=              0.5050   XZ=             -0.0743   YZ=            -25.0000

  Exact polarizability: 650.598  13.464 363.973  36.451 134.551 302.812
 Approx polarizability: 693.126   6.238 429.296  33.937 158.911 340.448

                      1                      2                      3
                      A                      A                      A
 Frequencies --     31.4469                60.8520                87.8449
 Red. masses --      9.1896                 9.8608                 6.3017
 Frc consts  --      0.0054                 0.0215                 0.0287
 IR Inten    --      4.8216                 8.3590                 6.4306

                      4                      5                      6
                      A                      A                      A
 Frequencies --    111.8965               124.0223               126.8731
 Red. masses --      9.1839                 7.0492                19.6581
 Frc consts  --      0.0678                 0.0639                 0.1864
 IR Inten    --      5.5532                 4.8710                 3.1247

                      7                      8                      9
                      A                      A                      A
 Frequencies --    141.8277               178.9579               212.9217
 Red. masses --      7.6911                 7.3369                15.6142
 Frc consts  --      0.0912                 0.1384                 0.4171
 IR Inten    --      1.8623                 1.6154                10.1017

                     10                     11                     12
                      A                      A                      A
 Frequencies --    230.3067               274.8759               281.2879
 Red. masses --     11.1030                 5.6802                 6.9421
 Frc consts  --      0.3470                 0.2529                 0.3236
 IR Inten    --      1.5173                 9.4692                 2.2470

                     13                     14                     15
                      A                      A                      A
 Frequencies --    300.3375               339.2211               385.5859
 Red. masses --      6.6165                 6.6842                 6.7317
 Frc consts  --      0.3516                 0.4532                 0.5897
 IR Inten    --     38.0169                 1.0954                11.6887

                     16                     17                     18
                      A                      A                      A
 Frequencies --    387.4655               415.5304               429.7732
 Red. masses --      6.8100                 4.3102                 2.6555
 Frc consts  --      0.6024                 0.4385                 0.2890
 IR Inten    --     14.3368                80.5689                89.4859

                     19                     20                     21
                      A                      A                      A
 Frequencies --    450.1252               451.5146               491.4778
 Red. masses --      4.7667                 2.0740                 7.5073
 Frc consts  --      0.5690                 0.2491                 1.0684
 IR Inten    --     15.0330               192.6302                11.6751

                     22                     23                     24
                      A                      A                      A
 Frequencies --    495.8773               525.2314               572.4986
 Red. masses --      4.0816                 6.6010                 5.0855
 Frc consts  --      0.5913                 1.0729                 0.9820
 IR Inten    --     59.5474                15.7098                11.3667

                     25                     26                     27
                      A                      A                      A
 Frequencies --    610.4890               636.2453               653.3055
 Red. masses --      6.0223                 5.7080                 7.4310
 Frc consts  --      1.3224                 1.3614                 1.8687
 IR Inten    --      1.3307                 4.1981               229.6910

                     28                     29                     30
                      A                      A                      A
 Frequencies --    666.6915               706.1845               710.2806
 Red. masses --      6.5190                 3.4565                 6.0733
 Frc consts  --      1.7072                 1.0156                 1.8052
 IR Inten    --     93.0737                40.3199                49.3946

                     31                     32                     33
                      A                      A                      A
 Frequencies --    726.2725               777.2878               788.7549
 Red. masses --      4.5746                 1.7425                 2.3818
 Frc consts  --      1.4217                 0.6203                 0.8731
 IR Inten    --     13.0025               122.5385                67.5315

                     34                     35                     36
                      A                      A                      A
 Frequencies --    797.2475               812.3648               813.2786
 Red. masses --      4.4675                 1.4082                 2.0505
 Frc consts  --      1.6730                 0.5475                 0.7991
 IR Inten    --     31.7841                42.6487               188.5757

                     37                     38                     39
                      A                      A                      A
 Frequencies --    864.5737               888.7850               933.7146
 Red. masses --      1.5857                 7.7720                 6.9628
 Frc consts  --      0.6984                 3.6172                 3.5765
 IR Inten    --      0.1310                39.0719                43.8991

                     40                     41                     42
                      A                      A                      A
 Frequencies --    978.8024               990.5430              1009.1357
 Red. masses --      1.3348                 1.2734                 4.7174
 Frc consts  --      0.7534                 0.7361                 2.8305
 IR Inten    --      3.5295                 1.8905                84.3606

                     43                     44                     45
                      A                      A                      A
 Frequencies --   1026.7158              1085.6445              1114.8749
 Red. masses --      2.0829                 3.4620                 2.0709
 Frc consts  --      1.2937                 2.4041                 1.5166
 IR Inten    --    144.9705               513.5243                89.3141

                     46                     47                     48
                      A                      A                      A
 Frequencies --   1125.9216              1166.6696              1189.4921
 Red. masses --      1.6612                 2.6697                 1.7616
 Frc consts  --      1.2407                 2.1410                 1.4685
 IR Inten    --    419.1258                34.3854               211.4567

                     49                     50                     51
                      A                      A                      A
 Frequencies --   1202.1147              1237.4210              1250.8794
 Red. masses --      2.1737                 3.9384                 3.3374
 Frc consts  --      1.8507                 3.5531                 3.0767
 IR Inten    --    585.1635               607.4568                36.9211

                     52                     53                     54
                      A                      A                      A
 Frequencies --   1272.7992              1328.8302              1352.7047
 Red. masses --      2.9936                 2.3685                 8.9559
 Frc consts  --      2.8573                 2.4641                 9.6553
 IR Inten    --     51.9722               621.9416               271.4027

                     55                     56                     57
                      A                      A                      A
 Frequencies --   1371.2755              1385.1427              1424.6295
 Red. masses --      3.0801                 2.9889                 4.7870
 Frc consts  --      3.4124                 3.3787                 5.7243
 IR Inten    --   1041.1976                75.2232                47.5902

                     58                     59                     60
                      A                      A                      A
 Frequencies --   1442.3680              1471.6880              1489.7240
 Red. masses --      6.0219                 2.7690                 4.4009
 Frc consts  --      7.3814                 3.5335                 5.7545
 IR Inten    --    778.6181               182.0949                62.4138

                     61                     62                     63
                      A                      A                      A
 Frequencies --   1527.7106              1560.0356              1569.9878
 Red. masses --      5.1166                 3.3799                 1.8256
 Frc consts  --      7.0358                 4.8464                 2.6512
 IR Inten    --    108.5419               558.4829                44.6720

                     64                     65                     66
                      A                      A                      A
 Frequencies --   1584.3650              1614.3814              3143.6820
 Red. masses --      5.2343                 5.4566                 1.0852
 Frc consts  --      7.7414                 8.3788                 6.3190
 IR Inten    --    149.4151                 7.1089                24.5375

                     67                     68                     69
                      A                      A                      A
 Frequencies --   3159.2781              3160.3444              3180.7973
 Red. masses --      1.0872                 1.0753                 1.0915
 Frc consts  --      6.3934                 6.3277                 6.5064
 IR Inten    --    241.3794               348.1693                35.0409

                     70                     71                     72
                      A                      A                      A
 Frequencies --   3185.7440              3203.2341              3610.9816
 Red. masses --      1.0926                 1.0913                 1.0814
 Frc consts  --      6.5332                 6.5972                 8.3077
 IR Inten    --     65.8310                 8.3609                71.0050

 - Thermochemistry -
 -------------------
 Temperature   298.150 Kelvin.  Pressure   1.00000 Atm.
 Atom     1 has atomic number  7 and mass  14.00307

 Molecular mass:   378.88435 amu.
 Principal axes and moments of inertia in atomic units:
                           1         2         3
     Eigenvalues --  5735.36855********************
           X            0.99773  -0.05912  -0.03223
           Y            0.02143   0.73253  -0.68040
           Z            0.06384   0.67817   0.73213
 This molecule is an asymmetric top.
 Rotational symmetry number  1.
 Warning -- assumption of classical behavior for rotation
           may cause significant error
 Rotational temperatures (Kelvin)      0.01510     0.00823     0.00538
 Rotational constants (GHZ):           0.31467     0.17154     0.11205
 Zero-point vibrational energy     448068.2 (Joules/Mol)
                                  107.09086 (Kcal/Mol)
 Warning -- explicit consideration of  25 degrees of freedom as
           vibrations may cause significant error
 Vibrational temperatures:     45.25    87.55   126.39   160.99   178.44
          (Kelvin)            182.54   204.06   257.48   306.35   331.36
                              395.49   404.71   432.12   488.06   554.77
                              557.48   597.86   618.35   647.63   649.63
                              707.13   713.46   755.69   823.70   878.36
                              915.42   939.96   959.22  1016.04  1021.94
                             1044.94  1118.34  1134.84  1147.06  1168.81
                             1170.13  1243.93  1278.76  1343.41  1408.28
                             1425.17  1451.92  1477.22  1562.00  1604.06
                             1619.95  1678.58  1711.41  1729.57  1780.37
                             1799.74  1831.27  1911.89  1946.24  1972.96
                             1992.91  2049.72  2075.25  2117.43  2143.38
                             2198.03  2244.54  2258.86  2279.55  2322.73
                             4523.06  4545.50  4547.03  4576.46  4583.58
                             4608.74  5195.40

 Zero-point correction=                           0.170660 (Hartree/Particle)
 Thermal correction to Energy=                    0.186436
 Thermal correction to Enthalpy=                  0.187380
 Thermal correction to Gibbs Free Energy=         0.125864
 Sum of electronic and zero-point Energies=          -5891.481154
 Sum of electronic and thermal Energies=             -5891.465378
 Sum of electronic and thermal Enthalpies=           -5891.464433
 Sum of electronic and thermal Free Energies=        -5891.525950

                     E (Thermal)             CV                S
                      KCal/Mol        Cal/Mol-Kelvin    Cal/Mol-Kelvin
 Total                  116.991             60.731            129.471
 Electronic               0.000              0.000              0.000
 Translational            0.889              2.981             43.689
 Rotational               0.889              2.981             35.229
 Vibrational            115.213             54.769             50.554
 Vibration     1          0.594              1.983              5.736
 Vibration     2          0.597              1.973              4.429
 Vibration     3          0.601              1.958              3.707
 Vibration     4          0.607              1.940              3.236
 Vibration     5          0.610              1.929              3.037
 Vibration     6          0.611              1.926              2.993
 Vibration     7          0.615              1.911              2.779
 Vibration     8          0.629              1.868              2.339
 Vibration     9          0.644              1.821              2.018
 Vibration    10          0.652              1.795              1.877
 Vibration    11          0.677              1.720              1.565
 Vibration    12          0.681              1.708              1.526
 Vibration    13          0.693              1.673              1.415
 Vibration    14          0.719              1.597              1.216
 Vibration    15          0.754              1.501              1.017
 Vibration    16          0.756              1.497              1.010
 Vibration    17          0.779              1.437              0.907
 Vibration    18          0.791              1.405              0.859
 Vibration    19          0.809              1.361              0.795
 Vibration    20          0.810              1.358              0.791
 Vibration    21          0.847              1.269              0.680
 Vibration    22          0.851              1.259              0.669
 Vibration    23          0.880              1.194              0.598
 Vibration    24          0.929              1.091              0.499
 Vibration    25          0.970              1.010              0.432

                           ! Non-Optimized Parameters !
 Normal termination of Gaussian 16 at Sat Feb 10 19:26:29 2024.
