 Q-Chem 5.4, Q-Chem, Inc., Pleasanton, CA (2021)
 Q-Chem 5.4.0 for Intel X86 EM64T Linux

User input:
--------------------------------------------------------------
$molecule
-2 1
Cl                -3.1048820000      0.6513360000      0.1062150000
C                 -1.3128600000      0.3223360000      0.0448720000
C                 -0.9248800000     -1.0159300000      0.0326190000
C                  0.4424000000     -1.4568420000     -0.0140090000
O                  0.7951820000     -2.6970270000     -0.0253070000
C                  1.3128210000     -0.3223260000     -0.0448700000
C                  0.9248740000      1.0159310000     -0.0326180000
C                 -0.4424120000      1.4568150000      0.0140140000
O                 -0.7951770000      2.6970350000      0.0253070000
Cl                 3.1049370000     -0.6513190000     -0.1062220000
H                 -1.6805630000     -1.7948410000      0.0592440000
H                  1.6805610000      1.7948320000     -0.0592450000
$end
$rem
MAX_SCF_CYCLES=200
BASIS  =  6-311++G(d,p)
GUI  =  2
JOB_TYPE  =  SP
METHOD  =  B3LYP
SOLVENT_METHOD = COSMO
$end
$solvent
dielectric 37.219
opticaldielectric 1.43
$end

--------------------------------------------------------------

             Standard Nuclear Orientation (Angstroms)
    I     Atom           X                Y                Z
 ----------------------------------------------------------------
    1      Cl      3.1221456574    -0.5727651949     0.0000109235
    2      C       1.3379200488    -0.1987521071     0.0000077462
    3      C       0.4721804126    -1.2905988834    -0.0000432788
    4      C      -0.9610053318    -1.1810051717    -0.0000747534
    5      O      -1.7570369427    -2.1953893576     0.0000533539
    6      C      -1.3378689375     0.1987359240    -0.0000095513
    7      C      -0.4721632668     1.2905868632     0.0000413464
    8      C       0.9610175583     1.1809649099     0.0000690510
    9      O       1.7570465300     2.1953879905    -0.0000546702
   10      Cl     -3.1221791396     0.5727911634    -0.0000069686
   11      H       0.8773373362    -2.2977313960    -0.0000909472
   12      H      -0.8773277381     2.2977116596     0.0000908839
 ----------------------------------------------------------------

   10   -1300.8130488555      6.79e-06  Convergence criterion met
 Total energy in the final basis set =    -1300.8130488555
    5   -1301.1046044119      7.87e-06  Convergence criterion met
 Total energy in the final basis set =    -1301.1046044119

                    Orbital Energies (a.u.)
 --------------------------------------------------------------

 Alpha MOs
 -- Occupied --
********-101.5304 -19.0349 -19.0348 -10.1970 -10.1970 -10.1964 -10.1964
-10.1458 -10.1458  -9.4446  -9.4446  -7.2083  -7.2083  -7.2000  -7.2000
 -7.1996  -7.1996  -0.9529  -0.9492  -0.8431  -0.8316  -0.7755  -0.6981
 -0.6634  -0.5793  -0.5354  -0.4612  -0.4484  -0.4230  -0.3918  -0.3899
 -0.3808  -0.3602  -0.3484  -0.3471  -0.3196  -0.3105  -0.2992  -0.2958
 -0.2431  -0.2211  -0.2178  -0.2175  -0.1402

          Ground-State Mulliken Net Atomic Charges

     Atom                 Charge (a.u.)
  ----------------------------------------
      1 Cl                    0.114344
      2 C                     1.120762
      3 C                    -0.871705
      4 C                    -0.833428
      5 O                    -0.708991
      6 C                     1.120530
      7 C                    -0.872951
      8 C                    -0.834564
      9 O                    -0.708531
     10 Cl                    0.114539
     11 H                     0.179925
     12 H                     0.180070
  ----------------------------------------
  Sum of atomic charges =    -2.000000

                    Cartesian Multipole Moments
 -----------------------------------------------------------------
    Charge (ESU x 10^10)
                -9.6064
    Dipole Moment (Debye)
         X       0.0038      Y       0.0019      Z       0.0001
       Tot       0.0043
    Quadrupole Moments (Debye-Ang)
        XX    -124.5977     XY     -26.3226     YY    -114.3499
        XZ      -0.0013     YZ       0.0010     ZZ     -79.2341

 Total job time:  12.35s(wall), 87.84s(cpu)
        *  Thank you very much for using Q-Chem.  Have a nice day.  *
