 Gaussian 16, Revision A.03,
 Gaussian 16:  ES64L-G16RevA.03 25-Dec-2016

 ----------------------------------------------------------------------
 #P UB3LYP/6-311++G(d,p) nosym opt freq SCRF=(PCM,Solvent=n,n-DiMethylF
 ormamide)
 ----------------------------------------------------------------------

 -------
 Radical
 -------
 Symbolic Z-matrix:
 Charge = -1 Multiplicity = 2

 SCF Done:  E(UB3LYP) =  -653.106299226     A.U. after   21 cycles
 SCF Done:  E(UB3LYP) =  -653.107320047     A.U. after   19 cycles
 SCF Done:  E(UB3LYP) =  -653.108125915     A.U. after   19 cycles
 SCF Done:  E(UB3LYP) =  -653.108258079     A.U. after   18 cycles
 SCF Done:  E(UB3LYP) =  -653.108352775     A.U. after   17 cycles
 SCF Done:  E(UB3LYP) =  -653.108506789     A.U. after   16 cycles
 SCF Done:  E(UB3LYP) =  -653.108578677     A.U. after   17 cycles
 SCF Done:  E(UB3LYP) =  -653.108582912     A.U. after   14 cycles
 SCF Done:  E(UB3LYP) =  -653.108583719     A.U. after   13 cycles
 SCF Done:  E(UB3LYP) =  -653.108583915     A.U. after   12 cycles
 SCF Done:  E(UB3LYP) =  -653.108722293     A.U. after   17 cycles
 SCF Done:  E(UB3LYP) =  -653.108511610     A.U. after   21 cycles
 SCF Done:  E(UB3LYP) =  -653.108734793     A.U. after   20 cycles
 SCF Done:  E(UB3LYP) =  -653.108751296     A.U. after   17 cycles
 SCF Done:  E(UB3LYP) =  -653.108754438     A.U. after   16 cycles
 SCF Done:  E(UB3LYP) =  -653.108757059     A.U. after   16 cycles
 SCF Done:  E(UB3LYP) =  -653.108757115     A.U. after   16 cycles
 SCF Done:  E(UB3LYP) =  -653.108757597     A.U. after   16 cycles
 SCF Done:  E(UB3LYP) =  -653.108757631     A.U. after   12 cycles
 Optimization completed.
    -- Stationary point found.
 Normal termination of Gaussian 16 at Sun Feb 11 18:57:33 2024.

 ----------------------------------------------------------------------
 #P Geom=AllCheck Guess=TCheck SCRF=Check GenChk UB3LYP/6-311++G(d,p) F
 req
 ----------------------------------------------------------------------

 Structure from the checkpoint file:  "344-rad.chk"
 -------
 Radical
 -------
 Charge = -1 Multiplicity = 2

                          Input orientation:
 ---------------------------------------------------------------------
 Center     Atomic      Atomic             Coordinates (Angstroms)
 Number     Number       Type             X           Y           Z
 ---------------------------------------------------------------------
      1          8           0        0.037664   -2.411387   -0.987546
      2          6           0        0.019562   -1.204701   -0.534735
      3          6           0        1.321308   -0.607615   -0.184348
      4          6           0        2.419616   -1.512679   -0.170132
      5          6           0        3.721482   -1.122671    0.115165
      6          6           0        4.010231    0.215189    0.390341
      7          6           0        2.957094    1.131272    0.371096
      8          6           0        1.628337    0.762952    0.102465
      9          6           0        0.666369    1.859466    0.106460
     10          6           0       -0.679090    1.856207    0.065571
     11          6           0       -1.634116    0.755661    0.000456
     12          6           0       -2.978471    1.118178    0.186925
     13          6           0       -4.027450    0.198617    0.135813
     14          6           0       -3.717131   -1.136858   -0.128108
     15          6           0       -2.398674   -1.521499   -0.332306
     16          6           0       -1.304246   -0.613098   -0.270783
     17          1           0        2.201331   -2.546851   -0.397287
     18          1           0        4.513765   -1.865127    0.117587
     19          1           0        5.021650    0.540706    0.604953
     20          1           0        3.164165    2.179205    0.566167
     21          1           0        1.127208    2.840919    0.190288
     22          1           0       -1.148703    2.835514    0.121234
     23          1           0       -3.201201    2.164579    0.372863
     24          1           0       -5.051495    0.519651    0.288272
     25          1           0       -4.505506   -1.881655   -0.180233
     26          1           0       -2.163701   -2.553978   -0.550176
 ---------------------------------------------------------------------

 SCF Done:  E(UB3LYP) =  -653.108757631     A.U. after    2 cycles

 Alpha  occ. eigenvalues --  -19.04381 -10.19949 -10.17735 -10.17726 -10.17041
 Alpha  occ. eigenvalues --  -10.17034 -10.16993 -10.16916 -10.16422 -10.16418
 Alpha  occ. eigenvalues --  -10.16368 -10.16366 -10.16005 -10.15994 -10.15311
 Alpha  occ. eigenvalues --  -10.15308  -0.96506  -0.85433  -0.84516  -0.79416
 Alpha  occ. eigenvalues --   -0.75204  -0.74669  -0.73647  -0.71096  -0.63820
 Alpha  occ. eigenvalues --   -0.63124  -0.58734  -0.58606  -0.55151  -0.54443
 Alpha  occ. eigenvalues --   -0.49355  -0.48064  -0.46996  -0.45376  -0.44115
 Alpha  occ. eigenvalues --   -0.42600  -0.41038  -0.40868  -0.40629  -0.39622
 Alpha  occ. eigenvalues --   -0.38359  -0.37170  -0.36418  -0.34865  -0.33928
 Alpha  occ. eigenvalues --   -0.33916  -0.32588  -0.32001  -0.30994  -0.26362
 Alpha  occ. eigenvalues --   -0.24769  -0.24321  -0.21901  -0.21250  -0.10751
 Alpha virt. eigenvalues --   -0.05207  -0.00938  -0.00380   0.00063   0.00479
 Alpha virt. eigenvalues --    0.00954   0.02100   0.02312   0.03931   0.04114
 Alpha virt. eigenvalues --    0.04447   0.04818   0.05223   0.05229   0.06385

  Beta  occ. eigenvalues --  -19.03836 -10.19493 -10.17612 -10.17602 -10.17106
  Beta  occ. eigenvalues --  -10.17099 -10.16982 -10.16905 -10.16502 -10.16499
  Beta  occ. eigenvalues --  -10.16401 -10.16400 -10.15798 -10.15784 -10.15123
  Beta  occ. eigenvalues --  -10.15120  -0.95450  -0.85210  -0.84324  -0.79249
  Beta  occ. eigenvalues --   -0.74999  -0.74245  -0.73412  -0.70959  -0.63081
  Beta  occ. eigenvalues --   -0.63024  -0.58587  -0.58404  -0.54970  -0.54079
  Beta  occ. eigenvalues --   -0.49130  -0.48001  -0.46875  -0.45208  -0.43997
  Beta  occ. eigenvalues --   -0.42474  -0.40899  -0.40701  -0.40441  -0.38751
  Beta  occ. eigenvalues --   -0.37937  -0.37138  -0.35900  -0.34599  -0.33772
  Beta  occ. eigenvalues --   -0.32391  -0.32010  -0.31929  -0.30438  -0.25783
  Beta  occ. eigenvalues --   -0.24041  -0.22835  -0.21397  -0.20549
  Beta virt. eigenvalues --   -0.05188  -0.04764  -0.00370   0.00140   0.00470
  Beta virt. eigenvalues --    0.00521   0.00996   0.02111   0.02292   0.03922
  Beta virt. eigenvalues --    0.04112   0.04566   0.04881   0.05359   0.06133

 Mulliken charges and spin densities:
               1          2
     1  O   -0.519377   0.213442
     2  C   -1.089734   0.306129
     3  C    0.839892  -0.069241
     4  C   -0.117687   0.185157
     5  C   -0.351095  -0.058094
     6  C   -0.491957   0.162723
     7  C   -0.229793  -0.042842
     8  C    0.088203   0.029356
     9  C   -0.237938   0.050863
    10  C   -0.236716   0.049118
    11  C    0.084175   0.030510
    12  C   -0.238750  -0.044664
    13  C   -0.491498   0.164758
    14  C   -0.350872  -0.059184
    15  C   -0.124013   0.185980
    16  C    0.841827  -0.067125
    17  H    0.168165  -0.011974
    18  H    0.174127   0.003933
    19  H    0.167397  -0.011680
    20  H    0.141687   0.001008
    21  H    0.161382   0.000264
    22  H    0.161599   0.000390
    23  H    0.141486   0.001089
    24  H    0.167348  -0.011803
    25  H    0.174069   0.003976
    26  H    0.168075  -0.012087
 Sum of Mulliken charges =  -1.00000   1.00000

 Dipole moment (field-independent basis, Debye):
    X=             -0.0973    Y=              7.3099    Z=              2.9879  Tot=              7.8975
 Quadrupole moment (field-independent basis, Debye-Ang):
   XX=           -104.3027   YY=           -109.1325   ZZ=           -107.5507
   XY=              0.2006   XZ=              0.1150   YZ=             -5.6975

  Exact polarizability: 655.696  -0.565 296.178  15.877  29.396 155.684
 Approx polarizability: 661.824  -0.770 346.973  15.359  36.953 175.805

                      1                      2                      3
                      A                      A                      A
 Frequencies --     35.8177                84.9375               128.8580
 Red. masses --      5.8619                 3.9330                 4.9366
 Frc consts  --      0.0044                 0.0167                 0.0483
 IR Inten    --      5.2939                 5.1592                 5.1730

                      4                      5                      6
                      A                      A                      A
 Frequencies --    197.6818               214.2614               254.3280
 Red. masses --      4.8459                 3.9688                 4.7515
 Frc consts  --      0.1116                 0.1073                 0.1811
 IR Inten    --     15.6009                 4.2435                 7.7847

                      7                      8                      9
                      A                      A                      A
 Frequencies --    319.6965               321.6226               382.8019
 Red. masses --      6.8548                 5.5085                 3.8839
 Frc consts  --      0.4128                 0.3357                 0.3353
 IR Inten    --      4.2196                 3.4680                34.1413

                     10                     11                     12
                      A                      A                      A
 Frequencies --    397.7499               412.9950               484.6618
 Red. masses --      4.1474                 8.9300                 3.4826
 Frc consts  --      0.3866                 0.8974                 0.4820
 IR Inten    --      1.2073                 8.3166                 7.1293

                     13                     14                     15
                      A                      A                      A
 Frequencies --    494.6726               504.0814               549.9016
 Red. masses --      3.4052                 7.1469                 5.5182
 Frc consts  --      0.4909                 1.0700                 0.9831
 IR Inten    --     14.7884                 4.6031                 5.4109

                     16                     17                     18
                      A                      A                      A
 Frequencies --    584.1732               585.8669               621.2353
 Red. masses --      5.5850                 3.6444                 4.6440
 Frc consts  --      1.1229                 0.7370                 1.0560
 IR Inten    --      4.1965                20.4956                40.4386

                     19                     20                     21
                      A                      A                      A
 Frequencies --    622.9107               674.7222               719.0450
 Red. masses --      6.5423                 6.0440                 1.5501
 Frc consts  --      1.4957                 1.6211                 0.4722
 IR Inten    --     30.4941                 0.6603                63.6846

                     22                     23                     24
                      A                      A                      A
 Frequencies --    731.9646               735.1444               754.9806
 Red. masses --      3.7979                 2.1017                 2.1137
 Frc consts  --      1.1989                 0.6692                 0.7098
 IR Inten    --    139.9290                49.2927                92.1011

                     25                     26                     27
                      A                      A                      A
 Frequencies --    756.5654               809.8225               818.0578
 Red. masses --      2.3318                 1.5212                 3.0548
 Frc consts  --      0.7864                 0.5878                 1.2045
 IR Inten    --     33.0594               101.0238              2211.9305

                     28                     29                     30
                      A                      A                      A
 Frequencies --    823.2686               867.4914               870.9957
 Red. masses --      5.4125                 1.7955                 1.7309
 Frc consts  --      2.1614                 0.7961                 0.7737
 IR Inten    --      9.7007                33.5002                18.7092

                     31                     32                     33
                      A                      A                      A
 Frequencies --    885.8512               930.9070               934.2998
 Red. masses --      3.4817                 1.3964                 1.3711
 Frc consts  --      1.6098                 0.7130                 0.7052
 IR Inten    --    532.4634                 0.9211                21.3693

                     34                     35                     36
                      A                      A                      A
 Frequencies --    963.5564               980.5690               983.5352
 Red. masses --      5.0351                 1.3028                 1.3033
 Frc consts  --      2.7543                 0.7381                 0.7428
 IR Inten    --    712.5360                14.8479                22.2078

                     37                     38                     39
                      A                      A                      A
 Frequencies --   1003.4432              1052.9422              1068.5403
 Red. masses --      1.2578                 2.8238                 1.9130
 Frc consts  --      0.7462                 1.8445                 1.2869
 IR Inten    --      0.4825                 4.7645                 3.1558

                     40                     41                     42
                      A                      A                      A
 Frequencies --   1104.2004              1121.8830              1156.0235
 Red. masses --      2.4301                 1.9424                 2.5851
 Frc consts  --      1.7457                 1.4404                 2.0354
 IR Inten    --     43.3790                13.1627                 0.9226

                     43                     44                     45
                      A                      A                      A
 Frequencies --   1163.6666              1170.6524              1172.2332
 Red. masses --      1.3819                 1.7438                 1.2151
 Frc consts  --      1.1025                 1.4080                 0.9838
 IR Inten    --      0.1638                 5.0423               129.2907

                     46                     47                     48
                      A                      A                      A
 Frequencies --   1246.1806              1257.4555              1259.5861
 Red. masses --      2.2695                 1.5187                 1.6747
 Frc consts  --      2.0765                 1.4148                 1.5655
 IR Inten    --    148.6688                 0.6964                93.3346

                     49                     50                     51
                      A                      A                      A
 Frequencies --   1292.2462              1321.9507              1358.5830
 Red. masses --      2.2699                 6.0522                 2.0000
 Frc consts  --      2.2333                 6.2315                 2.1749
 IR Inten    --     13.1930               108.4570                15.1487

                     52                     53                     54
                      A                      A                      A
 Frequencies --   1407.0426              1412.8337              1446.0263
 Red. masses --      8.2792                 2.0051                 2.0168
 Frc consts  --      9.6572                 2.3581                 2.4847
 IR Inten    --    564.9889               308.6821                38.0504

                     55                     56                     57
                      A                      A                      A
 Frequencies --   1462.5557              1485.6628              1498.3872
 Red. masses --      2.1751                 1.8093                 2.5110
 Frc consts  --      2.7413                 2.3529                 3.3215
 IR Inten    --     43.5072                56.6409                28.5758

                     58                     59                     60
                      A                      A                      A
 Frequencies --   1542.7642              1561.7759              1582.7901
 Red. masses --      3.8445                 5.5645                 4.4491
 Frc consts  --      5.3912                 7.9967                 6.5670
 IR Inten    --     38.8097                 3.2922               519.0690

                     61                     62                     63
                      A                      A                      A
 Frequencies --   1607.7033              1683.1924              3117.5044
 Red. masses --      5.1594                 7.0475                 1.0834
 Frc consts  --      7.8571                11.7639                 6.2036
 IR Inten    --      2.2292                 0.3968                 4.4702

                     64                     65                     66
                      A                      A                      A
 Frequencies --   3138.3913              3146.7505              3148.0756
 Red. masses --      1.0915                 1.0857                 1.0861
 Frc consts  --      6.3344                 6.3339                 6.3420
 IR Inten    --     28.8268                43.1879                30.3515

                     67                     68                     69
                      A                      A                      A
 Frequencies --   3152.0423              3152.2871              3179.7185
 Red. masses --      1.0893                 1.0893                 1.0949
 Frc consts  --      6.3763                 6.3776                 6.5223
 IR Inten    --     28.6182               107.6504                86.3691

                     70                     71                     72
                      A                      A                      A
 Frequencies --   3179.9417              3203.6937              3205.3584
 Red. masses --      1.0949                 1.0902                 1.0901
 Frc consts  --      6.5231                 6.5924                 6.5986
 IR Inten    --      8.9842                12.7452                11.2733

 - Thermochemistry -
 -------------------
 Temperature   298.150 Kelvin.  Pressure   1.00000 Atm.
 Atom     1 has atomic number  8 and mass  15.99491

 Molecular mass:   206.07317 amu.
 Principal axes and moments of inertia in atomic units:
                           1         2         3
     Eigenvalues --  1427.588344722.804716078.80099
           X            0.99948  -0.00853  -0.03098
           Y            0.00207   0.97922  -0.20279
           Z            0.03207   0.20263   0.97873
 This molecule is an asymmetric top.
 Rotational symmetry number  1.
 Warning -- assumption of classical behavior for rotation
           may cause significant error
 Rotational temperatures (Kelvin)      0.06067     0.01834     0.01425
 Rotational constants (GHZ):           1.26419     0.38213     0.29689
 Zero-point vibrational energy     523384.9 (Joules/Mol)
                                  125.09198 (Kcal/Mol)
 Warning -- explicit consideration of  17 degrees of freedom as
           vibrations may cause significant error
 Vibrational temperatures:     51.53   122.21   185.40   284.42   308.27
          (Kelvin)            365.92   459.97   462.74   550.77   572.27
                              594.21   697.32   711.72   725.26   791.19
                              840.49   842.93   893.82   896.23   970.77
                             1034.55  1053.13  1057.71  1086.25  1088.53
                             1165.15  1177.00  1184.50  1248.13  1253.17
                             1274.54  1339.37  1344.25  1386.34  1410.82
                             1415.09  1443.73  1514.95  1537.39  1588.70
                             1614.14  1663.26  1674.26  1684.31  1686.58
                             1792.98  1809.20  1812.26  1859.25  1901.99
                             1954.70  2024.42  2032.75  2080.51  2104.29
                             2137.54  2155.84  2219.69  2247.05  2277.28
                             2313.13  2421.74  4485.39  4515.45  4527.47
                             4529.38  4535.09  4535.44  4574.91  4575.23
                             4609.40  4611.80

 Zero-point correction=                           0.199347 (Hartree/Particle)
 Thermal correction to Energy=                    0.210877
 Thermal correction to Enthalpy=                  0.211821
 Thermal correction to Gibbs Free Energy=         0.160801
 Sum of electronic and zero-point Energies=           -652.909411
 Sum of electronic and thermal Energies=              -652.897881
 Sum of electronic and thermal Enthalpies=            -652.896937
 Sum of electronic and thermal Free Energies=         -652.947956

                     E (Thermal)             CV                S
                      KCal/Mol        Cal/Mol-Kelvin    Cal/Mol-Kelvin
 Total                  132.327             48.412            107.379
 Electronic               0.000              0.000              1.377
 Translational            0.889              2.981             41.873
 Rotational               0.889              2.981             32.083
 Vibrational            130.550             42.451             32.046
 Vibration     1          0.594              1.982              5.478
 Vibration     2          0.601              1.960              3.773
 Vibration     3          0.611              1.924              2.963
 Vibration     4          0.637              1.843              2.155
 Vibration     5          0.644              1.819              2.007
 Vibration     6          0.665              1.755              1.700
 Vibration     7          0.706              1.636              1.312
 Vibration     8          0.707              1.632              1.302
 Vibration     9          0.752              1.507              1.028
 Vibration    10          0.764              1.475              0.971
 Vibration    11          0.777              1.442              0.916
 Vibration    12          0.841              1.284              0.698
 Vibration    13          0.850              1.262              0.672
 Vibration    14          0.859              1.241              0.648
 Vibration    15          0.905              1.140              0.544
 Vibration    16          0.941              1.066              0.478
 Vibration    17          0.943              1.062              0.475

 Optimization completed.
    -- Stationary point found.
 Normal termination of Gaussian 16 at Sun Feb 11 19:52:37 2024.
