 Gaussian 16, Revision A.03,
 Gaussian 16:  ES64L-G16RevA.03 25-Dec-2016

 --------------------------------------
 #P UB3LYP/6-311++G(d,p) nosym opt freq
 --------------------------------------

 -------
 Reduced
 -------
 Symbolic Z-matrix:
 Charge = -2 Multiplicity = 1

 SCF Done:  E(UB3LYP) =  -610.443368172     A.U. after   62 cycles
 SCF Done:  E(UB3LYP) =  -610.461573154     A.U. after   43 cycles
 SCF Done:  E(UB3LYP) =  -610.465231676     A.U. after   39 cycles
 SCF Done:  E(UB3LYP) =  -610.465809972     A.U. after   33 cycles
 SCF Done:  E(UB3LYP) =  -610.465932584     A.U. after   33 cycles
 SCF Done:  E(UB3LYP) =  -610.466010559     A.U. after   31 cycles
 SCF Done:  E(UB3LYP) =  -610.466163884     A.U. after   32 cycles
 SCF Done:  E(UB3LYP) =  -610.466256407     A.U. after   31 cycles
 SCF Done:  E(UB3LYP) =  -610.466286050     A.U. after   28 cycles
 SCF Done:  E(UB3LYP) =  -610.466307303     A.U. after   29 cycles
 SCF Done:  E(UB3LYP) =  -610.466319119     A.U. after   27 cycles
 Optimization completed.
    -- Stationary point found.
 Normal termination of Gaussian 16 at Sat Jan  6 02:35:15 2024.

 ----------------------------------------------------------------------
 #P Geom=AllCheck Guess=TCheck SCRF=Check GenChk UB3LYP/6-311++G(d,p) F
 req
 ----------------------------------------------------------------------

 Structure from the checkpoint file:  "325-an.chk"
 -------
 Reduced
 -------
 Charge = -2 Multiplicity = 1

                          Input orientation:
 ---------------------------------------------------------------------
 Center     Atomic      Atomic             Coordinates (Angstroms)
 Number     Number       Type             X           Y           Z
 ---------------------------------------------------------------------
      1          6           0       -1.789453    2.798199   -0.736541
      2          6           0       -2.901001    2.004217   -0.522591
      3          6           0       -2.732697    0.632489   -0.174707
      4          6           0       -0.464125    2.312757   -0.615052
      5          6           0       -0.302733    0.927551   -0.186039
      6          6           0       -1.460248    0.120438   -0.017917
      7          6           0        0.654235    3.203660   -0.891090
      8          6           0        2.031473    2.635751   -0.707330
      9          6           0        2.103982    1.270412   -0.257810
     10          6           0        1.006416    0.460116    0.000834
     11          8           0        0.480944    4.402827   -1.265787
     12          8           0        3.077074    3.324559   -0.914318
     13          1           0       -1.894650    3.842122   -1.018104
     14          1           0       -3.902256    2.416541   -0.636381
     15          1           0       -3.602183   -0.009799   -0.040140
     16          1           0       -1.320529   -0.923087    0.250225
     17          1           0        3.107055    0.887732   -0.064282
     18          8           0        1.190033   -0.873623    0.426642
     19          1           0        2.000612   -1.194491    0.005826
 ---------------------------------------------------------------------

 SCF Done:  E(UB3LYP) =  -610.466319119     A.U. after    3 cycles

 Alpha  occ. eigenvalues --  -18.89859 -18.77653 -18.77578  -9.95092  -9.93314
 Alpha  occ. eigenvalues --   -9.93045  -9.91873  -9.91813  -9.91479  -9.91042
 Alpha  occ. eigenvalues --   -9.90584  -9.89382  -9.88657  -0.79497  -0.70578
 Alpha  occ. eigenvalues --   -0.67844  -0.59132  -0.52949  -0.48961  -0.45664
 Alpha  occ. eigenvalues --   -0.40853  -0.35465  -0.32609  -0.31762  -0.26247
 Alpha  occ. eigenvalues --   -0.24083  -0.23377  -0.18522  -0.17832  -0.16652
 Alpha  occ. eigenvalues --   -0.15605  -0.14836  -0.12675  -0.11743  -0.10752
 Alpha  occ. eigenvalues --   -0.10441  -0.08897  -0.07832  -0.07159  -0.03935
 Alpha  occ. eigenvalues --   -0.01504   0.01028   0.03946   0.05409   0.06849
 Alpha  occ. eigenvalues --    0.13824
 Alpha virt. eigenvalues --    0.15679   0.16530   0.17699   0.19854   0.21221
 Alpha virt. eigenvalues --    0.22072   0.22537   0.25716   0.25986   0.26688
 Alpha virt. eigenvalues --    0.26883   0.28054   0.28492   0.28702   0.29303

  Beta  occ. eigenvalues --  -18.89859 -18.77653 -18.77578  -9.95092  -9.93314
  Beta  occ. eigenvalues --   -9.93045  -9.91873  -9.91813  -9.91479  -9.91042
  Beta  occ. eigenvalues --   -9.90584  -9.89382  -9.88657  -0.79497  -0.70578
  Beta  occ. eigenvalues --   -0.67844  -0.59132  -0.52949  -0.48961  -0.45664
  Beta  occ. eigenvalues --   -0.40853  -0.35465  -0.32609  -0.31762  -0.26247
  Beta  occ. eigenvalues --   -0.24083  -0.23377  -0.18522  -0.17832  -0.16652
  Beta  occ. eigenvalues --   -0.15605  -0.14836  -0.12675  -0.11743  -0.10752
  Beta  occ. eigenvalues --   -0.10441  -0.08897  -0.07832  -0.07159  -0.03935
  Beta  occ. eigenvalues --   -0.01504   0.01028   0.03946   0.05409   0.06849
  Beta  occ. eigenvalues --    0.13824
  Beta virt. eigenvalues --    0.15679   0.16530   0.17699   0.19854   0.21221
  Beta virt. eigenvalues --    0.22072   0.22537   0.25716   0.25986   0.26688
  Beta virt. eigenvalues --    0.26883   0.28054   0.28492   0.28702   0.29303

 Mulliken charges and spin densities:
               1          2
     1  C    0.251289  -0.000000
     2  C    0.055827   0.000000
     3  C    0.654538   0.000000
     4  C   -0.390141  -0.000000
     5  C   -0.162849   0.000000
     6  C    0.607125   0.000000
     7  C   -0.514970   0.000000
     8  C   -0.538228   0.000000
     9  C    0.166385  -0.000000
    10  C    0.048568   0.000000
    11  O   -0.477237   0.000000
    12  O   -0.494085   0.000000
    13  H    0.149874   0.000000
    14  H   -0.121127  -0.000000
    15  H   -0.759616  -0.000000
    16  H    0.014195  -0.000000
    17  H   -0.003644   0.000000
    18  O   -0.337662  -0.000000
    19  H   -0.148241   0.000000
 Sum of Mulliken charges =  -2.00000  -0.00000

 Dipole moment (field-independent basis, Debye):
    X=             -2.9173    Y=            -20.2033    Z=              5.7413  Tot=             21.2048
 Quadrupole moment (field-independent basis, Debye-Ang):
   XX=           -151.3466   YY=           -177.9620   ZZ=            -97.4381
   XY=            -26.9353   XZ=              7.0023   YZ=             23.3015

  Exact polarizability:3305.688-398.1491146.168-153.793 -64.731 136.256
 Approx polarizability:2819.252 564.1221780.323-183.826-206.205 201.197

                      1                      2                      3
                      A                      A                      A
 Frequencies --     78.6872               129.8771               172.0021
 Red. masses --     10.9500                 4.1296                 3.6830
 Frc consts  --      0.0399                 0.0410                 0.0642
 IR Inten    --      0.9081                 8.5207                10.8718

                      4                      5                      6
                      A                      A                      A
 Frequencies --    214.7735               227.5426               255.2780
 Red. masses --      1.4519                 3.2563                 5.9308
 Frc consts  --      0.0395                 0.0993                 0.2277
 IR Inten    --    489.2302                23.7996                13.2328

                      7                      8                      9
                      A                      A                      A
 Frequencies --    326.9084               355.8190               380.9219
 Red. masses --      7.4095                13.3639                 7.3753
 Frc consts  --      0.4665                 0.9969                 0.6305
 IR Inten    --     72.0841                19.7676                28.3168

                     10                     11                     12
                      A                      A                      A
 Frequencies --    412.4489               426.2623               456.9120
 Red. masses --     10.4658                 3.2263                 8.7203
 Frc consts  --      1.0490                 0.3454                 1.0726
 IR Inten    --     78.1001                38.8189               186.7285

                     13                     14                     15
                      A                      A                      A
 Frequencies --    506.2320               511.4507               584.0770
 Red. masses --      3.5895                 7.4844                 4.3906
 Frc consts  --      0.5420                 1.1535                 0.8825
 IR Inten    --     26.2112                41.7197               347.3150

                     16                     17                     18
                      A                      A                      A
 Frequencies --    639.2201               667.6445               695.5335
 Red. masses --      6.5281                 5.5118                 4.8152
 Frc consts  --      1.5716                 1.4475                 1.3725
 IR Inten    --     74.8853                44.5019                11.5852

                     19                     20                     21
                      A                      A                      A
 Frequencies --    711.4970               726.8598               766.3400
 Red. masses --      6.4141                 1.3777                 2.1257
 Frc consts  --      1.9131                 0.4288                 0.7355
 IR Inten    --     25.0512               140.4956               273.0238

                     22                     23                     24
                      A                      A                      A
 Frequencies --    792.3607               801.0749               817.2600
 Red. masses --      2.8423                 1.4631                 3.9782
 Frc consts  --      1.0514                 0.5532                 1.5655
 IR Inten    --    156.7917               131.2877                80.3836

                     25                     26                     27
                      A                      A                      A
 Frequencies --    926.3314               958.1854               967.3918
 Red. masses --      1.2551                 1.2816                 6.8221
 Frc consts  --      0.6345                 0.6933                 3.7616
 IR Inten    --     99.8922                37.2023               514.5188

                     28                     29                     30
                      A                      A                      A
 Frequencies --   1005.6564              1013.8945              1113.1811
 Red. masses --      2.3415                 4.5972                 1.5995
 Frc consts  --      1.3952                 2.7844                 1.1678
 IR Inten    --    289.7640              1385.5964               729.1798

                     31                     32                     33
                      A                      A                      A
 Frequencies --   1130.2958              1171.9587              1193.5399
 Red. masses --      1.3036                 1.3479                 1.6486
 Frc consts  --      0.9813                 1.0908                 1.3837
 IR Inten    --    530.5046              1074.1274               831.1104

                     34                     35                     36
                      A                      A                      A
 Frequencies --   1213.6655              1228.2371              1275.1504
 Red. masses --      2.9011                 3.6742                 2.3291
 Frc consts  --      2.5177                 3.2657                 2.2314
 IR Inten    --    191.0328               126.3904               850.8193

                     37                     38                     39
                      A                      A                      A
 Frequencies --   1342.5238              1412.4319              1424.8376
 Red. masses --      4.7558                 2.6090                 4.4074
 Frc consts  --      5.0503                 3.0666                 5.2719
 IR Inten    --    116.1767              1902.6387               204.0498

                     40                     41                     42
                      A                      A                      A
 Frequencies --   1452.9165              1481.6276              1511.7775
 Red. masses --      3.3311                 6.3526                 4.7542
 Frc consts  --      4.1430                 8.2163                 6.4018
 IR Inten    --   2357.9977               507.6934              3838.2577

                     43                     44                     45
                      A                      A                      A
 Frequencies --   1527.0607              1546.6525              1591.3595
 Red. masses --      4.8442                 6.2180                 5.7254
 Frc consts  --      6.6556                 8.7637                 8.5427
 IR Inten    --    135.2846              1844.1517                55.4057

                     46                     47                     48
                      A                      A                      A
 Frequencies --   3086.1796              3090.3154              3112.0798
 Red. masses --      1.0872                 1.0829                 1.0899
 Frc consts  --      6.1010                 6.0934                 6.2192
 IR Inten    --    305.5056               250.0641               135.3135

                     49                     50                     51
                      A                      A                      A
 Frequencies --   3143.0587              3150.5133              3658.7559
 Red. masses --      1.0910                 1.0907                 1.0656
 Frc consts  --      6.3499                 6.3787                 8.4041
 IR Inten    --     16.6865                45.7535             21477.2993

 - Thermochemistry -
 -------------------
 Temperature   298.150 Kelvin.  Pressure   1.00000 Atm.
 Atom     1 has atomic number  6 and mass  12.00000

 Molecular mass:   174.03169 amu.
 Principal axes and moments of inertia in atomic units:
                           1         2         3
     Eigenvalues --  1494.882952278.995863770.94467
           X            0.91073  -0.41288  -0.01042
           Y            0.39753   0.86947   0.29325
           Z           -0.11202  -0.27121   0.95598
 This molecule is an asymmetric top.
 Rotational symmetry number  1.
 Warning -- assumption of classical behavior for rotation
           may cause significant error
 Rotational temperatures (Kelvin)      0.05794     0.03801     0.02297
 Rotational constants (GHZ):           1.20728     0.79190     0.47859
 Zero-point vibrational energy     343247.9 (Joules/Mol)
                                   82.03821 (Kcal/Mol)
 Warning -- explicit consideration of  15 degrees of freedom as
           vibrations may cause significant error
 Vibrational temperatures:    113.21   186.86   247.47   309.01   327.38
          (Kelvin)            367.29   470.35   511.94   548.06   593.42
                              613.30   657.39   728.35   735.86   840.36
                              919.70   960.59  1000.72  1023.69  1045.79
                             1102.59  1140.03  1152.57  1175.85  1332.78
                             1378.62  1391.86  1446.92  1458.77  1601.62
                             1626.24  1686.19  1717.24  1746.19  1767.16
                             1834.66  1931.59  2032.17  2050.02  2090.42
                             2131.73  2175.11  2197.10  2225.29  2289.61
                             4440.32  4446.27  4477.59  4522.16  4532.89
                             5264.13

 Zero-point correction=                           0.130736 (Hartree/Particle)
 Thermal correction to Energy=                    0.140974
 Thermal correction to Enthalpy=                  0.141918
 Thermal correction to Gibbs Free Energy=         0.095182
 Sum of electronic and zero-point Energies=           -610.335583
 Sum of electronic and thermal Energies=              -610.325345
 Sum of electronic and thermal Enthalpies=            -610.324401
 Sum of electronic and thermal Free Energies=         -610.371137

                     E (Thermal)             CV                S
                      KCal/Mol        Cal/Mol-Kelvin    Cal/Mol-Kelvin
 Total                   88.462             40.723             98.364
 Electronic               0.000              0.000              0.000
 Translational            0.889              2.981             41.370
 Rotational               0.889              2.981             30.930
 Vibrational             86.685             34.761             26.064
 Vibration     1          0.600              1.963              3.923
 Vibration     2          0.612              1.923              2.948
 Vibration     3          0.626              1.877              2.413
 Vibration     4          0.645              1.818              2.003
 Vibration     5          0.651              1.799              1.898
 Vibration     6          0.666              1.754              1.694
 Vibration     7          0.711              1.622              1.275
 Vibration     8          0.731              1.563              1.140
 Vibration     9          0.751              1.511              1.036
 Vibration    10          0.776              1.443              0.918
 Vibration    11          0.788              1.413              0.871
 Vibration    12          0.815              1.346              0.775
 Vibration    13          0.861              1.236              0.643
 Vibration    14          0.867              1.225              0.630
 Vibration    15          0.941              1.066              0.478

 Optimization completed.
    -- Stationary point found.
 Normal termination of Gaussian 16 at Sat Jan  6 02:52:36 2024.
