 Q-Chem 5.4, Q-Chem, Inc., Pleasanton, CA (2021)
 Q-Chem 5.4.0 for Intel X86 EM64T Linux

User input:
--------------------------------------------------------------
$molecule
0 1
C                 -0.5459740000     -2.1947820000      1.0014700000
C                  0.8418410000     -2.4922140000      0.8457510000
C                  1.7777510000     -1.4951110000      0.7215900000
C                  1.3428900000     -0.0203870000      0.7484740000
C                 -0.0448990000      0.2770610000      0.9043910000
C                 -0.9807760000     -0.7200350000      1.0287490000
O                 -1.4248570000     -3.0524430000      1.1163870000
O                  2.2217000000      0.8373010000      0.6331500000
N                 -2.3069080000     -0.6098890000      1.1808970000
N                  3.1039060000     -1.6052690000      0.5696370000
C                 -3.1783990000      0.5811360000      1.2621230000
C                 -4.6075060000      0.0425290000      1.4370540000
C                 -2.8075630000      1.4418050000      2.4849720000
C                 -3.1007060000      1.3993350000     -0.0410130000
C                  3.9753850000     -2.7963350000      0.4881430000
C                  3.8972390000     -3.6152240000      1.7907830000
C                  5.4045860000     -2.2577160000      0.3141110000
C                  3.6049110000     -3.6563190000     -0.7353140000
H                  1.0960560000     -3.5416390000      0.8327490000
H                 -0.2991890000      1.3264750000      0.9172470000
H                 -2.7491590000     -1.5248080000      1.2461590000
H                  3.5461230000     -0.6903980000      0.5037570000
H                 -4.8972480000     -0.5823100000      0.5874360000
H                 -5.3158900000      0.8703880000      1.5052380000
H                 -4.6926910000     -0.5525700000      2.3507350000
H                 -2.8842960000      0.8534380000      3.4025090000
H                 -3.4929160000      2.2898750000      2.5621070000
H                 -1.7929780000      1.8358240000      2.4206900000
H                 -3.3840920000      0.7813990000     -0.8964640000
H                 -2.0995870000      1.7904170000     -0.2242290000
H                 -3.7879850000      2.2476410000      0.0129600000
H                  2.8962800000     -4.0070650000      1.9732010000
H                  4.1797200000     -2.9975950000      2.6467590000
H                  4.5850870000     -4.4630720000      1.7367790000
H                  5.6940380000     -1.6334420000      1.1642410000
H                  5.4901740000     -1.6620370000     -0.5991590000
H                  6.1129570000     -3.0855610000      0.2456290000
H                  2.5900910000     -4.0498540000     -0.6717710000
H                  4.2898980000     -4.5046880000     -0.8124260000
H                  3.6824660000     -3.0675640000     -1.6525310000
$end

$rem
BASIS  =  6-311++G(d,p)
GUI  =  2
JOB_TYPE  =  SP
METHOD  =  B3LYP
SCF_CONVERGENCE  = 8
SOLVENT_METHOD = sm12
$end

$smx
solvent dimethylformamide
charges CM5
$end

--------------------------------------------------------------

             Standard Nuclear Orientation (Angstroms)
    I     Atom           X                Y                Z
 ----------------------------------------------------------------
    1      C      -0.5459740000    -2.1947820000     1.0014700000
    2      C       0.8418410000    -2.4922140000     0.8457510000
    3      C       1.7777510000    -1.4951110000     0.7215900000
    4      C       1.3428900000    -0.0203870000     0.7484740000
    5      C      -0.0448990000     0.2770610000     0.9043910000
    6      C      -0.9807760000    -0.7200350000     1.0287490000
    7      O      -1.4248570000    -3.0524430000     1.1163870000
    8      O       2.2217000000     0.8373010000     0.6331500000
    9      N      -2.3069080000    -0.6098890000     1.1808970000
   10      N       3.1039060000    -1.6052690000     0.5696370000
   11      C      -3.1783990000     0.5811360000     1.2621230000
   12      C      -4.6075060000     0.0425290000     1.4370540000
   13      C      -2.8075630000     1.4418050000     2.4849720000
   14      C      -3.1007060000     1.3993350000    -0.0410130000
   15      C       3.9753850000    -2.7963350000     0.4881430000
   16      C       3.8972390000    -3.6152240000     1.7907830000
   17      C       5.4045860000    -2.2577160000     0.3141110000
   18      C       3.6049110000    -3.6563190000    -0.7353140000
   19      H       1.0960560000    -3.5416390000     0.8327490000
   20      H      -0.2991890000     1.3264750000     0.9172470000
   21      H      -2.7491590000    -1.5248080000     1.2461590000
   22      H       3.5461230000    -0.6903980000     0.5037570000
   23      H      -4.8972480000    -0.5823100000     0.5874360000
   24      H      -5.3158900000     0.8703880000     1.5052380000
   25      H      -4.6926910000    -0.5525700000     2.3507350000
   26      H      -2.8842960000     0.8534380000     3.4025090000
   27      H      -3.4929160000     2.2898750000     2.5621070000
   28      H      -1.7929780000     1.8358240000     2.4206900000
   29      H      -3.3840920000     0.7813990000    -0.8964640000
   30      H      -2.0995870000     1.7904170000    -0.2242290000
   31      H      -3.7879850000     2.2476410000     0.0129600000
   32      H       2.8962800000    -4.0070650000     1.9732010000
   33      H       4.1797200000    -2.9975950000     2.6467590000
   34      H       4.5850870000    -4.4630720000     1.7367790000
   35      H       5.6940380000    -1.6334420000     1.1642410000
   36      H       5.4901740000    -1.6620370000    -0.5991590000
   37      H       6.1129570000    -3.0855610000     0.2456290000
   38      H       2.5900910000    -4.0498540000    -0.6717710000
   39      H       4.2898980000    -4.5046880000    -0.8124260000
   40      H       3.6824660000    -3.0675640000    -1.6525310000
 ----------------------------------------------------------------

   14    -806.9350773551      7.91e-09  Convergence criterion met
 Total energy in the final basis set =     -806.9512761893

                    Orbital Energies (a.u.)
 --------------------------------------------------------------

 Alpha MOs
 -- Occupied --
-19.1109 -19.1109 -14.3519 -14.3519 -10.2649 -10.2649 -10.2459 -10.2459
-10.2333 -10.2333 -10.1702 -10.1702 -10.1646 -10.1646 -10.1640 -10.1640
-10.1640 -10.1640  -1.0481  -1.0455  -0.9620  -0.9619  -0.8402  -0.8181
 -0.7949  -0.7502  -0.6991  -0.6990  -0.6973  -0.6973  -0.6805  -0.6402
 -0.6060  -0.5950  -0.5628  -0.5436  -0.5167  -0.5060  -0.4841  -0.4726
 -0.4631  -0.4590  -0.4491  -0.4424  -0.4401  -0.4384  -0.4379  -0.4278
 -0.4137  -0.4061  -0.3992  -0.3980  -0.3892  -0.3889  -0.3806  -0.3742
 -0.3739  -0.3641  -0.3622  -0.3581  -0.3425  -0.3417  -0.3335  -0.3230
 -0.2782  -0.2662  -0.2463  -0.2193

          Ground-State Mulliken Net Atomic Charges

     Atom                 Charge (a.u.)
  ----------------------------------------
      1 C                    -0.855172
      2 C                    -0.335014
      3 C                     0.290877
      4 C                    -0.855278
      5 C                    -0.335136
      6 C                     0.290728
      7 O                    -0.347807
      8 O                    -0.347809
      9 N                     0.076712
     10 N                     0.076722
     11 C                    -0.221830
     12 C                    -0.070422
     13 C                    -0.301689
     14 C                    -0.303109
     15 C                    -0.221852
     16 C                    -0.303073
     17 C                    -0.070362
     18 C                    -0.301750
     19 H                     0.207311
     20 H                     0.207291
     21 H                     0.364670
     22 H                     0.364680
     23 H                     0.177465
     24 H                     0.209644
     25 H                     0.177254
     26 H                     0.126033
     27 H                     0.234989
     28 H                     0.104429
     29 H                     0.126019
     30 H                     0.104869
     31 H                     0.234929
     32 H                     0.104838
     33 H                     0.125979
     34 H                     0.235007
     35 H                     0.177440
     36 H                     0.177292
     37 H                     0.209644
     38 H                     0.104471
     39 H                     0.234935
     40 H                     0.126073
  ----------------------------------------
  Sum of atomic charges =     0.000000

                    Cartesian Multipole Moments
 -----------------------------------------------------------------
    Charge (ESU x 10^10)
                 0.0000
    Dipole Moment (Debye)
         X       0.0005      Y      -0.0004      Z       0.0003
       Tot       0.0007
    Quadrupole Moments (Debye-Ang)
        XX     -84.4790     XY     -24.3967     YY    -116.4328
        XZ      -2.7941     YZ       2.8888     ZZ    -111.7744

 Total job time:  1237.53s(wall), 9723.76s(cpu)
        *  Thank you very much for using Q-Chem.  Have a nice day.  *
