 Gaussian 16, Revision A.03,
 Gaussian 16:  ES64L-G16RevA.03 25-Dec-2016

 ----------------------------------------------------------------------
 #P UB3LYP/6-311++G(d,p) nosym opt freq SCRF=(PCM,Solvent=n,n-DiMethylF
 ormamide)
 ----------------------------------------------------------------------

 -------
 Radical
 -------
 Symbolic Z-matrix:
 Charge = -1 Multiplicity = 2

 SCF Done:  E(UB3LYP) =  -917.038784570     A.U. after   19 cycles
 SCF Done:  E(UB3LYP) =  -917.039113715     A.U. after   16 cycles
 SCF Done:  E(UB3LYP) =  -917.039414338     A.U. after   16 cycles
 SCF Done:  E(UB3LYP) =  -917.039618651     A.U. after   15 cycles
 SCF Done:  E(UB3LYP) =  -917.039625825     A.U. after   13 cycles
 SCF Done:  E(UB3LYP) =  -917.039654540     A.U. after   12 cycles
 SCF Done:  E(UB3LYP) =  -917.039663200     A.U. after   11 cycles
 SCF Done:  E(UB3LYP) =  -917.039664632     A.U. after   10 cycles
 SCF Done:  E(UB3LYP) =  -917.039664995     A.U. after   10 cycles
 SCF Done:  E(UB3LYP) =  -917.039665147     A.U. after   10 cycles
 SCF Done:  E(UB3LYP) =  -917.039665256     A.U. after    8 cycles
 SCF Done:  E(UB3LYP) =  -917.039665469     A.U. after   10 cycles
 SCF Done:  E(UB3LYP) =  -917.039665609     A.U. after    8 cycles
 SCF Done:  E(UB3LYP) =  -917.039665718     A.U. after    7 cycles
 SCF Done:  E(UB3LYP) =  -917.039665778     A.U. after    9 cycles
 Optimization completed.
    -- Stationary point found.
 Normal termination of Gaussian 16 at Sat Feb 10 17:45:49 2024.

 ----------------------------------------------------------------------
 #P Geom=AllCheck Guess=TCheck SCRF=Check GenChk UB3LYP/6-311++G(d,p) F
 req
 ----------------------------------------------------------------------

 Structure from the checkpoint file:  "143-rad.chk"
 -------
 Radical
 -------
 Charge = -1 Multiplicity = 2

                          Input orientation:
 ---------------------------------------------------------------------
 Center     Atomic      Atomic             Coordinates (Angstroms)
 Number     Number       Type             X           Y           Z
 ---------------------------------------------------------------------
      1          6           0        4.220457    1.570904    0.244382
      2          6           0        3.240653    0.503243    0.633681
      3          8           0        2.882963    0.245721    1.758779
      4          8           0        2.815859   -0.181439   -0.460513
      5          6           0        1.764029   -1.097294   -0.323423
      6          6           0        2.116139   -2.427046   -0.384902
      7          6           0        1.119595   -3.418911   -0.331954
      8          6           0       -0.202277   -3.047935   -0.220047
      9          6           0       -0.583484   -1.688935   -0.163440
     10          6           0       -2.009306   -1.380683   -0.057154
     11          8           0       -2.879560   -2.294493   -0.007930
     12          6           0       -2.378306    0.028994   -0.013785
     13          6           0       -3.740344    0.393838    0.091317
     14          6           0       -4.123988    1.718932    0.133282
     15          6           0       -3.146711    2.735082    0.070580
     16          6           0       -1.810916    2.401347   -0.031946
     17          6           0       -1.392561    1.051597   -0.076493
     18          6           0        0.038900    0.754133   -0.179891
     19          8           0        0.882213    1.690945   -0.230031
     20          6           0        0.415299   -0.659971   -0.217713
     21          1           0        4.943735    1.187298   -0.476817
     22          1           0        4.731007    1.947122    1.128597
     23          1           0        3.667631    2.383581   -0.232678
     24          1           0        3.163808   -2.687796   -0.475696
     25          1           0        1.398669   -4.465301   -0.378556
     26          1           0       -0.987356   -3.791880   -0.175985
     27          1           0       -4.476551   -0.399246    0.138516
     28          1           0       -5.173374    1.980758    0.214876
     29          1           0       -3.446249    3.777002    0.104230
     30          1           0       -1.049973    3.170434   -0.079286
 ---------------------------------------------------------------------

 SCF Done:  E(UB3LYP) =  -917.039665778     A.U. after    1 cycles

 Alpha  occ. eigenvalues --  -19.17341 -19.11869 -19.07699 -19.07646 -10.31255
 Alpha  occ. eigenvalues --  -10.24162 -10.23022 -10.22606 -10.18561 -10.17994
 Alpha  occ. eigenvalues --  -10.17813 -10.17734 -10.17589 -10.17550 -10.17465
 Alpha  occ. eigenvalues --  -10.17421 -10.17374 -10.17216 -10.17161 -10.17118
 Alpha  occ. eigenvalues --   -1.11704  -1.03298  -1.00298  -1.00024  -0.86661
 Alpha  occ. eigenvalues --   -0.85486  -0.79092  -0.77765  -0.75179  -0.74461
 Alpha  occ. eigenvalues --   -0.73698  -0.67415  -0.64991  -0.62850  -0.62018
 Alpha  occ. eigenvalues --   -0.57657  -0.54766  -0.53676  -0.52113  -0.49763
 Alpha  occ. eigenvalues --   -0.48627  -0.48492  -0.47489  -0.46454  -0.45879
 Alpha  occ. eigenvalues --   -0.45144  -0.42644  -0.42528  -0.41824  -0.41350
 Alpha  occ. eigenvalues --   -0.41225  -0.40643  -0.40020  -0.38901  -0.38242
 Alpha  occ. eigenvalues --   -0.37667  -0.36766  -0.35977  -0.35147  -0.34138
 Alpha  occ. eigenvalues --   -0.33800  -0.32348  -0.29056  -0.27144  -0.25842
 Alpha  occ. eigenvalues --   -0.25635  -0.25274  -0.24714  -0.23727  -0.14520
 Alpha virt. eigenvalues --   -0.05739  -0.02594  -0.00905  -0.00383  -0.00007
 Alpha virt. eigenvalues --    0.00408   0.00723   0.01970   0.02277   0.03188
 Alpha virt. eigenvalues --    0.03578   0.04220   0.04388   0.04697   0.04969

  Beta  occ. eigenvalues --  -19.17339 -19.11868 -19.07139 -19.07077 -10.31252
  Beta  occ. eigenvalues --  -10.24157 -10.22857 -10.22432 -10.18481 -10.17896
  Beta  occ. eigenvalues --  -10.17752 -10.17680 -10.17589 -10.17477 -10.17401
  Beta  occ. eigenvalues --  -10.17381 -10.17331 -10.17217 -10.17153 -10.17119
  Beta  occ. eigenvalues --   -1.11695  -1.03289  -0.99318  -0.99021  -0.86403
  Beta  occ. eigenvalues --   -0.85364  -0.78703  -0.77662  -0.74978  -0.74278
  Beta  occ. eigenvalues --   -0.73583  -0.66710  -0.64859  -0.62654  -0.61829
  Beta  occ. eigenvalues --   -0.57534  -0.54536  -0.53483  -0.51986  -0.49730
  Beta  occ. eigenvalues --   -0.48557  -0.48419  -0.47220  -0.46377  -0.45739
  Beta  occ. eigenvalues --   -0.45078  -0.42496  -0.41868  -0.41684  -0.40921
  Beta  occ. eigenvalues --   -0.40727  -0.40380  -0.39787  -0.38804  -0.37748
  Beta  occ. eigenvalues --   -0.36526  -0.35978  -0.35676  -0.34977  -0.33672
  Beta  occ. eigenvalues --   -0.32970  -0.32247  -0.29039  -0.25501  -0.25044
  Beta  occ. eigenvalues --   -0.24724  -0.24601  -0.24191  -0.23214
  Beta virt. eigenvalues --   -0.08616  -0.04770  -0.01552  -0.00752  -0.00353
  Beta virt. eigenvalues --    0.00093   0.00410   0.00728   0.01975   0.02284
  Beta virt. eigenvalues --    0.03202   0.03606   0.04221   0.04426   0.04865

 Mulliken charges and spin densities:
               1          2
     1  C   -0.480487   0.001549
     2  C    0.039599   0.000535
     3  O   -0.301545  -0.000775
     4  O    0.002159  -0.001442
     5  C   -0.082131   0.039059
     6  C    0.122614   0.041818
     7  C   -0.463723   0.049538
     8  C   -0.019572   0.026640
     9  C    0.520738   0.052811
    10  C   -0.567351   0.098482
    11  O   -0.456132   0.208095
    12  C   -0.054441   0.006083
    13  C   -0.020202   0.029581
    14  C   -0.480880   0.028079
    15  C   -0.427347   0.036405
    16  C    0.090194   0.029381
    17  C    0.058665   0.024655
    18  C   -0.319190   0.081297
    19  O   -0.435539   0.215498
    20  C    0.482633   0.049881
    21  H    0.177725   0.000343
    22  H    0.167845  -0.000187
    23  H    0.195363  -0.000401
    24  H    0.195598  -0.003420
    25  H    0.196199  -0.003679
    26  H    0.168111  -0.001372
    27  H    0.163790  -0.001852
    28  H    0.181461  -0.002400
    29  H    0.184461  -0.003004
    30  H    0.161385  -0.001200
 Sum of Mulliken charges =  -1.00000   1.00000

 Dipole moment (field-independent basis, Debye):
    X=              4.4373    Y=              2.2767    Z=             -1.8787  Tot=              5.3294
 Quadrupole moment (field-independent basis, Debye-Ang):
   XX=           -129.2836   YY=           -126.6369   ZZ=           -129.4210
   XY=            -17.1523   XZ=             -6.3835   YZ=              1.3004

  Exact polarizability: 435.251 -39.682 425.258 -15.523  10.214 165.492
 Approx polarizability: 469.187 -16.774 472.754 -22.784   6.747 195.201

                      1                      2                      3
                      A                      A                      A
 Frequencies --     44.8539                51.5709                60.7321
 Red. masses --      7.1760                 6.1774                 1.9906
 Frc consts  --      0.0085                 0.0097                 0.0043
 IR Inten    --      5.0339                 6.0883                 6.6604

                      4                      5                      6
                      A                      A                      A
 Frequencies --     73.7921               102.2538               119.1947
 Red. masses --      2.1811                 2.4555                 4.9050
 Frc consts  --      0.0070                 0.0151                 0.0411
 IR Inten    --      5.2449                 4.5284                 1.5150

                      7                      8                      9
                      A                      A                      A
 Frequencies --    140.9380               163.8101               218.6410
 Red. masses --      6.5126                 7.6003                 5.0557
 Frc consts  --      0.0762                 0.1202                 0.1424
 IR Inten    --      1.8724                 4.4884                 1.8596

                     10                     11                     12
                      A                      A                      A
 Frequencies --    221.4796               288.4102               302.2108
 Red. masses --      5.6425                 5.9852                 4.6950
 Frc consts  --      0.1631                 0.2933                 0.2526
 IR Inten    --      9.2136                 1.1189                 5.8537

                     13                     14                     15
                      A                      A                      A
 Frequencies --    316.1116               353.5717               392.7166
 Red. masses --      6.4427                 6.3205                12.0509
 Frc consts  --      0.3793                 0.4655                 1.0950
 IR Inten    --      0.7562                 1.3392                24.7907

                     16                     17                     18
                      A                      A                      A
 Frequencies --    415.3904               418.9728               436.9052
 Red. masses --      6.4620                 6.0627                 3.4194
 Frc consts  --      0.6569                 0.6270                 0.3846
 IR Inten    --      2.9865                 0.0979                 1.7320

                     19                     20                     21
                      A                      A                      A
 Frequencies --    465.9997               495.1773               499.6034
 Red. masses --      6.9398                 9.9391                 3.9431
 Frc consts  --      0.8879                 1.4359                 0.5799
 IR Inten    --      2.1203                 3.0820                 0.4576

                     22                     23                     24
                      A                      A                      A
 Frequencies --    546.2965               550.4884               583.7797
 Red. masses --      5.0500                 4.7846                 3.1448
 Frc consts  --      0.8880                 0.8543                 0.6314
 IR Inten    --     10.0228                21.1370                18.9805

                     25                     26                     27
                      A                      A                      A
 Frequencies --    613.6317               637.9193               656.7103
 Red. masses --      6.2917                 4.8488                 6.1330
 Frc consts  --      1.3958                 1.1626                 1.5584
 IR Inten    --     32.2993                 5.7440                 9.1290

                     28                     29                     30
                      A                      A                      A
 Frequencies --    690.6542               695.8382               709.4908
 Red. masses --      4.4569                 5.1999                 3.3705
 Frc consts  --      1.2526                 1.4834                 0.9996
 IR Inten    --     39.0952                26.1154                62.6897

                     31                     32                     33
                      A                      A                      A
 Frequencies --    739.9664               777.9200               792.9947
 Red. masses --      2.9804                 1.8073                 3.2471
 Frc consts  --      0.9615                 0.6444                 1.2030
 IR Inten    --      1.8418                 2.5069                40.9679

                     34                     35                     36
                      A                      A                      A
 Frequencies --    795.4742               818.8555               864.0709
 Red. masses --      2.9114                 3.2411                 5.0810
 Frc consts  --      1.0854                 1.2804                 2.2351
 IR Inten    --     30.1600                16.7431                58.3838

                     37                     38                     39
                      A                      A                      A
 Frequencies --    886.8893               905.9389               931.6641
 Red. masses --      1.4578                 2.3267                 3.4830
 Frc consts  --      0.6756                 1.1251                 1.7812
 IR Inten    --      0.0544                43.1035                23.5157

                     40                     41                     42
                      A                      A                      A
 Frequencies --    937.7137               990.7168               994.0630
 Red. masses --      4.0182                 1.3536                 1.3110
 Frc consts  --      2.0817                 0.7828                 0.7633
 IR Inten    --     17.1396                 1.4360                 2.6179

                     43                     44                     45
                      A                      A                      A
 Frequencies --    999.6091              1002.9211              1032.9344
 Red. masses --      3.0241                 1.2874                 2.4030
 Frc consts  --      1.7803                 0.7629                 1.5106
 IR Inten    --      7.5032                 0.0278               157.8583

                     46                     47                     48
                      A                      A                      A
 Frequencies --   1045.7209              1054.6479              1082.5326
 Red. masses --      2.0983                 1.7974                 1.9286
 Frc consts  --      1.3519                 1.1779                 1.3316
 IR Inten    --     91.1044                41.4234                44.5133

                     49                     50                     51
                      A                      A                      A
 Frequencies --   1113.2806              1145.9655              1171.6314
 Red. masses --      2.2066                 1.4272                 1.1794
 Frc consts  --      1.6113                 1.1043                 0.9539
 IR Inten    --     33.2353                30.4477                28.9487

                     52                     53                     54
                      A                      A                      A
 Frequencies --   1181.4797              1202.8918              1209.3107
 Red. masses --      2.9796                 2.3845                 3.2429
 Frc consts  --      2.4505                 2.0328                 2.7942
 IR Inten    --     71.4225                82.0691               635.0163

                     55                     56                     57
                      A                      A                      A
 Frequencies --   1231.3283              1238.0204              1247.8070
 Red. masses --      2.9843                 3.2471                 2.0288
 Frc consts  --      2.6659                 2.9323                 1.8612
 IR Inten    --    128.7647                89.4274               216.6774

                     58                     59                     60
                      A                      A                      A
 Frequencies --   1338.0419              1355.9858              1363.5807
 Red. masses --      4.7202                 3.4841                10.6882
 Frc consts  --      4.9791                 3.7744                11.7089
 IR Inten    --     21.1026                14.0843                 0.9645

                     61                     62                     63
                      A                      A                      A
 Frequencies --   1386.6219              1403.4186              1438.2997
 Red. masses --      1.3261                 3.5711                 2.7357
 Frc consts  --      1.5023                 4.1440                 3.3344
 IR Inten    --    189.2386              1077.6459               265.3214

                     64                     65                     66
                      A                      A                      A
 Frequencies --   1460.6554              1465.0537              1479.1682
 Red. masses --      1.0538                 1.0605                 2.7458
 Frc consts  --      1.3247                 1.3411                 3.5396
 IR Inten    --     31.5338                11.5798                51.9341

                     67                     68                     69
                      A                      A                      A
 Frequencies --   1486.8010              1509.8220              1524.6672
 Red. masses --      3.2542                 4.4515                 6.5638
 Frc consts  --      4.2384                 5.9788                 8.9899
 IR Inten    --      3.1423              1236.1458                12.3120

                     70                     71                     72
                      A                      A                      A
 Frequencies --   1559.8984              1607.8960              1623.2262
 Red. masses --      5.6245                 8.0499                 5.9211
 Frc consts  --      8.0635                12.2619                 9.1920
 IR Inten    --    133.8023                 7.3490                11.1544

                     73                     74                     75
                      A                      A                      A
 Frequencies --   1631.0403              1763.9767              3053.8506
 Red. masses --      6.2581                11.3825                 1.0359
 Frc consts  --      9.8089                20.8676                 5.6919
 IR Inten    --      2.2664               481.7496                 2.7123

                     76                     77                     78
                      A                      A                      A
 Frequencies --   3119.2132              3153.6425              3160.3031
 Red. masses --      1.0999                 1.1041                 1.0861
 Frc consts  --      6.3049                 6.4699                 6.3913
 IR Inten    --      6.3733                13.9445                13.6719

                     79                     80                     81
                      A                      A                      A
 Frequencies --   3173.0333              3174.3795              3190.7353
 Red. masses --      1.0873                 1.0906                 1.0923
 Frc consts  --      6.4496                 6.4748                 6.5522
 IR Inten    --     17.3078                22.6647                 7.0954

                     82                     83                     84
                      A                      A                      A
 Frequencies --   3191.1627              3195.5052              3200.9736
 Red. masses --      1.0924                 1.0936                 1.0938
 Frc consts  --      6.5544                 6.5792                 6.6032
 IR Inten    --     22.4829                40.7238                21.6957

 - Thermochemistry -
 -------------------
 Temperature   298.150 Kelvin.  Pressure   1.00000 Atm.
 Atom     1 has atomic number  6 and mass  12.00000

 Molecular mass:   266.05791 amu.
 Principal axes and moments of inertia in atomic units:
                           1         2         3
     Eigenvalues --  3209.111106232.238969016.04703
           X            0.98590   0.16072  -0.04665
           Y           -0.16425   0.98269  -0.08572
           Z            0.03207   0.09217   0.99523
 This molecule is an asymmetric top.
 Rotational symmetry number  1.
 Warning -- assumption of classical behavior for rotation
           may cause significant error
 Rotational temperatures (Kelvin)      0.02699     0.01390     0.00961
 Rotational constants (GHZ):           0.56238     0.28958     0.20017
 Zero-point vibrational energy     572260.3 (Joules/Mol)
                                  136.77349 (Kcal/Mol)
 Warning -- explicit consideration of  25 degrees of freedom as
           vibrations may cause significant error
 Vibrational temperatures:     64.53    74.20    87.38   106.17   147.12
          (Kelvin)            171.49   202.78   235.69   314.58   318.66
                              414.96   434.81   454.81   508.71   565.03
                              597.65   602.81   628.61   670.47   712.45
                              718.82   786.00   792.03   839.93   882.88
                              917.82   944.86   993.70  1001.16  1020.80
                             1064.65  1119.25  1140.94  1144.51  1178.15
                             1243.21  1276.04  1303.44  1340.46  1349.16
                             1425.42  1430.23  1438.21  1442.98  1486.16
                             1504.56  1517.40  1557.52  1601.76  1648.79
                             1685.72  1699.89  1730.69  1739.93  1771.61
                             1781.24  1795.32  1925.14  1950.96  1961.89
                             1995.04  2019.21  2069.39  2101.56  2107.89
                             2128.19  2139.18  2172.30  2193.66  2244.35
                             2313.40  2335.46  2346.70  2537.97  4393.81
                             4487.85  4537.39  4546.97  4565.29  4567.22
                             4590.76  4591.37  4597.62  4605.49

 Zero-point correction=                           0.217962 (Hartree/Particle)
 Thermal correction to Energy=                    0.233845
 Thermal correction to Enthalpy=                  0.234789
 Thermal correction to Gibbs Free Energy=         0.173300
 Sum of electronic and zero-point Energies=           -916.821703
 Sum of electronic and thermal Energies=              -916.805821
 Sum of electronic and thermal Enthalpies=            -916.804876
 Sum of electronic and thermal Free Energies=         -916.866365

                     E (Thermal)             CV                S
                      KCal/Mol        Cal/Mol-Kelvin    Cal/Mol-Kelvin
 Total                  146.740             61.982            129.415
 Electronic               0.000              0.000              1.377
 Translational            0.889              2.981             42.635
 Rotational               0.889              2.981             33.555
 Vibrational            144.963             56.020             51.847
 Vibration     1          0.595              1.979              5.032
 Vibration     2          0.596              1.977              4.756
 Vibration     3          0.597              1.973              4.433
 Vibration     4          0.599              1.966              4.050
 Vibration     5          0.604              1.947              3.411
 Vibration     6          0.609              1.933              3.113
 Vibration     7          0.615              1.912              2.791
 Vibration     8          0.623              1.887              2.505
 Vibration     9          0.646              1.813              1.970
 Vibration    10          0.648              1.808              1.947
 Vibration    11          0.685              1.695              1.483
 Vibration    12          0.694              1.670              1.405
 Vibration    13          0.703              1.643              1.330
 Vibration    14          0.730              1.568              1.150
 Vibration    15          0.760              1.486              0.990
 Vibration    16          0.779              1.437              0.908
 Vibration    17          0.782              1.429              0.895
 Vibration    18          0.797              1.390              0.836
 Vibration    19          0.823              1.325              0.749
 Vibration    20          0.851              1.261              0.670
 Vibration    21          0.855              1.251              0.659
 Vibration    22          0.901              1.148              0.552
 Vibration    23          0.906              1.139              0.543
 Vibration    24          0.941              1.066              0.478
 Vibration    25          0.973              1.003              0.427

 Optimization completed.
    -- Stationary point found.
 Normal termination of Gaussian 16 at Sat Feb 10 19:29:30 2024.
