 Q-Chem 5.4, Q-Chem, Inc., Pleasanton, CA (2021)
 Q-Chem 5.4.0 for Intel X86 EM64T Linux

User input:
--------------------------------------------------------------
$molecule
0 1
C                  3.3085020000     -0.2585250000     -0.1173220000
C                  1.8226490000     -0.4500800000     -0.1582750000
C                  0.9675560000      0.7281080000      0.0913560000
O                  1.4648570000      1.8209540000      0.3233660000
C                 -0.5257580000      0.5675660000      0.0567230000
C                 -1.3435270000      1.6715630000      0.2903010000
C                 -2.7298640000      1.5314860000      0.2599270000
C                 -3.3088330000      0.2887470000     -0.0037480000
C                 -2.5006570000     -0.8194440000     -0.2382060000
C                 -1.1108840000     -0.6813960000     -0.2082560000
C                 -0.2406610000     -1.8455010000     -0.4546110000
O                 -0.6558320000     -2.9736880000     -0.6939140000
C                  1.2378680000     -1.6460620000     -0.4117900000
O                  1.9431560000     -2.7638530000     -0.6483830000
H                  3.8300590000     -1.1932720000     -0.3159810000
H                  3.6166220000      0.1250030000      0.8593580000
H                  3.6167870000      0.4892420000     -0.8533240000
H                 -0.8779170000      2.6280120000      0.4932240000
H                 -3.3614020000      2.3935770000      0.4423100000
H                 -4.3875510000      0.1860410000     -0.0260610000
H                 -2.9265630000     -1.7936360000     -0.4448920000
H                  1.2867530000     -3.4705140000     -0.7984230000
$end
$rem
MAX_SCF_CYCLES=200
BASIS  =  6-311++G(d,p)
GUI  =  2
JOB_TYPE  =  SP
METHOD  =  B3LYP
SOLVENT_METHOD = PCM
$end
$pcm
theory = CPCM
$end
$solvent
dielectric 37.219
opticaldielectric 1.43
$end

--------------------------------------------------------------

             Standard Nuclear Orientation (Angstroms)
    I     Atom           X                Y                Z
 ----------------------------------------------------------------
    1      C       3.3085020000    -0.2585250000    -0.1173220000
    2      C       1.8226490000    -0.4500800000    -0.1582750000
    3      C       0.9675560000     0.7281080000     0.0913560000
    4      O       1.4648570000     1.8209540000     0.3233660000
    5      C      -0.5257580000     0.5675660000     0.0567230000
    6      C      -1.3435270000     1.6715630000     0.2903010000
    7      C      -2.7298640000     1.5314860000     0.2599270000
    8      C      -3.3088330000     0.2887470000    -0.0037480000
    9      C      -2.5006570000    -0.8194440000    -0.2382060000
   10      C      -1.1108840000    -0.6813960000    -0.2082560000
   11      C      -0.2406610000    -1.8455010000    -0.4546110000
   12      O      -0.6558320000    -2.9736880000    -0.6939140000
   13      C       1.2378680000    -1.6460620000    -0.4117900000
   14      O       1.9431560000    -2.7638530000    -0.6483830000
   15      H       3.8300590000    -1.1932720000    -0.3159810000
   16      H       3.6166220000     0.1250030000     0.8593580000
   17      H       3.6167870000     0.4892420000    -0.8533240000
   18      H      -0.8779170000     2.6280120000     0.4932240000
   19      H      -3.3614020000     2.3935770000     0.4423100000
   20      H      -4.3875510000     0.1860410000    -0.0260610000
   21      H      -2.9265630000    -1.7936360000    -0.4448920000
   22      H       1.2867530000    -3.4705140000    -0.7984230000
 ----------------------------------------------------------------

    9    -649.8622159034      3.53e-06  Convergence criterion met
 Total energy in the final basis set =     -649.8622159034

                    Orbital Energies (a.u.)
 --------------------------------------------------------------

 Alpha MOs
 -- Occupied --
-19.1780 -19.1499 -19.1304 -10.2942 -10.2813 -10.2676 -10.2107 -10.2094
-10.2064 -10.2007 -10.1986 -10.1971 -10.1968 -10.1722  -1.1087  -1.0676
 -1.0643  -0.8926  -0.8413  -0.7866  -0.7797  -0.7253  -0.6848  -0.6543
 -0.6246  -0.6046  -0.5742  -0.5430  -0.5188  -0.4962  -0.4771  -0.4744
 -0.4683  -0.4524  -0.4503  -0.4331  -0.4242  -0.4172  -0.4035  -0.3957
 -0.3941  -0.3768  -0.3764  -0.3696  -0.3044  -0.2904  -0.2812  -0.2802
 -0.2580

          Ground-State Mulliken Net Atomic Charges

     Atom                 Charge (a.u.)
  ----------------------------------------
      1 C                    -0.251929
      2 C                     1.294596
      3 C                    -0.603672
      4 O                    -0.303285
      5 C                     0.419834
      6 C                     0.121838
      7 C                    -0.479521
      8 C                    -0.373909
      9 C                     0.015161
     10 C                     0.875003
     11 C                    -1.023722
     12 O                    -0.318424
     13 C                    -0.886926
     14 O                    -0.249558
     15 H                     0.197008
     16 H                     0.193161
     17 H                     0.193045
     18 H                     0.203720
     19 H                     0.222930
     20 H                     0.229100
     21 H                     0.203946
     22 H                     0.321604
  ----------------------------------------
  Sum of atomic charges =     0.000000

                    Cartesian Multipole Moments
 -----------------------------------------------------------------
    Charge (ESU x 10^10)
                 0.0000
    Dipole Moment (Debye)
         X      -3.2910      Y      -0.1680      Z      -0.0390
       Tot       3.2955
    Quadrupole Moments (Debye-Ang)
        XX     -70.1348     XY      -8.4383     YY     -86.8787
        XZ      -1.5755     YZ      -1.0807     ZZ     -81.9731

 Total job time:  40.25s(wall), 206.90s(cpu)
        *  Thank you very much for using Q-Chem.  Have a nice day.  *
