 Q-Chem 5.4, Q-Chem, Inc., Pleasanton, CA (2021)
 Q-Chem 5.4.0 for Intel X86 EM64T Linux

User input:
--------------------------------------------------------------
$molecule
0 1
C                 -3.5503130000      0.2039520000      0.8569230000
C                 -3.5797690000     -0.1789870000     -0.5174020000
C                 -2.4207210000     -0.3710750000     -1.2161620000
C                 -1.1577010000     -0.1899010000     -0.5757560000
N                 -0.0291900000     -0.3809860000     -1.2705500000
C                  1.1278050000     -0.1978870000     -0.6223740000
C                  2.3624780000     -0.3878490000     -1.3139960000
C                  3.5503120000     -0.2039970000     -0.6633120000
C                  3.5796990000      0.1790030000      0.7112270000
C                  2.4208300000      0.3710940000      1.4099970000
C                  1.1575820000      0.1899250000      0.7696090000
N                  0.0292940000      0.3809980000      1.4643610000
C                 -1.1279210000      0.1978830000      0.8161280000
C                 -2.3624120000      0.3878370000      1.5077200000
H                 -4.4859380000      0.3490550000      1.3850630000
H                 -4.5370670000     -0.3175230000     -1.0070380000
H                 -2.4193500000     -0.6618830000     -2.2598840000
H                  2.3161820000     -0.6784820000     -2.3567240000
H                  4.4860150000     -0.3490510000     -1.1912760000
H                  4.5370800000      0.3175010000      1.2007250000
H                  2.4193750000      0.6619030000      2.4537210000
H                 -2.3162730000      0.6784710000      2.5504530000
$end
$rem
MAX_SCF_CYCLES=200
BASIS  =  6-311++G(d,p)
GUI  =  2
JOB_TYPE  =  SP
METHOD  =  B3LYP
SOLVENT_METHOD = COSMO
$end
$solvent
dielectric 37.219
opticaldielectric 1.43
$end

--------------------------------------------------------------

             Standard Nuclear Orientation (Angstroms)
    I     Atom           X                Y                Z
 ----------------------------------------------------------------
    1      C       3.5657964318    -0.7134895201    -0.0000074879
    2      C       3.5658180199     0.7134930090     0.0000129699
    3      C       2.3920659801     1.4141082758    -0.0000141900
    4      C       1.1430399405     0.7226624458    -0.0000175525
    5      N      -0.0000970989     1.4198187883    -0.0000111131
    6      C      -1.1429553962     0.7225600752    -0.0000076604
    7      C      -2.3921628531     1.4141702971    -0.0000075807
    8      C      -3.5657996274     0.7136579426     0.0000086655
    9      C      -3.5657476432    -0.7135456362    -0.0000132720
   10      C      -2.3921743501    -1.4141750313     0.0000140595
   11      C      -1.1429199742    -0.7227431758     0.0000169543
   12      N      -0.0000067872    -1.4198604478     0.0000112747
   13      C       1.1430702419    -0.7225380064     0.0000074741
   14      C       2.3920950968    -1.4141209426     0.0000074347
   15      H       4.5125220094    -1.2417806907    -0.0000339777
   16      H       4.5124183855     1.2419841093     0.0000482217
   17      H       2.3683463592     2.4973276269     0.0000394646
   18      H      -2.3682047947     2.4973685944     0.0000435651
   19      H      -4.5125994198     1.2417648494     0.0000353482
   20      H      -4.5124339444    -1.2418953433    -0.0000487757
   21      H      -2.3683707029    -2.4973948442    -0.0000401992
   22      H       2.3682941103    -2.4973210852    -0.0000436643
 ----------------------------------------------------------------

    8    -571.7455985819      5.56e-06  Convergence criterion met
 Total energy in the final basis set =     -571.7455985819
    4    -571.7565165790      5.09e-06  Convergence criterion met
 Total energy in the final basis set =     -571.7565165790

                    Orbital Energies (a.u.)
 --------------------------------------------------------------

 Alpha MOs
 -- Occupied --
-14.3382 -14.3381 -10.2319 -10.2319 -10.2315 -10.2315 -10.1924 -10.1924
-10.1920 -10.1920 -10.1884 -10.1884 -10.1884 -10.1884  -0.9977  -0.9297
 -0.8766  -0.8463  -0.7788  -0.7679  -0.7491  -0.6919  -0.6584  -0.6251
 -0.6085  -0.5714  -0.5671  -0.5111  -0.5003  -0.4850  -0.4765  -0.4552
 -0.4486  -0.4435  -0.4421  -0.3990  -0.3855  -0.3842  -0.3688  -0.3670
 -0.3661  -0.3366  -0.3286  -0.2797  -0.2669  -0.2654  -0.2385

          Ground-State Mulliken Net Atomic Charges

     Atom                 Charge (a.u.)
  ----------------------------------------
      1 C                    -0.312829
      2 C                    -0.312033
      3 C                    -0.196843
      4 C                     0.067986
      5 N                    -0.015230
      6 C                     0.068349
      7 C                    -0.196440
      8 C                    -0.312438
      9 C                    -0.312440
     10 C                    -0.196488
     11 C                     0.067600
     12 N                    -0.015235
     13 C                     0.068393
     14 C                    -0.196345
     15 H                     0.224417
     16 H                     0.224487
     17 H                     0.224040
     18 H                     0.224036
     19 H                     0.224423
     20 H                     0.224457
     21 H                     0.224055
     22 H                     0.224080
  ----------------------------------------
  Sum of atomic charges =     0.000000

                    Cartesian Multipole Moments
 -----------------------------------------------------------------
    Charge (ESU x 10^10)
                -0.0000
    Dipole Moment (Debye)
         X      -0.0013      Y       0.0008      Z      -0.0003
       Tot       0.0015
    Quadrupole Moments (Debye-Ang)
        XX     -53.4804     XY      -0.0014     YY     -80.2928
        XZ       0.0006     YZ       0.0006     ZZ     -85.4142

 Total job time:  27.31s(wall), 196.08s(cpu)
        *  Thank you very much for using Q-Chem.  Have a nice day.  *
