 Q-Chem 5.4, Q-Chem, Inc., Pleasanton, CA (2021)
 Q-Chem 5.4.0 for Intel X86 EM64T Linux

User input:
--------------------------------------------------------------
$molecule
-1 2
C                 -1.7699670000      1.8911020000     -5.1439780000
C                 -1.6794230000      0.5664390000     -5.5211640000
C                 -1.3015280000     -0.4142140000     -4.5778830000
C                 -1.4895250000      2.2966210000     -3.8193210000
C                 -1.1103870000      1.3079140000     -2.8739760000
C                 -1.0236280000     -0.0420890000     -3.2783660000
C                 -1.6058620000      3.7238530000     -3.4873120000
C                 -0.8101180000      1.6653510000     -1.4925240000
C                 -1.3030910000      4.0994920000     -2.0986020000
C                 -0.9234170000      3.0883560000     -1.1541780000
C                 -1.3614760000      5.4338750000     -1.6074810000
C                 -1.0840590000      5.7892100000     -0.2836690000
C                 -0.7099540000      4.7371190000      0.5904070000
C                 -0.6290030000      3.4374190000      0.1753150000
O                 -1.9500090000      4.5467560000     -4.3678540000
O                 -0.4729780000      0.8105520000     -0.6389510000
H                 -2.0580380000      2.6620470000     -5.8485260000
H                 -1.8991170000      0.2769100000     -6.5446050000
H                 -1.2308710000     -1.4561000000     -4.8755600000
H                 -0.7314120000     -0.7689170000     -2.5293820000
Br                -0.2700630000      5.1606140000      2.4328830000
H                 -0.3390680000      2.6377500000      0.8442190000
N                 -1.2148260000      7.0933360000      0.1820610000
Cl                -1.7866940000      6.8001180000     -2.6568440000
H                 -1.1924730000      7.7977170000     -0.5408210000
H                 -0.6588320000      7.3101610000      0.9961000000
$end

$rem
BASIS  =  6-311++G(d,p)
GUI  =  2
JOB_TYPE  =  SP
METHOD  =  B3LYP
SCF_CONVERGENCE  = 8
SOLVENT_METHOD = sm12
$end

$smx
solvent dimethylformamide
charges CM5
$end

--------------------------------------------------------------

             Standard Nuclear Orientation (Angstroms)
    I     Atom           X                Y                Z
 ----------------------------------------------------------------
    1      C      -1.7699670000     1.8911020000    -5.1439780000
    2      C      -1.6794230000     0.5664390000    -5.5211640000
    3      C      -1.3015280000    -0.4142140000    -4.5778830000
    4      C      -1.4895250000     2.2966210000    -3.8193210000
    5      C      -1.1103870000     1.3079140000    -2.8739760000
    6      C      -1.0236280000    -0.0420890000    -3.2783660000
    7      C      -1.6058620000     3.7238530000    -3.4873120000
    8      C      -0.8101180000     1.6653510000    -1.4925240000
    9      C      -1.3030910000     4.0994920000    -2.0986020000
   10      C      -0.9234170000     3.0883560000    -1.1541780000
   11      C      -1.3614760000     5.4338750000    -1.6074810000
   12      C      -1.0840590000     5.7892100000    -0.2836690000
   13      C      -0.7099540000     4.7371190000     0.5904070000
   14      C      -0.6290030000     3.4374190000     0.1753150000
   15      O      -1.9500090000     4.5467560000    -4.3678540000
   16      O      -0.4729780000     0.8105520000    -0.6389510000
   17      H      -2.0580380000     2.6620470000    -5.8485260000
   18      H      -1.8991170000     0.2769100000    -6.5446050000
   19      H      -1.2308710000    -1.4561000000    -4.8755600000
   20      H      -0.7314120000    -0.7689170000    -2.5293820000
   21      Br     -0.2700630000     5.1606140000     2.4328830000
   22      H      -0.3390680000     2.6377500000     0.8442190000
   23      N      -1.2148260000     7.0933360000     0.1820610000
   24      Cl     -1.7866940000     6.8001180000    -2.6568440000
   25      H      -1.1924730000     7.7977170000    -0.5408210000
   26      H      -0.6588320000     7.3101610000     0.9961000000
 ----------------------------------------------------------------

   19   -3777.5499496177      8.99e-09  Convergence criterion met
 Total energy in the final basis set =    -3777.6349705647

                    Orbital Energies (a.u.)
 --------------------------------------------------------------

 Alpha MOs
 -- Occupied --
********-101.5520 -62.4928 -56.3133 -56.3095 -56.3094 -19.0789 -19.0749
-14.3338 -10.2432 -10.2408 -10.2371 -10.2303 -10.2300 -10.1976 -10.1890
-10.1843 -10.1829 -10.1823 -10.1806 -10.1798 -10.1791 -10.1780  -9.4662
 -8.7014  -7.2308  -7.2214  -7.2204  -6.5325  -6.5200  -6.5196  -2.6434
 -2.6399  -2.6395  -2.6297  -2.6297  -1.0074  -1.0047  -0.9499  -0.8751
 -0.8642  -0.8549  -0.8138  -0.7781  -0.7585  -0.7436  -0.7373  -0.6721
 -0.6455  -0.6264  -0.6031  -0.5706  -0.5509  -0.5399  -0.5196  -0.4994
 -0.4742  -0.4658  -0.4591  -0.4428  -0.4393  -0.4344  -0.4289  -0.4182
 -0.4097  -0.4087  -0.3980  -0.3858  -0.3699  -0.3614  -0.3599  -0.3488
 -0.3454  -0.3222  -0.3203  -0.3085  -0.3019  -0.2692  -0.2643  -0.2547
 -0.2475  -0.2336  -0.2292  -0.1445

 Beta MOs
 -- Occupied --
********-101.5520 -62.4928 -56.3133 -56.3095 -56.3094 -19.0736 -19.0683
-14.3336 -10.2427 -10.2402 -10.2367 -10.2290 -10.2286 -10.1966 -10.1891
-10.1837 -10.1824 -10.1818 -10.1798 -10.1797 -10.1783 -10.1781  -9.4662
 -8.7014  -7.2308  -7.2213  -7.2204  -6.5325  -6.5200  -6.5196  -2.6434
 -2.6399  -2.6394  -2.6297  -2.6296  -0.9981  -0.9936  -0.9491  -0.8735
 -0.8626  -0.8543  -0.8119  -0.7756  -0.7564  -0.7419  -0.7354  -0.6655
 -0.6438  -0.6241  -0.6023  -0.5685  -0.5492  -0.5388  -0.5182  -0.4978
 -0.4716  -0.4652  -0.4578  -0.4422  -0.4348  -0.4318  -0.4267  -0.4155
 -0.4042  -0.4013  -0.3953  -0.3691  -0.3670  -0.3598  -0.3538  -0.3440
 -0.3423  -0.3197  -0.3174  -0.3021  -0.3011  -0.2592  -0.2512  -0.2479
 -0.2425  -0.2279  -0.2223

          Ground-State Mulliken Net Atomic Charges

     Atom                 Charge (a.u.)    Spin (a.u.)
  --------------------------------------------------------
      1 C                    -0.078364       0.029591
      2 C                     0.830341       0.033629
      3 C                     0.818214       0.040871
      4 C                    -1.160426       0.050058
      5 C                    -1.030719       0.025866
      6 C                    -0.128096       0.018694
      7 C                    -2.310055       0.065891
      8 C                    -1.960551       0.065971
      9 C                     0.384717       0.078551
     10 C                    -0.978721       0.027150
     11 C                     0.633217       0.049242
     12 C                    -0.428325       0.035006
     13 C                     1.899512       0.021823
     14 C                     0.431639       0.012426
     15 O                    -0.196209       0.245716
     16 O                    -0.304170       0.198591
     17 H                     0.149703      -0.002331
     18 H                     0.348302      -0.002767
     19 H                     0.351182      -0.003172
     20 H                     0.156245      -0.000944
     21 Br                    0.231163       0.000760
     22 H                     0.166369      -0.001223
     23 N                     0.069653       0.009521
     24 Cl                    0.508026       0.001244
     25 H                     0.301865      -0.000328
     26 H                     0.295487       0.000161
  --------------------------------------------------------
  Sum of atomic charges =    -1.000000

                    Cartesian Multipole Moments
 -----------------------------------------------------------------
    Charge (ESU x 10^10)
                -4.8032
    Dipole Moment (Debye)
         X       6.5383      Y     -13.3725      Z      11.2302
       Tot      18.6465
    Quadrupole Moments (Debye-Ang)
        XX    -147.5463     XY      27.3710     YY    -182.8261
        XZ     -18.7753     YZ      44.0264     ZZ    -179.5713

 Total job time:  835.04s(wall), 6222.55s(cpu)
        *  Thank you very much for using Q-Chem.  Have a nice day.  *
