 Q-Chem 5.4, Q-Chem, Inc., Pleasanton, CA (2021)
 Q-Chem 5.4.0 for Intel X86 EM64T Linux

User input:
--------------------------------------------------------------
$molecule
-1 2
C                  2.8857550000      2.5183800000     -0.3399250000
O                  2.5559010000      1.1559040000     -0.2360720000
C                  1.2334620000      0.8016340000     -0.1641320000
C                  0.2317450000      1.7536630000     -0.1915020000
C                 -1.1190980000      1.3747610000     -0.1167500000
C                 -1.4729260000      0.0425460000     -0.0142430000
O                 -2.7865660000     -0.3426060000      0.0597500000
C                 -3.7836710000      0.6478670000      0.0321620000
C                 -0.4707650000     -0.9804500000      0.0177130000
C                 -0.8502790000     -2.4105150000      0.1275080000
O                 -2.0347950000     -2.8276390000      0.1999110000
C                  0.2424600000     -3.3496130000      0.1489130000
C                  1.5531720000     -2.9820100000      0.0762340000
C                  1.9915640000     -1.6134790000     -0.0304450000
O                  3.2207610000     -1.3535750000     -0.0921550000
C                  0.9165210000     -0.5913180000     -0.0591860000
H                  3.9753990000      2.5550630000     -0.3826370000
H                  2.5413290000      3.0973340000      0.5289530000
H                  2.4758270000      2.9777180000     -1.2508410000
H                  0.4666040000      2.8061260000     -0.2706590000
H                 -1.8723780000      2.1500560000     -0.1414950000
H                 -4.7319560000      0.1129790000      0.1037720000
H                 -3.7007170000      1.3454920000      0.8778490000
H                 -3.7688810000      1.2275140000     -0.9019590000
H                 -0.0470820000     -4.3938540000      0.2289310000
H                  2.3486140000     -3.7219780000      0.0959780000
$end
$rem
MAX_SCF_CYCLES=200
BASIS  =  6-311++G(d,p)
GUI  =  2
JOB_TYPE  =  SP
METHOD  =  B3LYP
SOLVENT_METHOD = PCM
$end
$pcm
theory = CPCM
$end
$solvent
dielectric 37.219
opticaldielectric 1.43
$end

--------------------------------------------------------------

             Standard Nuclear Orientation (Angstroms)
    I     Atom           X                Y                Z
 ----------------------------------------------------------------
    1      C       2.8857550000     2.5183800000    -0.3399250000
    2      O       2.5559010000     1.1559040000    -0.2360720000
    3      C       1.2334620000     0.8016340000    -0.1641320000
    4      C       0.2317450000     1.7536630000    -0.1915020000
    5      C      -1.1190980000     1.3747610000    -0.1167500000
    6      C      -1.4729260000     0.0425460000    -0.0142430000
    7      O      -2.7865660000    -0.3426060000     0.0597500000
    8      C      -3.7836710000     0.6478670000     0.0321620000
    9      C      -0.4707650000    -0.9804500000     0.0177130000
   10      C      -0.8502790000    -2.4105150000     0.1275080000
   11      O      -2.0347950000    -2.8276390000     0.1999110000
   12      C       0.2424600000    -3.3496130000     0.1489130000
   13      C       1.5531720000    -2.9820100000     0.0762340000
   14      C       1.9915640000    -1.6134790000    -0.0304450000
   15      O       3.2207610000    -1.3535750000    -0.0921550000
   16      C       0.9165210000    -0.5913180000    -0.0591860000
   17      H       3.9753990000     2.5550630000    -0.3826370000
   18      H       2.5413290000     3.0973340000     0.5289530000
   19      H       2.4758270000     2.9777180000    -1.2508410000
   20      H       0.4666040000     2.8061260000    -0.2706590000
   21      H      -1.8723780000     2.1500560000    -0.1414950000
   22      H      -4.7319560000     0.1129790000     0.1037720000
   23      H      -3.7007170000     1.3454920000     0.8778490000
   24      H      -3.7688810000     1.2275140000    -0.9019590000
   25      H      -0.0470820000    -4.3938540000     0.2289310000
   26      H       2.3486140000    -3.7219780000     0.0959780000
 ----------------------------------------------------------------

    8    -764.5080919750      7.21e-06  Convergence criterion met
 Total energy in the final basis set =     -764.5080919750

                    Orbital Energies (a.u.)
 --------------------------------------------------------------

 Alpha MOs
 -- Occupied --
-19.1458 -19.1458 -19.0699 -19.0699 -10.2311 -10.2311 -10.2225 -10.2225
-10.2117 -10.2116 -10.1809 -10.1805 -10.1691 -10.1686 -10.1582 -10.1575
 -1.0656  -1.0648  -0.9975  -0.9953  -0.8533  -0.8008  -0.7610  -0.7466
 -0.7063  -0.6792  -0.6714  -0.6161  -0.6040  -0.5597  -0.5210  -0.5168
 -0.4959  -0.4918  -0.4669  -0.4618  -0.4597  -0.4444  -0.4343  -0.4172
 -0.4119  -0.4047  -0.3994  -0.3957  -0.3770  -0.3712  -0.3658  -0.3576
 -0.3383  -0.3353  -0.3288  -0.2936  -0.2740  -0.2530  -0.2326  -0.2277
 -0.2142  -0.1470

 Beta MOs
 -- Occupied --
-19.1457 -19.1456 -19.0639 -19.0639 -10.2310 -10.2309 -10.2210 -10.2210
-10.2117 -10.2116 -10.1806 -10.1802 -10.1684 -10.1679 -10.1569 -10.1562
 -1.0653  -1.0644  -0.9870  -0.9846  -0.8513  -0.7955  -0.7598  -0.7446
 -0.7059  -0.6763  -0.6641  -0.6127  -0.6019  -0.5585  -0.5197  -0.5153
 -0.4943  -0.4895  -0.4658  -0.4612  -0.4576  -0.4417  -0.4338  -0.4135
 -0.4042  -0.4004  -0.3989  -0.3916  -0.3678  -0.3576  -0.3558  -0.3558
 -0.3348  -0.3301  -0.3281  -0.2901  -0.2470  -0.2468  -0.2272  -0.2224
 -0.2065

          Ground-State Mulliken Net Atomic Charges

     Atom                 Charge (a.u.)    Spin (a.u.)
  --------------------------------------------------------
      1 C                    -0.323752      -0.000850
      2 O                    -0.169562       0.001411
      3 C                    -0.097441       0.049657
      4 C                    -0.158667       0.061943
      5 C                    -0.162655       0.062025
      6 C                    -0.096720       0.049702
      7 O                    -0.169930       0.001430
      8 C                    -0.323625      -0.000856
      9 C                     0.024441       0.016185
     10 C                     0.003712       0.071726
     11 O                    -0.528452       0.224927
     12 C                    -0.186139       0.086979
     13 C                    -0.184690       0.086872
     14 C                     0.008684       0.071790
     15 O                    -0.528362       0.224854
     16 C                     0.021300       0.016353
     17 H                     0.202333      -0.000372
     18 H                     0.160767       0.000733
     19 H                     0.161005       0.000723
     20 H                     0.221811      -0.003683
     21 H                     0.222888      -0.003681
     22 H                     0.202427      -0.000374
     23 H                     0.160894       0.000734
     24 H                     0.160555       0.000733
     25 H                     0.189579      -0.009476
     26 H                     0.189601      -0.009486
  --------------------------------------------------------
  Sum of atomic charges =    -1.000000

                    Cartesian Multipole Moments
 -----------------------------------------------------------------
    Charge (ESU x 10^10)
                -4.8032
    Dipole Moment (Debye)
         X      -3.8396      Y      13.5238      Z      -0.4536
       Tot      14.0656
    Quadrupole Moments (Debye-Ang)
        XX    -128.5564     XY      -5.8342     YY    -109.2979
        XZ       1.7409     YZ       0.0668     ZZ     -98.5184

 Total job time:  76.49s(wall), 316.46s(cpu)
        *  Thank you very much for using Q-Chem.  Have a nice day.  *
