 Gaussian 16, Revision A.03,
 Gaussian 16:  ES64L-G16RevA.03 25-Dec-2016

 ----------------------------------------------------------------
 #P UB3LYP/6-311++G(d,p) SCRF=(PCM,Solvent=n,n-DiMethylFormamide)
 ----------------------------------------------------------------

 ------------------
 Radical PCM in DMF
 ------------------
 Symbolic Z-matrix:
 Charge = -1 Multiplicity = 2

                         Standard orientation:
 ---------------------------------------------------------------------
 Center     Atomic      Atomic             Coordinates (Angstroms)
 Number     Number       Type             X           Y           Z
 ---------------------------------------------------------------------
      1          6           0        0.000066   -1.632273   -0.001648
      2          6           0       -1.263712   -0.889279   -0.000866
      3          6           0       -1.259043    0.493065   -0.001105
      4          6           0        0.000010    1.232658   -0.001582
      5          6           0        1.259107    0.493126   -0.000692
      6          6           0        1.263808   -0.889230   -0.001443
      7          8           0        0.000088   -2.902267   -0.001796
      8          8           0       -0.000007    2.503671   -0.002289
      9          6           0        2.507245   -1.784178   -0.001201
     10          6           0        3.362727   -1.689502   -1.280790
     11          6           0        3.357372   -1.694089    1.282266
     12          6           0        2.545184    1.320809    0.001340
     13          6           0        2.702831    2.181288   -1.269673
     14          6           0        2.699271    2.180410    1.273450
     15          6           0       -2.507199   -1.784238    0.000586
     16          6           0       -3.360678   -1.692630   -1.280560
     17          6           0       -3.359189   -1.690991    1.282563
     18          6           0       -2.545239    1.320542   -0.000219
     19          6           0       -2.700156    2.180207    1.271726
     20          6           0       -2.702426    2.181078   -1.271319
     21          1           0        2.086828   -2.791775   -0.003854
     22          1           0        4.127694   -2.476350   -1.281509
     23          1           0        3.876817   -0.731118   -1.392328
     24          1           0        2.736417   -1.833650   -2.165803
     25          1           0        3.867393   -0.734421    1.401272
     26          1           0        4.125147   -2.478211    1.281682
     27          1           0        2.727931   -1.845521    2.163830
     28          1           0        3.381132    0.623819    0.002517
     29          1           0        2.655063    1.557953   -2.168303
     30          1           0        3.674585    2.691762   -1.264840
     31          1           0        1.910684    2.927961   -1.325019
     32          1           0        1.907128    2.927192    1.327298
     33          1           0        3.671103    2.690754    1.271601
     34          1           0        2.649075    1.556448    2.171532
     35          1           0       -2.086727   -2.791813    0.000971
     36          1           0       -4.127645   -2.477532   -1.279401
     37          1           0       -2.733307   -1.841844   -2.163978
     38          1           0       -3.871993   -0.733276   -1.396592
     39          1           0       -4.124927   -2.477104    1.284061
     40          1           0       -3.872024   -0.732289    1.397027
     41          1           0       -2.730657   -1.837233    2.165649
     42          1           0       -3.381048    0.623396    0.000128
     43          1           0       -3.672460    2.689640    1.269993
     44          1           0       -1.908616    2.927667    1.325058
     45          1           0       -2.649008    1.556466    2.169898
     46          1           0       -3.674527    2.690906   -1.267009
     47          1           0       -2.653783    1.557972   -2.170071
     48          1           0       -1.910794    2.928333   -1.326128
 ---------------------------------------------------------------------

 SCF Done:  E(UB3LYP) =  -853.589413272     A.U. after   18 cycles

 The electronic state is 2-A.
 Alpha  occ. eigenvalues --  -19.06244 -19.05572 -10.20488 -10.20171 -10.16089
 Alpha  occ. eigenvalues --  -10.16089 -10.15751 -10.15750 -10.15486 -10.15484
 Alpha  occ. eigenvalues --  -10.15424 -10.15423 -10.14904 -10.14904 -10.14904
 Alpha  occ. eigenvalues --  -10.14903 -10.14216 -10.14216 -10.14215 -10.14214
 Alpha  occ. eigenvalues --   -0.98679  -0.98061  -0.82394  -0.80739  -0.77552
 Alpha  occ. eigenvalues --   -0.77305  -0.75304  -0.70177  -0.67618  -0.67605
 Alpha  occ. eigenvalues --   -0.66870  -0.66832  -0.65979  -0.62205  -0.59289
 Alpha  occ. eigenvalues --   -0.56704  -0.55116  -0.52769  -0.51629  -0.47904
 Alpha  occ. eigenvalues --   -0.45703  -0.44738  -0.43392  -0.42988  -0.42227
 Alpha  occ. eigenvalues --   -0.42029  -0.42008  -0.41345  -0.40199  -0.40173
 Alpha  occ. eigenvalues --   -0.40048  -0.39698  -0.39240  -0.38855  -0.38834
 Alpha  occ. eigenvalues --   -0.37555  -0.37355  -0.36931  -0.36566  -0.34581
 Alpha  occ. eigenvalues --   -0.34060  -0.33606  -0.33317  -0.33068  -0.32883
 Alpha  occ. eigenvalues --   -0.32808  -0.32798  -0.32334  -0.31948  -0.31053
 Alpha  occ. eigenvalues --   -0.29832  -0.29754  -0.25670  -0.22776  -0.22469
 Alpha  occ. eigenvalues --   -0.21045  -0.14465
 Alpha virt. eigenvalues --   -0.00684   0.00201   0.00650   0.00673   0.00832
 Alpha virt. eigenvalues --    0.01752   0.02057   0.02187   0.02801   0.02910
 Alpha virt. eigenvalues --    0.03719   0.03902   0.04260   0.04309   0.04614

  Beta  occ. eigenvalues --  -19.05593 -19.04896 -10.20306 -10.20013 -10.16097
  Beta  occ. eigenvalues --  -10.16096 -10.15759 -10.15759 -10.15387 -10.15386
  Beta  occ. eigenvalues --  -10.15317 -10.15317 -10.14898 -10.14898 -10.14897
  Beta  occ. eigenvalues --  -10.14897 -10.14210 -10.14209 -10.14209 -10.14207
  Beta  occ. eigenvalues --   -0.97532  -0.96867  -0.81978  -0.80635  -0.77507
  Beta  occ. eigenvalues --   -0.77209  -0.75059  -0.70011  -0.67602  -0.67590
  Beta  occ. eigenvalues --   -0.66848  -0.66814  -0.65100  -0.62013  -0.59114
  Beta  occ. eigenvalues --   -0.56475  -0.55073  -0.52605  -0.51273  -0.47750
  Beta  occ. eigenvalues --   -0.45600  -0.44505  -0.43373  -0.42911  -0.42212
  Beta  occ. eigenvalues --   -0.42014  -0.41310  -0.41273  -0.40134  -0.40075
  Beta  occ. eigenvalues --   -0.39856  -0.39655  -0.38766  -0.38380  -0.38315
  Beta  occ. eigenvalues --   -0.37542  -0.37273  -0.36922  -0.35367  -0.33940
  Beta  occ. eigenvalues --   -0.33559  -0.33303  -0.33254  -0.32779  -0.32774
  Beta  occ. eigenvalues --   -0.32744  -0.32606  -0.31875  -0.31332  -0.30912
  Beta  occ. eigenvalues --   -0.29738  -0.29660  -0.22697  -0.22200  -0.21779
  Beta  occ. eigenvalues --   -0.20502
  Beta virt. eigenvalues --   -0.07367  -0.00672   0.00201   0.00686   0.00902
  Beta virt. eigenvalues --    0.01728   0.01753   0.02073   0.02287   0.02848
  Beta virt. eigenvalues --    0.02921   0.03732   0.04260   0.04308   0.04488

 Mulliken charges and spin densities:
               1          2
     1  C   -1.254997   0.126265
     2  C    0.550522   0.055557
     3  C    0.300870   0.086400
     4  C   -0.643120   0.116246
     5  C    0.300829   0.086394
     6  C    0.550492   0.055576
     7  O   -0.424204   0.237466
     8  O   -0.384806   0.249634
     9  C    0.176186  -0.004248
    10  C   -0.727895   0.003315
    11  C   -0.726986   0.003366
    12  C    0.674387  -0.026505
    13  C   -0.752883   0.010898
    14  C   -0.752287   0.010838
    15  C    0.176100  -0.004250
    16  C   -0.727345   0.003344
    17  C   -0.727589   0.003336
    18  C    0.674563  -0.026475
    19  C   -0.752732   0.010835
    20  C   -0.752458   0.010888
    21  H    0.204817  -0.002907
    22  H    0.147751   0.000131
    23  H    0.148748   0.000027
    24  H    0.151979  -0.000048
    25  H    0.148897   0.000023
    26  H    0.147602   0.000140
    27  H    0.152064  -0.000055
    28  H    0.122659  -0.001150
    29  H    0.123993  -0.000016
    30  H    0.150196   0.000278
    31  H    0.169522  -0.000567
    32  H    0.169444  -0.000557
    33  H    0.150233   0.000274
    34  H    0.123779  -0.000016
    35  H    0.204814  -0.002907
    36  H    0.147675   0.000137
    37  H    0.152073  -0.000055
    38  H    0.148790   0.000027
    39  H    0.147691   0.000134
    40  H    0.148856   0.000023
    41  H    0.151980  -0.000048
    42  H    0.122651  -0.001146
    43  H    0.150254   0.000273
    44  H    0.169387  -0.000552
    45  H    0.123900  -0.000017
    46  H    0.150250   0.000276
    47  H    0.123906  -0.000014
    48  H    0.169439  -0.000566
 Sum of Mulliken charges =  -1.00000   1.00000

 Dipole moment (field-independent basis, Debye):
    X=             -0.0006    Y=              0.7406    Z=              0.0112  Tot=              0.7407
 Quadrupole moment (field-independent basis, Debye-Ang):
   XX=           -135.0724   YY=           -169.8423   ZZ=           -135.1882
   XY=              0.0004   XZ=             -0.0005   YZ=              0.0029

 Normal termination of Gaussian 16 at Sun Jan 21 07:31:30 2024.
