 Gaussian 16, Revision A.03,
 Gaussian 16:  ES64L-G16RevA.03 25-Dec-2016

 --------------------------------------
 #P UB3LYP/6-311++G(d,p) nosym opt freq
 --------------------------------------

 -------
 Radical
 -------
 Symbolic Z-matrix:
 Charge = -1 Multiplicity = 2

 SCF Done:  E(UB3LYP) =  -853.522369451     A.U. after   20 cycles
 SCF Done:  E(UB3LYP) =  -853.522369365     A.U. after    8 cycles
 SCF Done:  E(UB3LYP) =  -853.522369434     A.U. after    8 cycles
 Optimization completed.
    -- Stationary point found.
 Normal termination of Gaussian 16 at Sat Jan  6 06:29:54 2024.

 ----------------------------------------------------------------------
 #P Geom=AllCheck Guess=TCheck SCRF=Check GenChk UB3LYP/6-311++G(d,p) F
 req
 ----------------------------------------------------------------------

 Structure from the checkpoint file:  "054-rad.chk"
 -------
 Radical
 -------
 Charge = -1 Multiplicity = 2

                          Input orientation:
 ---------------------------------------------------------------------
 Center     Atomic      Atomic             Coordinates (Angstroms)
 Number     Number       Type             X           Y           Z
 ---------------------------------------------------------------------
      1          6           0       -0.568023    2.089017   -0.087501
      2          6           0       -1.804191    1.301257   -0.065166
      3          6           0       -1.749839   -0.078479    0.000181
      4          6           0       -0.465097   -0.770890    0.047280
      5          6           0        0.766536    0.013165    0.023393
      6          6           0        0.721536    1.393301   -0.040878
      7          8           0       -0.613653    3.356789   -0.147129
      8          8           0       -0.419435   -2.039640    0.107810
      9          6           0        1.931927    2.331959   -0.071579
     10          6           0        2.776030    2.328365    1.219017
     11          6           0        2.798909    2.213059   -1.341352
     12          6           0        2.081477   -0.766314    0.072385
     13          6           0        2.255861   -1.560187    1.383914
     14          6           0        2.280446   -1.678199   -1.156353
     15          6           0       -3.078951    2.149283   -0.120405
     16          6           0       -3.942727    2.086574    1.155571
     17          6           0       -3.912784    1.965300   -1.404508
     18          6           0       -3.005371   -0.951395    0.026179
     19          6           0       -3.115186   -1.874591   -1.205290
     20          6           0       -3.145597   -1.756789    1.334844
     21          1           0        1.475559    3.322598   -0.120298
     22          1           0        3.512165    3.141729    1.189875
     23          1           0        3.322970    1.395597    1.380358
     24          1           0        2.135178    2.490774    2.090350
     25          1           0        3.344383    1.268096   -1.410266
     26          1           0        3.537949    3.023799   -1.370474
     27          1           0        2.174237    2.300131   -2.234932
     28          1           0        2.891793   -0.040153    0.046245
     29          1           0        2.175766   -0.897722    2.251721
     30          1           0        3.245330   -2.034594    1.412229
     31          1           0        1.490501   -2.331819    1.466910
     32          1           0        1.516304   -2.455038   -1.182420
     33          1           0        3.269915   -2.152161   -1.121369
     34          1           0        2.217807   -1.099099   -2.083240
     35          1           0       -2.694990    3.170387   -0.164270
     36          1           0       -4.737352    2.842107    1.110275
     37          1           0       -3.330950    2.299632    2.036832
     38          1           0       -4.420481    1.115698    1.311828
     39          1           0       -4.706221    2.722071   -1.450188
     40          1           0       -4.389527    0.984256   -1.478526
     41          1           0       -3.280170    2.092942   -2.287563
     42          1           0       -3.865644   -0.285934   -0.014821
     43          1           0       -4.068510   -2.418466   -1.188702
     44          1           0       -2.296748   -2.594398   -1.215954
     45          1           0       -3.076545   -1.292025   -2.131306
     46          1           0       -4.098636   -2.301332    1.345417
     47          1           0       -3.129343   -1.091035    2.203688
     48          1           0       -2.328272   -2.471337    1.432187
 ---------------------------------------------------------------------

 SCF Done:  E(UB3LYP) =  -853.522369434     A.U. after    1 cycles

 Alpha  occ. eigenvalues --  -18.93842 -18.93382 -10.08333 -10.08174 -10.05362
 Alpha  occ. eigenvalues --  -10.05362 -10.04930 -10.04930 -10.04850 -10.04849
 Alpha  occ. eigenvalues --  -10.04847 -10.04846 -10.03835 -10.03833 -10.03768
 Alpha  occ. eigenvalues --  -10.03767 -10.03662 -10.03661 -10.03661 -10.03658
 Alpha  occ. eigenvalues --   -0.86262  -0.85863  -0.70984  -0.69795  -0.66878
 Alpha  occ. eigenvalues --   -0.66625  -0.64282  -0.59100  -0.57469  -0.57460
 Alpha  occ. eigenvalues --   -0.56310  -0.56276  -0.54367  -0.51229  -0.48371
 Alpha  occ. eigenvalues --   -0.45846  -0.44324  -0.41681  -0.40139  -0.36769
 Alpha  occ. eigenvalues --   -0.34937  -0.33667  -0.32839  -0.32423  -0.31621
 Alpha  occ. eigenvalues --   -0.31418  -0.30967  -0.30704  -0.29888  -0.29530
 Alpha  occ. eigenvalues --   -0.29374  -0.29232  -0.28020  -0.27568  -0.27436
 Alpha  occ. eigenvalues --   -0.27026  -0.26851  -0.26338  -0.25223  -0.23341
 Alpha  occ. eigenvalues --   -0.23252  -0.23200  -0.22527  -0.22447  -0.22295
 Alpha  occ. eigenvalues --   -0.22078  -0.21915  -0.21347  -0.21061  -0.20056
 Alpha  occ. eigenvalues --   -0.18856  -0.18819  -0.13628  -0.10955  -0.10528
 Alpha  occ. eigenvalues --   -0.09105  -0.02259
 Alpha virt. eigenvalues --    0.07696   0.07958   0.08972   0.09296   0.09373
 Alpha virt. eigenvalues --    0.09904   0.10712   0.11065   0.11077   0.11640
 Alpha virt. eigenvalues --    0.12164   0.12395   0.12497   0.12733   0.13196

  Beta  occ. eigenvalues --  -18.93142 -18.92702 -10.08194 -10.08026 -10.05370
  Beta  occ. eigenvalues --  -10.05369 -10.04940 -10.04939 -10.04843 -10.04842
  Beta  occ. eigenvalues --  -10.04840 -10.04840 -10.03724 -10.03722 -10.03659
  Beta  occ. eigenvalues --  -10.03659 -10.03656 -10.03655 -10.03655 -10.03653
  Beta  occ. eigenvalues --   -0.85067  -0.84658  -0.70609  -0.69701  -0.66835
  Beta  occ. eigenvalues --   -0.66539  -0.63999  -0.58919  -0.57453  -0.57446
  Beta  occ. eigenvalues --   -0.56290  -0.56258  -0.53544  -0.51050  -0.48217
  Beta  occ. eigenvalues --   -0.45581  -0.44281  -0.41510  -0.39812  -0.36634
  Beta  occ. eigenvalues --   -0.34846  -0.33473  -0.32821  -0.32345  -0.31606
  Beta  occ. eigenvalues --   -0.31405  -0.30634  -0.30544  -0.29834  -0.29401
  Beta  occ. eigenvalues --   -0.29263  -0.29192  -0.27745  -0.27420  -0.27235
  Beta  occ. eigenvalues --   -0.26862  -0.26330  -0.26190  -0.24317  -0.23207
  Beta  occ. eigenvalues --   -0.23178  -0.22627  -0.22472  -0.22265  -0.21973
  Beta  occ. eigenvalues --   -0.21862  -0.21446  -0.20972  -0.19941  -0.19499
  Beta  occ. eigenvalues --   -0.18715  -0.18701  -0.10474  -0.10219  -0.09906
  Beta  occ. eigenvalues --   -0.08530
  Beta virt. eigenvalues --    0.04860   0.07697   0.07957   0.08974   0.09315
  Beta virt. eigenvalues --    0.09373   0.09919   0.10717   0.11090   0.11335
  Beta virt. eigenvalues --    0.11641   0.12162   0.12404   0.12495   0.12747

 Mulliken charges and spin densities:
               1          2
     1  C   -1.466004   0.089673
     2  C    0.693981   0.072492
     3  C    0.390487   0.083452
     4  C   -0.619144   0.105141
     5  C    0.390472   0.083435
     6  C    0.693792   0.072513
     7  O   -0.321337   0.258013
     8  O   -0.326986   0.252109
     9  C    0.152300  -0.005803
    10  C   -0.755119   0.003417
    11  C   -0.754011   0.003475
    12  C    0.719488  -0.028448
    13  C   -0.776839   0.011744
    14  C   -0.776400   0.011682
    15  C    0.152225  -0.005804
    16  C   -0.754493   0.003449
    17  C   -0.754664   0.003439
    18  C    0.719558  -0.028423
    19  C   -0.776632   0.011678
    20  C   -0.776441   0.011736
    21  H    0.228236  -0.003560
    22  H    0.118865   0.000294
    23  H    0.143170   0.000252
    24  H    0.149495   0.000107
    25  H    0.143328   0.000248
    26  H    0.118657   0.000307
    27  H    0.149681   0.000095
    28  H    0.084669  -0.001374
    29  H    0.113362  -0.000046
    30  H    0.119677   0.000333
    31  H    0.185535  -0.000719
    32  H    0.185401  -0.000708
    33  H    0.119737   0.000329
    34  H    0.113106  -0.000047
    35  H    0.228241  -0.003561
    36  H    0.118738   0.000303
    37  H    0.149654   0.000097
    38  H    0.143214   0.000252
    39  H    0.118787   0.000297
    40  H    0.143302   0.000247
    41  H    0.149502   0.000106
    42  H    0.084648  -0.001370
    43  H    0.119736   0.000328
    44  H    0.185350  -0.000702
    45  H    0.113277  -0.000049
    46  H    0.119753   0.000331
    47  H    0.113228  -0.000044
    48  H    0.185419  -0.000718
 Sum of Mulliken charges =  -1.00000   1.00000

 Dipole moment (field-independent basis, Debye):
    X=              2.4572    Y=             -2.5099    Z=              0.0664  Tot=              3.5131
 Quadrupole moment (field-independent basis, Debye-Ang):
   XX=           -151.9425   YY=           -169.7624   ZZ=           -137.1373
   XY=              1.9186   XZ=             -0.2134   YZ=              1.5113

  Exact polarizability: 279.585   0.267 273.255   1.002  -3.957 188.710
 Approx polarizability: 354.108  -3.740 458.808   1.025  -8.526 277.698

                      1                      2                      3
                      A                      A                      A
 Frequencies --     36.2908                40.2285                66.7626
 Red. masses --      3.1622                 3.4815                 4.0616
 Frc consts  --      0.0025                 0.0033                 0.0107
 IR Inten    --      0.0028                 2.8350                 1.8235

                      4                      5                      6
                      A                      A                      A
 Frequencies --     72.9995                85.2230                98.3190
 Red. masses --      2.4632                 3.4865                 3.0798
 Frc consts  --      0.0077                 0.0149                 0.0175
 IR Inten    --      0.0043                 0.1827                 2.4537

                      7                      8                      9
                      A                      A                      A
 Frequencies --    110.2805               158.2204               172.0504
 Red. masses --      2.6664                 2.8691                 1.9913
 Frc consts  --      0.0191                 0.0423                 0.0347
 IR Inten    --      0.0047                 1.4301                 0.0625

                     10                     11                     12
                      A                      A                      A
 Frequencies --    175.6626               183.0230               183.4190
 Red. masses --      2.0637                 2.5180                 2.2655
 Frc consts  --      0.0375                 0.0497                 0.0449
 IR Inten    --      1.6976                 0.3764                 1.1226

                     13                     14                     15
                      A                      A                      A
 Frequencies --    206.2603               206.9971               207.8360
 Red. masses --      1.1844                 1.1769                 1.1768
 Frc consts  --      0.0297                 0.0297                 0.0300
 IR Inten    --      0.0921                 0.0276                 0.4111

                     16                     17                     18
                      A                      A                      A
 Frequencies --    209.3742               225.2957               225.4880
 Red. masses --      1.2221                 1.4365                 1.2494
 Frc consts  --      0.0316                 0.0430                 0.0374
 IR Inten    --      0.6413                 0.1331                 0.0324

                     19                     20                     21
                      A                      A                      A
 Frequencies --    229.3482               234.4160               236.7242
 Red. masses --      1.4158                 1.1397                 1.5590
 Frc consts  --      0.0439                 0.0369                 0.0515
 IR Inten    --      0.9072                 1.0218                 0.2598

                     22                     23                     24
                      A                      A                      A
 Frequencies --    247.6381               266.7273               268.3494
 Red. masses --      2.1304                 3.1706                 3.4768
 Frc consts  --      0.0770                 0.1329                 0.1475
 IR Inten    --      0.0201                 0.0475                 0.9785

                     25                     26                     27
                      A                      A                      A
 Frequencies --    295.2450               302.4016               321.7998
 Red. masses --      2.7079                 3.8581                 2.8995
 Frc consts  --      0.1391                 0.2079                 0.1769
 IR Inten    --      2.8124                 1.1163                 2.8995

                     28                     29                     30
                      A                      A                      A
 Frequencies --    393.1528               422.0954               434.9652
 Red. masses --      4.5324                 2.5307                 5.4638
 Frc consts  --      0.4128                 0.2657                 0.6091
 IR Inten    --      0.5586                 0.3232                19.0993

                     31                     32                     33
                      A                      A                      A
 Frequencies --    443.0959               448.3064               461.4462
 Red. masses --      3.0028                 2.5617                 3.4162
 Frc consts  --      0.3474                 0.3033                 0.4286
 IR Inten    --      1.2515                 2.0564                12.1588

                     34                     35                     36
                      A                      A                      A
 Frequencies --    496.5901               506.2210               519.5647
 Red. masses --      5.6059                 6.6481                 5.2369
 Frc consts  --      0.8145                 1.0038                 0.8329
 IR Inten    --      1.2203                 0.0019                 0.0001

                     37                     38                     39
                      A                      A                      A
 Frequencies --    527.3660               557.7789               595.1761
 Red. masses --      2.9087                 3.0999                 2.9622
 Frc consts  --      0.4766                 0.5682                 0.6182
 IR Inten    --      0.2777                 0.0024                 8.7193

                     40                     41                     42
                      A                      A                      A
 Frequencies --    683.8400               725.1652               754.8935
 Red. masses --      6.8375                 6.0699                 9.1180
 Frc consts  --      1.8839                 1.8806                 3.0614
 IR Inten    --      0.0000                 3.2278                 9.4082

                     43                     44                     45
                      A                      A                      A
 Frequencies --    798.0141               823.9980               830.9770
 Red. masses --      2.8285                 9.0770                 3.1860
 Frc consts  --      1.0613                 3.6312                 1.2962
 IR Inten    --     18.6323                 0.0478                 0.4702

                     46                     47                     48
                      A                      A                      A
 Frequencies --    856.5061               869.8282               918.3904
 Red. masses --      3.1062                 2.8903                 2.3852
 Frc consts  --      1.3426                 1.2884                 1.1853
 IR Inten    --      2.3407                11.1720                 3.9877

                     49                     50                     51
                      A                      A                      A
 Frequencies --    922.9821               923.4782               931.9587
 Red. masses --      1.1748                 1.1768                 1.2442
 Frc consts  --      0.5897                 0.5913                 0.6367
 IR Inten    --      0.2607                 2.2915                 0.0035

                     52                     53                     54
                      A                      A                      A
 Frequencies --    932.1677               945.4134               957.7707
 Red. masses --      1.2449                 2.5565                 1.5062
 Frc consts  --      0.6374                 1.3463                 0.8140
 IR Inten    --      0.3893                18.6596                 0.0119

                     55                     56                     57
                      A                      A                      A
 Frequencies --    957.8873               962.4267               962.7639
 Red. masses --      1.5067                 1.4167                 1.4197
 Frc consts  --      0.8145                 0.7731                 0.7753
 IR Inten    --      0.5235                 0.0091                 0.0538

                     58                     59                     60
                      A                      A                      A
 Frequencies --    969.2068              1023.8748              1091.5238
 Red. masses --      2.3978                 2.2239                 2.0759
 Frc consts  --      1.3271                 1.3736                 1.4572
 IR Inten    --      0.4465                22.3774                50.0055

                     61                     62                     63
                      A                      A                      A
 Frequencies --   1100.4468              1118.1104              1119.1205
 Red. masses --      1.9611                 2.6080                 2.6120
 Frc consts  --      1.3992                 1.9210                 1.9274
 IR Inten    --      6.1393                 0.1256                14.2909

                     64                     65                     66
                      A                      A                      A
 Frequencies --   1121.7580              1122.6619              1130.3532
 Red. masses --      2.5997                 2.5828                 1.8605
 Frc consts  --      1.9274                 1.9179                 1.4005
 IR Inten    --      2.0189                 0.0040                 6.2542

                     67                     68                     69
                      A                      A                      A
 Frequencies --   1130.9049              1172.0885              1191.7948
 Red. masses --      1.7697                 2.7389                 2.0605
 Frc consts  --      1.3335                 2.2169                 1.7244
 IR Inten    --     40.5494                 7.1618                 0.2076

                     70                     71                     72
                      A                      A                      A
 Frequencies --   1194.3047              1199.9927              1201.7935
 Red. masses --      2.2795                 2.1878                 2.4308
 Frc consts  --      1.9157                 1.8562                 2.0685
 IR Inten    --     11.7965                 0.0581                 9.5093

                     73                     74                     75
                      A                      A                      A
 Frequencies --   1270.7037              1349.2537              1353.0673
 Red. masses --      3.7246                 1.8676                 1.4882
 Frc consts  --      3.5434                 2.0031                 1.6053
 IR Inten    --     10.7687                 0.1402                28.0222

                     76                     77                     78
                      A                      A                      A
 Frequencies --   1355.4033              1356.2475              1357.0380
 Red. masses --      1.2712                 1.2507                 1.4104
 Frc consts  --      1.3759                 1.3554                 1.5303
 IR Inten    --      1.3061                 0.5418                 6.6390

                     79                     80                     81
                      A                      A                      A
 Frequencies --   1369.8473              1370.3284              1384.5419
 Red. masses --      1.2229                 1.2227                 1.4393
 Frc consts  --      1.3520                 1.3528                 1.6256
 IR Inten    --      2.3789                15.4713                 0.4105

                     82                     83                     84
                      A                      A                      A
 Frequencies --   1388.4086              1389.8256              1392.1147
 Red. masses --      1.2772                 1.2178                 1.2062
 Frc consts  --      1.4506                 1.3859                 1.3773
 IR Inten    --     79.5711                 5.7176                 3.5753

                     85                     86                     87
                      A                      A                      A
 Frequencies --   1392.6125              1397.0181              1397.1678
 Red. masses --      1.2049                 1.2269                 1.2268
 Frc consts  --      1.3767                 1.4108                 1.4110
 IR Inten    --     18.2946                 3.2788                 0.0133

                     88                     89                     90
                      A                      A                      A
 Frequencies --   1403.8030              1410.0072              1443.2384
 Red. masses --      1.3007                 1.2395                 2.7871
 Frc consts  --      1.5102                 1.4520                 3.4204
 IR Inten    --      5.5967                11.3091                 0.0232

                     91                     92                     93
                      A                      A                      A
 Frequencies --   1473.8969              1475.6963              1476.0763
 Red. masses --      1.9539                 1.0422                 1.0415
 Frc consts  --      2.5008                 1.3371                 1.3370
 IR Inten    --    153.6914                 0.3572                 0.3106

                     94                     95                     96
                      A                      A                      A
 Frequencies --   1488.6698              1488.7612              1489.1083
 Red. masses --      1.0869                 4.2455                 1.0428
 Frc consts  --      1.4192                 5.5441                 1.3624
 IR Inten    --      8.8835               165.9374                 0.6092

                     97                     98                     99
                      A                      A                      A
 Frequencies --   1489.9419              1493.5267              1493.7899
 Red. masses --      1.0528                 1.0530                 1.0526
 Frc consts  --      1.3771                 1.3839                 1.3839
 IR Inten    --      2.1587                 0.3286                 1.2050

                    100                    101                    102
                      A                      A                      A
 Frequencies --   1498.6531              1499.4543              1505.0708
 Red. masses --      1.0638                 1.0747                 1.6296
 Frc consts  --      1.4077                 1.4237                 2.1749
 IR Inten    --      0.0495                 0.0177                32.1467

                    103                    104                    105
                      A                      A                      A
 Frequencies --   1506.6468              1507.1777              1508.3164
 Red. masses --      1.0530                 1.1030                 1.0780
 Frc consts  --      1.4084                 1.4763                 1.4449
 IR Inten    --      0.2080                13.8953                 0.1315

                    106                    107                    108
                      A                      A                      A
 Frequencies --   1508.4156              1516.9719              1524.9930
 Red. masses --      1.0506                 2.1197                 1.4276
 Frc consts  --      1.4084                 2.8740                 1.9561
 IR Inten    --      1.6763                55.3794                 8.3089

                    109                    110                    111
                      A                      A                      A
 Frequencies --   1525.7830              1613.5425              2992.1322
 Red. masses --      1.1212                 7.5954                 1.0451
 Frc consts  --      1.5379                11.6509                 5.5127
 IR Inten    --      6.6628                 0.0012                 0.8261

                    112                    113                    114
                      A                      A                      A
 Frequencies --   2992.2701              2996.5637              2996.6469
 Red. masses --      1.0452                 1.0435                 1.0436
 Frc consts  --      5.5138                 5.5207                 5.5212
 IR Inten    --     80.4429                15.9015                59.3740

                    115                    116                    117
                      A                      A                      A
 Frequencies --   2997.8584              2998.7735              3002.1282
 Red. masses --      1.0451                 1.0450                 1.0434
 Frc consts  --      5.5339                 5.5368                 5.5406
 IR Inten    --    219.4283               158.0467               244.6865

                    118                    119                    120
                      A                      A                      A
 Frequencies --   3003.3830              3044.3295              3045.1462
 Red. masses --      1.0432                 1.0862                 1.0861
 Frc consts  --      5.5441                 5.9312                 5.9340
 IR Inten    --     36.8013                10.5420                42.2798

                    121                    122                    123
                      A                      A                      A
 Frequencies --   3053.2910              3053.6813              3056.2997
 Red. masses --      1.0936                 1.0934                 1.0936
 Frc consts  --      6.0066                 6.0073                 6.0187
 IR Inten    --      0.1687                45.7099                42.6492

                    124                    125                    126
                      A                      A                      A
 Frequencies --   3056.6579              3058.2089              3058.4538
 Red. masses --      1.0937                 1.0901                 1.0900
 Frc consts  --      6.0205                 6.0068                 6.0076
 IR Inten    --     65.7868                 2.7002                70.7994

                    127                    128                    129
                      A                      A                      A
 Frequencies --   3066.8522              3067.4475              3082.4031
 Red. masses --      1.0909                 1.0912                 1.1016
 Frc consts  --      6.0452                 6.0495                 6.1668
 IR Inten    --    123.9355                38.1520                 1.5369

                    130                    131                    132
                      A                      A                      A
 Frequencies --   3082.5806              3086.2512              3086.7325
 Red. masses --      1.1016                 1.0933                 1.0931
 Frc consts  --      6.1675                 6.1354                 6.1364
 IR Inten    --     18.7094                 2.1769                49.8104

                    133                    134                    135
                      A                      A                      A
 Frequencies --   3100.0319              3100.4388              3116.2968
 Red. masses --      1.0872                 1.0869                 1.0971
 Frc consts  --      6.1557                 6.1556                 6.2773
 IR Inten    --     30.1503                32.8488                 0.0014

                    136                    137                    138
                      A                      A                      A
 Frequencies --   3116.5737              3126.0807              3126.5846
 Red. masses --      1.0970                 1.0936                 1.0936
 Frc consts  --      6.2780                 6.2967                 6.2984
 IR Inten    --      0.0081                38.4849                24.2506

 - Thermochemistry -
 -------------------
 Temperature   298.150 Kelvin.  Pressure   1.00000 Atm.
 Atom     1 has atomic number  6 and mass  12.00000

 Molecular mass:   276.20893 amu.
 Principal axes and moments of inertia in atomic units:
                           1         2         3
     Eigenvalues --  4095.299346376.639548883.70771
           X            0.99929  -0.03594  -0.01108
           Y            0.03642   0.99825   0.04669
           Z            0.00938  -0.04706   0.99885
 This molecule is an asymmetric top.
 Rotational symmetry number  1.
 Warning -- assumption of classical behavior for rotation
           may cause significant error
 Rotational temperatures (Kelvin)      0.02115     0.01358     0.00975
 Rotational constants (GHZ):           0.44069     0.28302     0.20315
 Zero-point vibrational energy    1100251.9 (Joules/Mol)
                                  262.96651 (Kcal/Mol)
 Warning -- explicit consideration of  39 degrees of freedom as
           vibrations may cause significant error
 Vibrational temperatures:     52.21    57.88    96.06   105.03   122.62
          (Kelvin)            141.46   158.67   227.64   247.54   252.74
                              263.33   263.90   296.76   297.82   299.03
                              301.24   324.15   324.43   329.98   337.27
                              340.59   356.30   383.76   386.09   424.79
                              435.09   463.00   565.66   607.30   625.82
                              637.52   645.01   663.92   714.48   728.34
                              747.54   758.76   802.52   856.33   983.89
                             1043.35  1086.12  1148.16  1185.55  1195.59
                             1232.32  1251.49  1321.36  1327.97  1328.68
                             1340.88  1341.18  1360.24  1378.02  1378.19
                             1384.72  1385.20  1394.47  1473.13  1570.46
                             1583.30  1608.71  1610.16  1613.96  1615.26
                             1626.33  1627.12  1686.37  1714.73  1718.34
                             1726.52  1729.11  1828.26  1941.28  1946.76
                             1950.12  1951.34  1952.47  1970.90  1971.60
                             1992.05  1997.61  1999.65  2002.94  2003.66
                             2010.00  2010.21  2019.76  2028.69  2076.50
                             2120.61  2123.20  2123.74  2141.86  2142.00
                             2142.49  2143.69  2148.85  2149.23  2156.23
                             2157.38  2165.46  2167.73  2168.49  2170.13
                             2170.27  2182.58  2194.12  2195.26  2321.53
                             4305.01  4305.21  4311.39  4311.51  4313.25
                             4314.57  4319.39  4321.20  4380.11  4381.29
                             4393.00  4393.57  4397.33  4397.85  4400.08
                             4400.43  4412.52  4413.37  4434.89  4435.15
                             4440.43  4441.12  4460.25  4460.84  4483.66
                             4484.05  4497.73  4498.46

 Zero-point correction=                           0.419064 (Hartree/Particle)
 Thermal correction to Energy=                    0.442446
 Thermal correction to Enthalpy=                  0.443390
 Thermal correction to Gibbs Free Energy=         0.367759
 Sum of electronic and zero-point Energies=           -853.103306
 Sum of electronic and thermal Energies=              -853.079923
 Sum of electronic and thermal Enthalpies=            -853.078979
 Sum of electronic and thermal Free Energies=         -853.154610

                     E (Thermal)             CV                S
                      KCal/Mol        Cal/Mol-Kelvin    Cal/Mol-Kelvin
 Total                  277.639             88.327            159.179
 Electronic               0.000              0.000              1.377
 Translational            0.889              2.981             42.746
 Rotational               0.889              2.981             33.805
 Vibrational            275.862             82.366             81.250
 Vibration     1          0.594              1.982              5.452
 Vibration     2          0.594              1.981              5.248
 Vibration     3          0.598              1.970              4.247
 Vibration     4          0.599              1.967              4.071
 Vibration     5          0.601              1.959              3.767
 Vibration     6          0.604              1.950              3.487
 Vibration     7          0.606              1.941              3.264
 Vibration     8          0.621              1.893              2.571
 Vibration     9          0.626              1.877              2.413
 Vibration    10          0.628              1.872              2.374
 Vibration    11          0.631              1.863              2.297
 Vibration    12          0.631              1.862              2.293
 Vibration    13          0.641              1.831              2.077
 Vibration    14          0.641              1.830              2.070
 Vibration    15          0.641              1.829              2.063
 Vibration    16          0.642              1.826              2.049
 Vibration    17          0.650              1.803              1.916
 Vibration    18          0.650              1.802              1.915
 Vibration    19          0.652              1.796              1.884
 Vibration    20          0.654              1.788              1.845
 Vibration    21          0.656              1.785              1.827
 Vibration    22          0.661              1.767              1.747
 Vibration    23          0.672              1.734              1.617
 Vibration    24          0.673              1.731              1.607
 Vibration    25          0.689              1.683              1.444
 Vibration    26          0.694              1.669              1.404
 Vibration    27          0.707              1.632              1.301
 Vibration    28          0.760              1.485              0.988
 Vibration    29          0.784              1.422              0.885
 Vibration    30          0.796              1.394              0.843
 Vibration    31          0.803              1.376              0.817
 Vibration    32          0.807              1.365              0.801
 Vibration    33          0.819              1.336              0.762
 Vibration    34          0.852              1.258              0.667
 Vibration    35          0.861              1.236              0.643
 Vibration    36          0.875              1.207              0.611
 Vibration    37          0.882              1.189              0.593
 Vibration    38          0.913              1.123              0.528
 Vibration    39          0.953              1.042              0.458

 Optimization completed.
    -- Stationary point found.
 Normal termination of Gaussian 16 at Sat Jan  6 12:57:06 2024.
