 Q-Chem 5.4, Q-Chem, Inc., Pleasanton, CA (2021)
 Q-Chem 5.4.0 for Intel X86 EM64T Linux

User input:
--------------------------------------------------------------
$molecule
0 1
C                 -1.5704020000     -1.5506520000     -0.6407250000
C                 -1.1907760000     -0.1379610000     -0.1289980000
C                 -1.5595950000      0.0011080000      1.3697260000
C                 -2.0172300000      0.8930900000     -0.9203600000
C                  0.3121780000      0.0960540000     -0.3179050000
C                  0.8170460000      1.0805920000     -1.0817010000
C                  2.2577430000      1.3339590000     -1.2854100000
O                  2.6382960000      2.2457610000     -1.9923560000
C                  3.2215540000      0.4261550000     -0.5887630000
C                  2.7605330000     -0.5740410000      0.1868290000
Cl                 3.8059070000     -1.6630810000      1.0231640000
C                  1.2845160000     -0.8167600000      0.3820590000
O                  0.9228440000     -1.7318790000      1.0907700000
Cl                 4.8964530000      0.7429090000     -0.8424680000
H                 -1.0729420000     -2.3351480000     -0.0730640000
H                 -2.6507570000     -1.6897230000     -0.5439220000
H                 -1.3132050000     -1.6646740000     -1.6978890000
H                 -1.0617450000     -0.7492050000      1.9815250000
H                 -2.6398140000     -0.1223620000      1.4870210000
H                 -1.2948920000      0.9936370000      1.7460080000
H                 -3.0795290000      0.6945860000     -0.7610220000
H                 -1.8302620000      0.8325980000     -1.9960750000
H                 -1.8222570000      1.9174480000     -0.5910300000
H                  0.1863340000      1.7775910000     -1.6170050000
$end

$rem
BASIS  =  6-311++G(d,p)
GUI  =  2
JOB_TYPE  =  SP
METHOD  =  B3LYP
SCF_CONVERGENCE  = 8
SOLVENT_METHOD = sm12
$end

$smx
solvent dimethylformamide
charges CM5
$end

--------------------------------------------------------------

             Standard Nuclear Orientation (Angstroms)
    I     Atom           X                Y                Z
 ----------------------------------------------------------------
    1      C      -1.5704020000    -1.5506520000    -0.6407250000
    2      C      -1.1907760000    -0.1379610000    -0.1289980000
    3      C      -1.5595950000     0.0011080000     1.3697260000
    4      C      -2.0172300000     0.8930900000    -0.9203600000
    5      C       0.3121780000     0.0960540000    -0.3179050000
    6      C       0.8170460000     1.0805920000    -1.0817010000
    7      C       2.2577430000     1.3339590000    -1.2854100000
    8      O       2.6382960000     2.2457610000    -1.9923560000
    9      C       3.2215540000     0.4261550000    -0.5887630000
   10      C       2.7605330000    -0.5740410000     0.1868290000
   11      Cl      3.8059070000    -1.6630810000     1.0231640000
   12      C       1.2845160000    -0.8167600000     0.3820590000
   13      O       0.9228440000    -1.7318790000     1.0907700000
   14      Cl      4.8964530000     0.7429090000    -0.8424680000
   15      H      -1.0729420000    -2.3351480000    -0.0730640000
   16      H      -2.6507570000    -1.6897230000    -0.5439220000
   17      H      -1.3132050000    -1.6646740000    -1.6978890000
   18      H      -1.0617450000    -0.7492050000     1.9815250000
   19      H      -2.6398140000    -0.1223620000     1.4870210000
   20      H      -1.2948920000     0.9936370000     1.7460080000
   21      H      -3.0795290000     0.6945860000    -0.7610220000
   22      H      -1.8302620000     0.8325980000    -1.9960750000
   23      H      -1.8222570000     1.9174480000    -0.5910300000
   24      H       0.1863340000     1.7775910000    -1.6170050000
 ----------------------------------------------------------------

   15   -1458.0959499094      7.42e-09  Convergence criterion met
 Total energy in the final basis set =    -1458.1082187350

                    Orbital Energies (a.u.)
 --------------------------------------------------------------

 Alpha MOs
 -- Occupied --
********-101.5828 -19.1540 -19.1507 -10.3068 -10.3016 -10.2827 -10.2812
-10.2298 -10.2139 -10.2085 -10.1631 -10.1630 -10.1630  -9.4983  -9.4974
 -7.2630  -7.2624  -7.2535  -7.2525  -7.2521  -7.2511  -1.0913  -1.0848
 -0.9368  -0.8828  -0.8706  -0.8191  -0.7659  -0.7158  -0.6932  -0.6926
 -0.6411  -0.6237  -0.5631  -0.5502  -0.5146  -0.4913  -0.4813  -0.4790
 -0.4629  -0.4598  -0.4472  -0.4427  -0.4406  -0.4197  -0.4053  -0.3881
 -0.3858  -0.3716  -0.3672  -0.3618  -0.3512  -0.3472  -0.3425  -0.3302
 -0.3094  -0.3009  -0.2911  -0.2834

          Ground-State Mulliken Net Atomic Charges

     Atom                 Charge (a.u.)
  ----------------------------------------
      1 C                    -0.700571
      2 C                     0.404030
      3 C                    -0.700217
      4 C                     0.012263
      5 C                     1.353938
      6 C                     0.199997
      7 C                    -1.418926
      8 O                    -0.239166
      9 C                     0.614169
     10 C                    -0.378497
     11 Cl                    0.428864
     12 C                    -1.564794
     13 O                    -0.160096
     14 Cl                    0.373099
     15 H                     0.118835
     16 H                     0.192813
     17 H                     0.142755
     18 H                     0.118715
     19 H                     0.192872
     20 H                     0.142685
     21 H                     0.205028
     22 H                     0.163299
     23 H                     0.163689
     24 H                     0.335218
  ----------------------------------------
  Sum of atomic charges =     0.000000

                    Cartesian Multipole Moments
 -----------------------------------------------------------------
    Charge (ESU x 10^10)
                 0.0000
    Dipole Moment (Debye)
         X      -3.4018      Y       0.0310      Z      -0.0047
       Tot       3.4020
    Quadrupole Moments (Debye-Ang)
        XX    -101.4166     XY      -4.9450     YY    -105.1256
        XZ       4.6757     YZ       7.4239     ZZ    -101.3016

 Total job time:  409.38s(wall), 2976.75s(cpu)
        *  Thank you very much for using Q-Chem.  Have a nice day.  *
