 Gaussian 16, Revision A.03,
 Gaussian 16:  ES64L-G16RevA.03 25-Dec-2016

 ----------------------------------------------------------------
 #P UB3LYP/6-311++G(d,p) SCRF=(PCM,Solvent=n,n-DiMethylFormamide)
 ----------------------------------------------------------------

 ------------------
 Quinone PCM in DMF
 ------------------
 Symbolic Z-matrix:
 Charge =  0 Multiplicity = 1

                         Standard orientation:
 ---------------------------------------------------------------------
 Center     Atomic      Atomic             Coordinates (Angstroms)
 Number     Number       Type             X           Y           Z
 ---------------------------------------------------------------------
      1          6           0       -3.029517   -0.756741    0.000046
      2          6           0       -1.541073   -0.588890    0.000024
      3          6           0       -0.669341   -1.608718   -0.000072
      4          6           0        0.793074   -1.404013   -0.000045
      5          8           0        1.546610   -2.367358   -0.000159
      6          6           0        1.322315   -0.005152    0.000156
      7          6           0        0.464472    1.041503   -0.000487
      8          6           0        0.932110    2.470418   -0.000493
      9          6           0       -1.013486    0.813498   -0.000002
     10          8           0       -1.794449    1.752972    0.000301
     11          6           0        2.814916    0.164507    0.000505
     12          1           0       -3.471855   -0.271688   -0.874387
     13          1           0       -3.303104   -1.812520   -0.000130
     14          1           0       -3.471784   -0.271990    0.874682
     15          1           0       -0.991726   -2.644902   -0.000197
     16          1           0        1.537461    2.683278    0.886535
     17          1           0        0.083241    3.151539   -0.013751
     18          1           0        1.561156    2.675944   -0.872376
     19          1           0        3.144357    0.733293    0.875908
     20          1           0        3.308150   -0.805966    0.007915
     21          1           0        3.146008    0.719623   -0.883140
 ---------------------------------------------------------------------

 SCF Done:  E(UB3LYP) =  -499.562072475     A.U. after   14 cycles

 The electronic state is 1-A.
 Alpha  occ. eigenvalues --  -19.13990 -19.13717 -10.28333 -10.28121 -10.21797
 Alpha  occ. eigenvalues --  -10.21109 -10.21032 -10.20039 -10.17791 -10.17352
 Alpha  occ. eigenvalues --  -10.17341  -1.07165  -1.06756  -0.86737  -0.82426
 Alpha  occ. eigenvalues --   -0.74960  -0.73606  -0.69218  -0.66297  -0.59771
 Alpha  occ. eigenvalues --   -0.57873  -0.53731  -0.49369  -0.47075  -0.46707
 Alpha  occ. eigenvalues --   -0.44440  -0.43727  -0.43018  -0.42378  -0.42351
 Alpha  occ. eigenvalues --   -0.41179  -0.40653  -0.39777  -0.39586  -0.38327
 Alpha  occ. eigenvalues --   -0.37506  -0.30011  -0.29151  -0.27503  -0.27354
 Alpha virt. eigenvalues --   -0.12978  -0.02179  -0.00923   0.00227   0.00353
 Alpha virt. eigenvalues --    0.01261   0.02657   0.02896   0.03252   0.03873
 Alpha virt. eigenvalues --    0.04138   0.05866   0.06157   0.06237   0.06953

  Beta  occ. eigenvalues --  -19.13990 -19.13717 -10.28333 -10.28121 -10.21797
  Beta  occ. eigenvalues --  -10.21109 -10.21032 -10.20039 -10.17791 -10.17352
  Beta  occ. eigenvalues --  -10.17341  -1.07165  -1.06756  -0.86737  -0.82426
  Beta  occ. eigenvalues --   -0.74960  -0.73606  -0.69218  -0.66297  -0.59771
  Beta  occ. eigenvalues --   -0.57873  -0.53731  -0.49369  -0.47075  -0.46707
  Beta  occ. eigenvalues --   -0.44440  -0.43727  -0.43018  -0.42378  -0.42351
  Beta  occ. eigenvalues --   -0.41179  -0.40653  -0.39777  -0.39586  -0.38327
  Beta  occ. eigenvalues --   -0.37506  -0.30011  -0.29151  -0.27503  -0.27354
  Beta virt. eigenvalues --   -0.12978  -0.02179  -0.00923   0.00227   0.00353
  Beta virt. eigenvalues --    0.01261   0.02657   0.02896   0.03252   0.03873
  Beta virt. eigenvalues --    0.04138   0.05866   0.06157   0.06237   0.06953

 Mulliken charges and spin densities:
               1          2
     1  C   -0.264319   0.000000
     2  C    1.041346  -0.000000
     3  C   -0.526506   0.000000
     4  C   -0.845840  -0.000000
     5  O   -0.297327   0.000000
     6  C    0.988694   0.000000
     7  C    0.298776  -0.000000
     8  C   -0.573738   0.000000
     9  C   -0.905724  -0.000000
    10  O   -0.275369  -0.000000
    11  C   -0.464641  -0.000000
    12  H    0.186104   0.000000
    13  H    0.173359  -0.000000
    14  H    0.186178   0.000000
    15  H    0.200069   0.000000
    16  H    0.173124  -0.000000
    17  H    0.195218  -0.000000
    18  H    0.171058  -0.000000
    19  H    0.173670   0.000000
    20  H    0.191150  -0.000000
    21  H    0.174719   0.000000
 Sum of Mulliken charges =  -0.00000   0.00000

 Dipole moment (field-independent basis, Debye):
    X=             -0.0424    Y=              1.0035    Z=              0.0009  Tot=              1.0044
 Quadrupole moment (field-independent basis, Debye-Ang):
   XX=            -64.1033   YY=            -74.4815   ZZ=            -64.5510
   XY=             15.7392   XZ=              0.0015   YZ=              0.0028

 Normal termination of Gaussian 16 at Sun Jan 21 07:01:45 2024.
