 Gaussian 16, Revision A.03,
 Gaussian 16:  ES64L-G16RevA.03 25-Dec-2016

 ----------------------------------------------------------------------
 #P UB3LYP/6-311++G(d,p) nosym opt freq SCRF=(PCM,Solvent=n,n-DiMethylF
 ormamide)
 ----------------------------------------------------------------------

 -------
 Reduced
 -------
 Symbolic Z-matrix:
 Charge = -2 Multiplicity = 1

 SCF Done:  E(UB3LYP) =  -653.471559867     A.U. after   19 cycles
 SCF Done:  E(UB3LYP) =  -653.472401291     A.U. after   14 cycles
 SCF Done:  E(UB3LYP) =  -653.472543337     A.U. after   13 cycles
 SCF Done:  E(UB3LYP) =  -653.472576341     A.U. after   12 cycles
 SCF Done:  E(UB3LYP) =  -653.472582281     A.U. after   11 cycles
 SCF Done:  E(UB3LYP) =  -653.472586118     A.U. after   10 cycles
 SCF Done:  E(UB3LYP) =  -653.472588035     A.U. after   11 cycles
 SCF Done:  E(UB3LYP) =  -653.472589242     A.U. after   10 cycles
 SCF Done:  E(UB3LYP) =  -653.472590508     A.U. after   10 cycles
 SCF Done:  E(UB3LYP) =  -653.472590879     A.U. after   10 cycles
 SCF Done:  E(UB3LYP) =  -653.472616164     A.U. after   10 cycles
 SCF Done:  E(UB3LYP) =  -653.472614009     A.U. after   12 cycles
 SCF Done:  E(UB3LYP) =  -653.472562202     A.U. after   13 cycles
 SCF Done:  E(UB3LYP) =  -653.472613533     A.U. after   12 cycles
 SCF Done:  E(UB3LYP) =  -653.472616360     A.U. after   10 cycles
 SCF Done:  E(UB3LYP) =  -653.472617544     A.U. after   11 cycles
 SCF Done:  E(UB3LYP) =  -653.472617632     A.U. after    9 cycles
 SCF Done:  E(UB3LYP) =  -653.472617600     A.U. after    8 cycles
 SCF Done:  E(UB3LYP) =  -653.472617659     A.U. after    9 cycles
 Optimization completed.
    -- Stationary point found.
 Normal termination of Gaussian 16 at Sun Feb 11 05:11:14 2024.

 ----------------------------------------------------------------------
 #P Geom=AllCheck Guess=TCheck SCRF=Check GenChk UB3LYP/6-311++G(d,p) F
 req
 ----------------------------------------------------------------------

 Structure from the checkpoint file:  "255-an.chk"
 -------
 Reduced
 -------
 Charge = -2 Multiplicity = 1

                          Input orientation:
 ---------------------------------------------------------------------
 Center     Atomic      Atomic             Coordinates (Angstroms)
 Number     Number       Type             X           Y           Z
 ---------------------------------------------------------------------
      1          6           0       -1.624164    2.788388    0.039405
      2          6           0       -2.877955    2.227157    0.084386
      3          6           0       -3.001854    0.819066    0.099703
      4          6           0       -0.447521    1.992946    0.011586
      5          6           0       -0.565318    0.544698    0.038525
      6          6           0       -1.893466   -0.016050    0.077071
      7          6           0        0.830824    2.674140   -0.041757
      8          6           0        1.972318    1.841210   -0.058349
      9          6           0        1.876027    0.422842   -0.028964
     10          6           0        0.639786   -0.277622    0.027239
     11          8           0        0.894602    3.990506   -0.071756
     12          8           0        0.590451   -1.587659    0.069483
     13          6           0        3.336201    2.494757   -0.105118
     14          6           0        3.147027   -0.398865   -0.052225
     15          6           0       -2.175263   -1.506757    0.088299
     16          1           0       -1.489781    3.863421    0.021607
     17          1           0       -3.767114    2.851093    0.105518
     18          1           0       -3.992604    0.373535    0.127688
     19          1           0        3.220778    3.578548   -0.071288
     20          1           0        3.891679    2.240188   -1.018157
     21          1           0        3.974032    2.188315    0.734115
     22          1           0        3.776310   -0.224137    0.831923
     23          1           0        3.776620   -0.170296   -0.922203
     24          1           0        2.890816   -1.457970   -0.079160
     25          1           0       -1.726051   -2.001487    0.950248
     26          1           0       -1.758986   -2.006905   -0.787455
     27          1           0       -3.257674   -1.673460    0.107915
 ---------------------------------------------------------------------

 SCF Done:  E(UB3LYP) =  -653.472617659     A.U. after    1 cycles

 Alpha  occ. eigenvalues --  -19.00378 -18.99992 -10.16043 -10.15622 -10.15498
 Alpha  occ. eigenvalues --  -10.14123 -10.13704 -10.13697 -10.13523 -10.13496
 Alpha  occ. eigenvalues --  -10.13116 -10.12945 -10.12934 -10.11952 -10.11753
 Alpha  occ. eigenvalues --   -0.91306  -0.90835  -0.81904  -0.77256  -0.73976
 Alpha  occ. eigenvalues --   -0.71903  -0.69083  -0.65858  -0.63613  -0.61410
 Alpha  occ. eigenvalues --   -0.55424  -0.54987  -0.49995  -0.46906  -0.45245
 Alpha  occ. eigenvalues --   -0.43021  -0.41584  -0.40317  -0.39144  -0.38758
 Alpha  occ. eigenvalues --   -0.37400  -0.36725  -0.36126  -0.35491  -0.34689
 Alpha  occ. eigenvalues --   -0.34468  -0.34454  -0.33861  -0.31754  -0.30145
 Alpha  occ. eigenvalues --   -0.29841  -0.29498  -0.28932  -0.21625  -0.21072
 Alpha  occ. eigenvalues --   -0.19393  -0.18647  -0.17752  -0.10315
 Alpha virt. eigenvalues --   -0.00128   0.00350   0.00756   0.01331   0.01688
 Alpha virt. eigenvalues --    0.02683   0.02832   0.03438   0.04487   0.04538
 Alpha virt. eigenvalues --    0.04977   0.05167   0.06011   0.06691   0.07613

  Beta  occ. eigenvalues --  -19.00378 -18.99992 -10.16043 -10.15622 -10.15498
  Beta  occ. eigenvalues --  -10.14123 -10.13704 -10.13697 -10.13523 -10.13496
  Beta  occ. eigenvalues --  -10.13116 -10.12945 -10.12934 -10.11952 -10.11753
  Beta  occ. eigenvalues --   -0.91306  -0.90835  -0.81904  -0.77256  -0.73976
  Beta  occ. eigenvalues --   -0.71903  -0.69083  -0.65858  -0.63613  -0.61410
  Beta  occ. eigenvalues --   -0.55424  -0.54987  -0.49995  -0.46906  -0.45245
  Beta  occ. eigenvalues --   -0.43021  -0.41584  -0.40317  -0.39144  -0.38758
  Beta  occ. eigenvalues --   -0.37400  -0.36725  -0.36126  -0.35491  -0.34689
  Beta  occ. eigenvalues --   -0.34468  -0.34454  -0.33861  -0.31754  -0.30145
  Beta  occ. eigenvalues --   -0.29841  -0.29498  -0.28932  -0.21625  -0.21072
  Beta  occ. eigenvalues --   -0.19393  -0.18647  -0.17752  -0.10315
  Beta virt. eigenvalues --   -0.00128   0.00350   0.00756   0.01331   0.01688
  Beta virt. eigenvalues --    0.02683   0.02832   0.03438   0.04487   0.04538
  Beta virt. eigenvalues --    0.04977   0.05167   0.06011   0.06691   0.07613

 Mulliken charges and spin densities:
               1          2
     1  C   -0.266752  -0.000000
     2  C   -0.421550  -0.000000
     3  C   -0.598281  -0.000000
     4  C    0.573052   0.000000
     5  C    0.347540   0.000000
     6  C    0.569968   0.000000
     7  C   -1.026569  -0.000000
     8  C    0.717635   0.000000
     9  C    0.787560   0.000000
    10  C   -1.453348  -0.000000
    11  O   -0.725642  -0.000000
    12  O   -0.671240   0.000000
    13  C   -0.604911  -0.000000
    14  C   -0.409369   0.000000
    15  C   -0.474435   0.000000
    16  H    0.144701   0.000000
    17  H    0.160956  -0.000000
    18  H    0.094561  -0.000000
    19  H    0.164968  -0.000000
    20  H    0.127416   0.000000
    21  H    0.124276  -0.000000
    22  H    0.125383  -0.000000
    23  H    0.121971  -0.000000
    24  H    0.175468   0.000000
    25  H    0.145984  -0.000000
    26  H    0.145049  -0.000000
    27  H    0.125610   0.000000
 Sum of Mulliken charges =  -2.00000   0.00000

 Dipole moment (field-independent basis, Debye):
    X=             -4.3658    Y=            -12.5945    Z=             -0.0331  Tot=             13.3298
 Quadrupole moment (field-independent basis, Debye-Ang):
   XX=           -114.2725   YY=           -175.5557   ZZ=           -100.8942
   XY=             -7.7244   XZ=              0.3698   YZ=              1.4715

  Exact polarizability: 394.973  -6.629 320.313  -6.696  -2.990 158.159
 Approx polarizability: 429.305 -10.053 360.451  -7.307  -3.470 174.332

                      1                      2                      3
                      A                      A                      A
 Frequencies --     69.5055                82.3993                90.9250
 Red. masses --      2.7832                 1.3150                 2.4623
 Frc consts  --      0.0079                 0.0053                 0.0120
 IR Inten    --     10.3620                 2.1023                14.5138

                      4                      5                      6
                      A                      A                      A
 Frequencies --    139.5525               149.2038               175.8792
 Red. masses --      2.7372                 1.2737                 1.2793
 Frc consts  --      0.0314                 0.0167                 0.0233
 IR Inten    --      0.0826                 1.6652                 5.6436

                      7                      8                      9
                      A                      A                      A
 Frequencies --    190.0027               229.2854               241.2008
 Red. masses --      2.8026                 3.0709                 3.5718
 Frc consts  --      0.0596                 0.0951                 0.1224
 IR Inten    --      1.1143                 4.6901                24.4666

                     10                     11                     12
                      A                      A                      A
 Frequencies --    304.4800               321.6903               341.8792
 Red. masses --      3.7132                 2.6241                 4.1937
 Frc consts  --      0.2028                 0.1600                 0.2888
 IR Inten    --      0.2342                 1.3573                 0.5070

                     13                     14                     15
                      A                      A                      A
 Frequencies --    349.8762               379.1541               395.3880
 Red. masses --      4.0273                 8.4736                 6.9766
 Frc consts  --      0.2905                 0.7177                 0.6426
 IR Inten    --      5.9941                15.7399                 0.1433

                     16                     17                     18
                      A                      A                      A
 Frequencies --    423.4575               452.5890               511.3781
 Red. masses --      5.7329                 4.2734                 8.1786
 Frc consts  --      0.6057                 0.5157                 1.2601
 IR Inten    --      3.4262                 9.3422                 4.0349

                     19                     20                     21
                      A                      A                      A
 Frequencies --    527.4037               531.5370               561.4786
 Red. masses --      3.8897                 3.7672                 4.8318
 Frc consts  --      0.6375                 0.6271                 0.8975
 IR Inten    --      1.3525                 2.2425                19.2192

                     22                     23                     24
                      A                      A                      A
 Frequencies --    606.5827               676.4645               681.5651
 Red. masses --      5.4074                 4.1921                 4.4354
 Frc consts  --      1.1722                 1.1302                 1.2139
 IR Inten    --     62.7419                 6.0919                 5.9478

                     25                     26                     27
                      A                      A                      A
 Frequencies --    712.0383               771.2797               799.5510
 Red. masses --      3.0386                 1.7435                 4.1058
 Frc consts  --      0.9077                 0.6111                 1.5465
 IR Inten    --     51.8062                56.5584                 5.0145

                     28                     29                     30
                      A                      A                      A
 Frequencies --    809.8415               843.8572               875.0354
 Red. masses --      4.6192                 4.2559                 1.3961
 Frc consts  --      1.7849                 1.7856                 0.6298
 IR Inten    --      7.5794                41.3274                 0.0887

                     31                     32                     33
                      A                      A                      A
 Frequencies --    929.6416               974.9182               983.2789
 Red. masses --      2.4179                 1.2741                 2.8415
 Frc consts  --      1.2312                 0.7135                 1.6187
 IR Inten    --     76.4438                 3.5237                32.0562

                     34                     35                     36
                      A                      A                      A
 Frequencies --    999.0655              1027.6295              1029.8591
 Red. masses --      1.6602                 2.2631                 1.4507
 Frc consts  --      0.9763                 1.4081                 0.9065
 IR Inten    --      3.3235                22.4858                 1.1712

                     37                     38                     39
                      A                      A                      A
 Frequencies --   1051.1081              1052.4287              1082.6800
 Red. masses --      1.5149                 1.5260                 2.4900
 Frc consts  --      0.9861                 0.9959                 1.7197
 IR Inten    --      2.9693                 2.8973               258.4290

                     40                     41                     42
                      A                      A                      A
 Frequencies --   1084.3976              1125.8230              1161.1362
 Red. masses --      2.2630                 1.8930                 1.9350
 Frc consts  --      1.5679                 1.4136                 1.5371
 IR Inten    --    278.5479               193.8047                27.0901

                     43                     44                     45
                      A                      A                      A
 Frequencies --   1214.9244              1221.2353              1262.4167
 Red. masses --      5.7263                 3.1007                 2.2624
 Frc consts  --      4.9799                 2.7246                 2.1244
 IR Inten    --    176.8016               257.3660                 8.8725

                     46                     47                     48
                      A                      A                      A
 Frequencies --   1304.3691              1331.2727              1361.1068
 Red. masses --      5.6981                 2.9656                 2.9508
 Frc consts  --      5.7119                 3.0966                 3.2209
 IR Inten    --    296.2181              1363.2631                49.4862

                     49                     50                     51
                      A                      A                      A
 Frequencies --   1379.2597              1384.4262              1388.0633
 Red. masses --      1.7695                 1.8639                 2.8379
 Frc consts  --      1.9833                 2.1049                 3.2216
 IR Inten    --    352.5356               223.6460                33.2192

                     52                     53                     54
                      A                      A                      A
 Frequencies --   1405.9992              1436.1884              1449.7359
 Red. masses --      1.2456                 2.2088                 1.0486
 Frc consts  --      1.4508                 2.6843                 1.2984
 IR Inten    --      3.5629                 1.8111                 5.4947

                     55                     56                     57
                      A                      A                      A
 Frequencies --   1462.2283              1468.0595              1472.9338
 Red. masses --      1.3736                 1.2144                 1.1208
 Frc consts  --      1.7304                 1.5421                 1.4326
 IR Inten    --     14.1826                 0.9617                32.8816

                     58                     59                     60
                      A                      A                      A
 Frequencies --   1484.0781              1498.3750              1500.3270
 Red. masses --      1.0630                 1.0807                 2.8794
 Frc consts  --      1.3794                 1.4296                 3.8188
 IR Inten    --      2.6942                20.2783                99.0349

                     61                     62                     63
                      A                      A                      A
 Frequencies --   1523.0050              1584.5210              1599.0242
 Red. masses --      3.9224                 6.9088                 4.9176
 Frc consts  --      5.3605                10.2199                 7.4082
 IR Inten    --    225.9157                14.2196                15.2920

                     64                     65                     66
                      A                      A                      A
 Frequencies --   2972.6915              2978.7755              3000.8815
 Red. masses --      1.0462                 1.0446                 1.0940
 Frc consts  --      5.4471                 5.4610                 5.8046
 IR Inten    --    139.8108               317.1279                77.3690

                     67                     68                     69
                      A                      A                      A
 Frequencies --   3006.8630              3015.5048              3090.0257
 Red. masses --      1.0965                 1.0464                 1.0899
 Frc consts  --      5.8409                 5.6062                 6.1312
 IR Inten    --    115.1783               125.6597                36.3598

                     70                     71                     72
                      A                      A                      A
 Frequencies --   3100.4056              3101.7640              3104.6806
 Red. masses --      1.0983                 1.0926                 1.0920
 Frc consts  --      6.2205                 6.1935                 6.2018
 IR Inten    --     31.3560                24.8529                25.3840

                     73                     74                     75
                      A                      A                      A
 Frequencies --   3127.5587              3146.3090              3175.8583
 Red. masses --      1.0851                 1.0914                 1.0919
 Frc consts  --      6.2537                 6.3657                 6.4886
 IR Inten    --     44.5099                78.2531                44.9832

 - Thermochemistry -
 -------------------
 Temperature   298.150 Kelvin.  Pressure   1.00000 Atm.
 Atom     1 has atomic number  6 and mass  12.00000

 Molecular mass:   200.08373 amu.
 Principal axes and moments of inertia in atomic units:
                           1         2         3
     Eigenvalues --  2035.272173090.539225092.54121
           X            0.97254  -0.23114   0.02729
           Y            0.23073   0.97286   0.01730
           Z           -0.03055  -0.01053   0.99948
 This molecule is an asymmetric top.
 Rotational symmetry number  1.
 Warning -- assumption of classical behavior for rotation
           may cause significant error
 Rotational temperatures (Kelvin)      0.04256     0.02803     0.01701
 Rotational constants (GHZ):           0.88673     0.58396     0.35439
 Zero-point vibrational energy     552072.5 (Joules/Mol)
                                  131.94850 (Kcal/Mol)
 Warning -- explicit consideration of  22 degrees of freedom as
           vibrations may cause significant error
 Vibrational temperatures:    100.00   118.55   130.82   200.78   214.67
          (Kelvin)            253.05   273.37   329.89   347.03   438.08
                              462.84   491.89   503.39   545.52   568.88
                              609.26   651.17   735.76   758.82   764.76
                              807.84   872.74   973.28   980.62  1024.46
                             1109.70  1150.38  1165.18  1214.12  1258.98
                             1337.55  1402.69  1414.72  1437.43  1478.53
                             1481.74  1512.31  1514.21  1557.74  1560.21
                             1619.81  1670.62  1748.01  1757.09  1816.34
                             1876.70  1915.40  1958.33  1984.45  1991.88
                             1997.11  2022.92  2066.35  2085.85  2103.82
                             2112.21  2119.22  2135.26  2155.83  2158.64
                             2191.26  2279.77  2300.64  4277.04  4285.79
                             4317.60  4326.21  4338.64  4445.86  4460.79
                             4462.75  4466.94  4499.86  4526.84  4569.35

 Zero-point correction=                           0.210273 (Hartree/Particle)
 Thermal correction to Energy=                    0.223878
 Thermal correction to Enthalpy=                  0.224822
 Thermal correction to Gibbs Free Energy=         0.170731
 Sum of electronic and zero-point Energies=           -653.262344
 Sum of electronic and thermal Energies=              -653.248739
 Sum of electronic and thermal Enthalpies=            -653.247795
 Sum of electronic and thermal Free Energies=         -653.301887

                     E (Thermal)             CV                S
                      KCal/Mol        Cal/Mol-Kelvin    Cal/Mol-Kelvin
 Total                  140.486             52.869            113.846
 Electronic               0.000              0.000              0.000
 Translational            0.889              2.981             41.785
 Rotational               0.889              2.981             31.838
 Vibrational            138.708             46.907             40.222
 Vibration     1          0.598              1.969              4.167
 Vibration     2          0.600              1.961              3.833
 Vibration     3          0.602              1.956              3.640
 Vibration     4          0.615              1.914              2.810
 Vibration     5          0.618              1.904              2.682
 Vibration     6          0.628              1.872              2.372
 Vibration     7          0.633              1.854              2.228
 Vibration     8          0.652              1.796              1.885
 Vibration     9          0.658              1.777              1.794
 Vibration    10          0.695              1.665              1.392
 Vibration    11          0.707              1.632              1.301
 Vibration    12          0.721              1.592              1.203
 Vibration    13          0.727              1.576              1.167
 Vibration    14          0.749              1.515              1.043
 Vibration    15          0.762              1.480              0.980
 Vibration    16          0.786              1.419              0.880
 Vibration    17          0.811              1.355              0.788
 Vibration    18          0.866              1.225              0.630
 Vibration    19          0.882              1.189              0.593
 Vibration    20          0.887              1.180              0.584
 Vibration    21          0.917              1.115              0.521
 Vibration    22          0.965              1.018              0.438

                           ! Non-Optimized Parameters !
 Normal termination of Gaussian 16 at Sun Feb 11 05:54:57 2024.
