 Gaussian 16, Revision A.03,
 Gaussian 16:  ES64L-G16RevA.03 25-Dec-2016

 --------------------------------------
 #P UB3LYP/6-311++G(d,p) nosym opt freq
 --------------------------------------

 -------
 Radical
 -------
 Symbolic Z-matrix:
 Charge = -1 Multiplicity = 2

 SCF Done:  E(UB3LYP) =  -3393.16769705     A.U. after   22 cycles
 SCF Done:  E(UB3LYP) =  -3393.19816871     A.U. after   18 cycles
 SCF Done:  E(UB3LYP) =  -3393.20618033     A.U. after   18 cycles
 SCF Done:  E(UB3LYP) =  -3393.20976639     A.U. after   16 cycles
 SCF Done:  E(UB3LYP) =  -3393.21078675     A.U. after   17 cycles
 SCF Done:  E(UB3LYP) =  -3393.21125878     A.U. after   15 cycles
 SCF Done:  E(UB3LYP) =  -3393.21128641     A.U. after   15 cycles
 SCF Done:  E(UB3LYP) =  -3393.21129141     A.U. after   13 cycles
 SCF Done:  E(UB3LYP) =  -3393.21129343     A.U. after   11 cycles
 SCF Done:  E(UB3LYP) =  -3393.21129425     A.U. after   12 cycles
 SCF Done:  E(UB3LYP) =  -3393.21129437     A.U. after   11 cycles
 SCF Done:  E(UB3LYP) =  -3393.21129462     A.U. after   10 cycles
 Optimization completed.
    -- Stationary point found.
 Normal termination of Gaussian 16 at Thu Dec 21 20:21:23 2023.

 ----------------------------------------------------------------------
 #P Geom=AllCheck Guess=TCheck SCRF=Check GenChk UB3LYP/6-311++G(d,p) F
 req
 ----------------------------------------------------------------------

 Structure from the checkpoint file:  "183-rad.chk"
 -------
 Radical
 -------
 Charge = -1 Multiplicity = 2

                          Input orientation:
 ---------------------------------------------------------------------
 Center     Atomic      Atomic             Coordinates (Angstroms)
 Number     Number       Type             X           Y           Z
 ---------------------------------------------------------------------
      1          6           0        4.865550   -2.853560   -0.353196
      2          6           0        5.591636   -1.964512   -1.119053
      3          6           0        5.001087   -0.754835   -1.544396
      4          6           0        3.530891   -2.571511    0.015292
      5          6           0        2.935777   -1.356211   -0.411259
      6          6           0        3.697603   -0.462420   -1.193669
      7          6           0        2.786152   -3.520438    0.820806
      8          6           0        1.422985   -3.186201    1.171920
      9          6           0        0.808891   -1.957244    0.745545
     10          6           0        1.556681   -1.004304   -0.062998
     11          6           0        0.680541   -4.111679    1.963441
     12          6           0       -0.628748   -3.824756    2.319109
     13          6           0       -0.551037   -1.670904    1.121464
     14          6           0       -1.211321   -2.628742    1.898327
     15          8           0        3.328549   -4.616447    1.202839
     16          8           0        1.074404    0.095043   -0.471328
     17          8           0        1.226374   -5.276100    2.381427
     18         35           0       -3.047266   -2.299451    2.436723
     19          7           0       -1.152684   -0.508698    0.726786
     20          1           0        5.292901   -3.789127   -0.012819
     21          1           0        6.616462   -2.193849   -1.395086
     22          1           0        5.572522   -0.055338   -2.146994
     23          1           0        3.220276    0.458386   -1.506430
     24          1           0       -1.180330   -4.535494    2.919642
     25          1           0        2.164871   -5.263421    2.008025
     26          1           0       -0.582362    0.119009    0.162608
     27          1           0       -2.101733   -0.321169    0.994696
 ---------------------------------------------------------------------

 SCF Done:  E(UB3LYP) =  -3393.21129462     A.U. after    1 cycles

 Alpha  occ. eigenvalues -- -482.73058 -62.38347 -56.20354 -56.20005 -56.20002
 Alpha  occ. eigenvalues --  -19.00660 -18.96954 -18.96367 -14.19914 -10.11596
 Alpha  occ. eigenvalues --  -10.11542 -10.11453 -10.11407 -10.11305 -10.07027
 Alpha  occ. eigenvalues --  -10.06965 -10.06715 -10.06406 -10.06362 -10.06317
 Alpha  occ. eigenvalues --  -10.06299 -10.06294 -10.06293  -8.59315  -6.42365
 Alpha  occ. eigenvalues --   -6.41207  -6.41194  -2.53475  -2.53144  -2.53130
 Alpha  occ. eigenvalues --   -2.52212  -2.52210  -0.93178  -0.89098  -0.88409
 Alpha  occ. eigenvalues --   -0.81273  -0.75177  -0.73488  -0.70356  -0.66532
 Alpha  occ. eigenvalues --   -0.64405  -0.62810  -0.61213  -0.55830  -0.52785
 Alpha  occ. eigenvalues --   -0.51795  -0.48241  -0.46012  -0.44554  -0.41716
 Alpha  occ. eigenvalues --   -0.40815  -0.39372  -0.36760  -0.35564  -0.34921
 Alpha  occ. eigenvalues --   -0.34091  -0.32097  -0.31741  -0.31381  -0.30515
 Alpha  occ. eigenvalues --   -0.29620  -0.29328  -0.28442  -0.27858  -0.27087
 Alpha  occ. eigenvalues --   -0.24763  -0.24749  -0.24354  -0.24003  -0.22861
 Alpha  occ. eigenvalues --   -0.20717  -0.19821  -0.17486  -0.15306  -0.14825
 Alpha  occ. eigenvalues --   -0.13870  -0.13712  -0.12710  -0.08741  -0.02708
 Alpha virt. eigenvalues --    0.06325   0.07321   0.07693   0.08327   0.09471
 Alpha virt. eigenvalues --    0.09646   0.10438   0.11176   0.12148   0.12565
 Alpha virt. eigenvalues --    0.13029   0.13178   0.13700   0.14904   0.14904

  Beta  occ. eigenvalues -- -482.73058 -62.38347 -56.20355 -56.20002 -56.20002
  Beta  occ. eigenvalues --  -19.00605 -18.96450 -18.95874 -14.19872 -10.11501
  Beta  occ. eigenvalues --  -10.11465 -10.11394 -10.11244 -10.11147 -10.06994
  Beta  occ. eigenvalues --  -10.06904 -10.06688 -10.06391 -10.06346 -10.06289
  Beta  occ. eigenvalues --  -10.06272 -10.06221 -10.06190  -8.59314  -6.42369
  Beta  occ. eigenvalues --   -6.41207  -6.41188  -2.53477  -2.53146  -2.53127
  Beta  occ. eigenvalues --   -2.52209  -2.52207  -0.92978  -0.88274  -0.87592
  Beta  occ. eigenvalues --   -0.81124  -0.74965  -0.73309  -0.70185  -0.66246
  Beta  occ. eigenvalues --   -0.64210  -0.62618  -0.60966  -0.55199  -0.52580
  Beta  occ. eigenvalues --   -0.51577  -0.48150  -0.45852  -0.44382  -0.41572
  Beta  occ. eigenvalues --   -0.40719  -0.39220  -0.36472  -0.35450  -0.34820
  Beta  occ. eigenvalues --   -0.33966  -0.31707  -0.31279  -0.31238  -0.30274
  Beta  occ. eigenvalues --   -0.29372  -0.28975  -0.27681  -0.26979  -0.26831
  Beta  occ. eigenvalues --   -0.24666  -0.24236  -0.23436  -0.22973  -0.22703
  Beta  occ. eigenvalues --   -0.20349  -0.19810  -0.16703  -0.14212  -0.13693
  Beta  occ. eigenvalues --   -0.13446  -0.13129  -0.12284  -0.07635
  Beta virt. eigenvalues --    0.02662   0.07226   0.07405   0.07687   0.09365
  Beta virt. eigenvalues --    0.09499   0.09645   0.10438   0.11189   0.12565
  Beta virt. eigenvalues --    0.12662   0.13134   0.13196   0.13701   0.14903

 Mulliken charges and spin densities:
               1          2
     1  C    0.009440   0.035528
     2  C   -0.471108   0.021905
     3  C   -0.519074   0.051946
     4  C    0.183198   0.015975
     5  C    0.073759   0.043850
     6  C    0.074888   0.005830
     7  C   -0.341830   0.114163
     8  C    0.572564   0.003392
     9  C    0.530580   0.031157
    10  C   -0.306655   0.066339
    11  C   -0.435033   0.042959
    12  C    0.061632   0.084829
    13  C   -0.360601   0.013599
    14  C    0.055285   0.083505
    15  O   -0.421960   0.184168
    16  O   -0.380023   0.180896
    17  O   -0.371107   0.017462
    18  Br  -0.271204   0.002833
    19  N   -0.369994   0.022130
    20  H    0.162022  -0.001145
    21  H    0.127102  -0.002153
    22  H    0.127865  -0.004120
    23  H    0.160900   0.000113
    24  H    0.200830  -0.006930
    25  H    0.349577  -0.004142
    26  H    0.336787  -0.002910
    27  H    0.222165  -0.001179
 Sum of Mulliken charges =  -1.00000   1.00000

 Dipole moment (field-independent basis, Debye):
    X=             -6.9853    Y=             13.0321    Z=             -4.3395  Tot=             15.4098
 Quadrupole moment (field-independent basis, Debye-Ang):
   XX=           -158.5175   YY=           -184.6291   ZZ=           -141.5542
   XY=             21.0888   XZ=             -0.3425   YZ=             21.3066

  Exact polarizability: 361.941  -3.331 221.820 -96.965 -59.826 179.385
 Approx polarizability: 540.480 -31.882 416.019-125.493-118.243 288.070

 ******    1 imaginary frequencies (negative Signs) ******

                      1                      2                      3
                      A                      A                      A
 Frequencies --   -329.3571                37.6567                81.2835
 Red. masses --      1.3749                 8.5232                 7.6057
 Frc consts  --      0.0879                 0.0071                 0.0296
 IR Inten    --    133.1310                 1.5016                 0.0406

                      4                      5                      6
                      A                      A                      A
 Frequencies --    109.4852               142.1673               143.9087
 Red. masses --      4.2437                10.7843                 4.8181
 Frc consts  --      0.0300                 0.1284                 0.0588
 IR Inten    --      9.3122                 0.4679                 3.2678

                      7                      8                      9
                      A                      A                      A
 Frequencies --    158.3565               194.0261               217.4010
 Red. masses --      7.7907                 7.0829                14.8313
 Frc consts  --      0.1151                 0.1571                 0.4130
 IR Inten    --      0.0580                 2.5190                 0.9307

                     10                     11                     12
                      A                      A                      A
 Frequencies --    244.3506               265.5584               339.7872
 Red. masses --      6.4197                 5.7755                 5.9659
 Frc consts  --      0.2258                 0.2400                 0.4058
 IR Inten    --      0.5364                 0.7826                 3.5311

                     13                     14                     15
                      A                      A                      A
 Frequencies --    358.3326               360.9950               398.0113
 Red. masses --      8.4966                 5.0076                11.1759
 Frc consts  --      0.6428                 0.3845                 1.0431
 IR Inten    --      1.7340                 4.2885                 1.1961

                     16                     17                     18
                      A                      A                      A
 Frequencies --    419.3892               440.5323               441.8716
 Red. masses --      6.7263                 3.4986                 7.2585
 Frc consts  --      0.6970                 0.4000                 0.8350
 IR Inten    --      0.5179                 2.5324                33.8578

                     19                     20                     21
                      A                      A                      A
 Frequencies --    462.8101               480.4429               495.0967
 Red. masses --     10.9971                 9.0548                 4.8201
 Frc consts  --      1.3878                 1.2314                 0.6961
 IR Inten    --      0.6347                17.2857                 2.8135

                     22                     23                     24
                      A                      A                      A
 Frequencies --    526.9460               540.0614               606.4951
 Red. masses --      6.1180                 7.6861                 4.2356
 Frc consts  --      1.0009                 1.3208                 0.9180
 IR Inten    --      8.7736                 2.2823                10.9788

                     25                     26                     27
                      A                      A                      A
 Frequencies --    635.7832               642.6195               668.5801
 Red. masses --      5.3268                 6.0619                 6.1604
 Frc consts  --      1.2686                 1.4749                 1.6224
 IR Inten    --      7.2331                 0.6946                 4.5822

                     28                     29                     30
                      A                      A                      A
 Frequencies --    705.6194               714.6403               725.9266
 Red. masses --      1.2507                 4.0284                 6.5832
 Frc consts  --      0.3669                 1.2122                 2.0440
 IR Inten    --      1.5385                 7.7929                19.3469

                     31                     32                     33
                      A                      A                      A
 Frequencies --    730.4705               776.9787               781.6519
 Red. masses --      1.9859                 7.5133                 2.2472
 Frc consts  --      0.6243                 2.6724                 0.8089
 IR Inten    --     51.8818                75.2675                24.5976

                     34                     35                     36
                      A                      A                      A
 Frequencies --    795.1926               823.3453               871.8539
 Red. masses --      4.0645                 1.5219                 1.4745
 Frc consts  --      1.5143                 0.6079                 0.6604
 IR Inten    --      3.4329                23.9495                 0.0676

                     37                     38                     39
                      A                      A                      A
 Frequencies --    890.7487               911.1138               938.7215
 Red. masses --      8.1620                 7.3753                 1.0544
 Frc consts  --      3.8156                 3.6072                 0.5474
 IR Inten    --     16.6974                24.1902                73.1128

                     40                     41                     42
                      A                      A                      A
 Frequencies --    982.0213               986.3917               989.3668
 Red. masses --      1.3377                 1.2876                 5.5533
 Frc consts  --      0.7601                 0.7381                 3.2027
 IR Inten    --      1.2264                 0.6426                35.5546

                     43                     44                     45
                      A                      A                      A
 Frequencies --   1034.3477              1055.6447              1111.3336
 Red. masses --      2.4662                 1.9892                 2.1549
 Frc consts  --      1.5546                 1.3061                 1.5681
 IR Inten    --     74.1813                53.6752                20.0968

                     46                     47                     48
                      A                      A                      A
 Frequencies --   1138.5526              1156.6382              1196.3285
 Red. masses --      2.2833                 1.4309                 2.0059
 Frc consts  --      1.7439                 1.1279                 1.6914
 IR Inten    --     10.8828                11.0194                 4.5248

                     49                     50                     51
                      A                      A                      A
 Frequencies --   1227.0818              1243.4636              1265.6090
 Red. masses --      1.9529                 2.6436                 2.6653
 Frc consts  --      1.7325                 2.4083                 2.5154
 IR Inten    --     53.6955                 2.6985                52.8203

                     52                     53                     54
                      A                      A                      A
 Frequencies --   1301.2483              1324.9606              1351.0138
 Red. masses --      3.7033                 4.4845                 4.0456
 Frc consts  --      3.6945                 4.6384                 4.3506
 IR Inten    --     13.1879               181.9409               102.4682

                     55                     56                     57
                      A                      A                      A
 Frequencies --   1362.8916              1380.4146              1394.4500
 Red. masses --     10.3737                 4.8786                 3.1114
 Frc consts  --     11.3529                 5.4772                 3.5646
 IR Inten    --      1.3976                 7.9904               136.2267

                     58                     59                     60
                      A                      A                      A
 Frequencies --   1445.0529              1481.6764              1482.6925
 Red. masses --      4.1693                 3.1617                 2.8296
 Frc consts  --      5.1296                 4.0896                 3.6650
 IR Inten    --     82.4452               107.5937                58.7452

                     61                     62                     63
                      A                      A                      A
 Frequencies --   1521.2453              1535.4316              1560.1996
 Red. masses --      6.5722                 3.0674                 3.2054
 Frc consts  --      8.9611                 4.2607                 4.5971
 IR Inten    --    690.6655               331.4346                45.9349

                     64                     65                     66
                      A                      A                      A
 Frequencies --   1589.3811              1619.2715              1626.6800
 Red. masses --      1.9757                 3.8597                 4.7740
 Frc consts  --      2.9405                 5.9627                 7.4427
 IR Inten    --    114.5478                86.1219                 7.0369

                     67                     68                     69
                      A                      A                      A
 Frequencies --   1640.2533              2900.2117              3138.5339
 Red. masses --      3.1359                 1.0747                 1.0850
 Frc consts  --      4.9710                 5.3261                 6.2972
 IR Inten    --     30.3338               294.5795                17.0619

                     70                     71                     72
                      A                      A                      A
 Frequencies --   3157.3157              3189.4543              3191.8277
 Red. masses --      1.0916                 1.0915                 1.0926
 Frc consts  --      6.4112                 6.5418                 6.5585
 IR Inten    --     52.0647                 7.7979                27.8132

                     73                     74                     75
                      A                      A                      A
 Frequencies --   3203.2027              3397.9483              3699.5909
 Red. masses --      1.0907                 1.0613                 1.0900
 Frc consts  --      6.5935                 7.2196                 8.7898
 IR Inten    --      5.1587                83.8163                72.6865

 - Thermochemistry -
 -------------------
 Temperature   298.150 Kelvin.  Pressure   1.00000 Atm.
 Atom     1 has atomic number  6 and mass  12.00000

 Molecular mass:   316.96875 amu.
 Principal axes and moments of inertia in atomic units:
                           1         2         3
     Eigenvalues --  2704.52583********************
           X            0.91939  -0.22196   0.32475
           Y            0.05585   0.89089   0.45078
           Z           -0.38937  -0.39630   0.83147
 This molecule is an asymmetric top.
 Rotational symmetry number  1.
 Warning -- assumption of classical behavior for rotation
           may cause significant error
 Rotational temperatures (Kelvin)      0.03203     0.00830     0.00659
 Rotational constants (GHZ):           0.66730     0.17289     0.13731
    1 imaginary frequencies ignored.
 Zero-point vibrational energy     490229.3 (Joules/Mol)
                                  117.16762 (Kcal/Mol)
 Warning -- explicit consideration of  23 degrees of freedom as
           vibrations may cause significant error
 Vibrational temperatures:     54.18   116.95   157.52   204.55   207.05
          (Kelvin)            227.84   279.16   312.79   351.57   382.08
                              488.88   515.56   519.39   572.65   603.41
                              633.83   635.75   665.88   691.25   712.33
                              758.16   777.03   872.61   914.75   924.59
                              961.94  1015.23  1028.21  1044.45  1050.98
                             1117.90  1124.62  1144.10  1184.61  1254.40
                             1281.59  1310.89  1350.61  1412.91  1419.20
                             1423.48  1488.20  1518.84  1598.96  1638.12
                             1664.14  1721.25  1765.50  1789.07  1820.93
                             1872.21  1906.32  1943.81  1960.90  1986.11
                             2006.30  2079.11  2131.80  2133.26  2188.73
                             2209.14  2244.78  2286.76  2329.77  2340.43
                             2359.96  4172.76  4515.65  4542.67  4588.91
                             4592.33  4608.69  4888.89  5322.89

 Zero-point correction=                           0.186718 (Hartree/Particle)
 Thermal correction to Energy=                    0.201160
 Thermal correction to Enthalpy=                  0.202104
 Thermal correction to Gibbs Free Energy=         0.143976
 Sum of electronic and zero-point Energies=          -3393.024576
 Sum of electronic and thermal Energies=             -3393.010135
 Sum of electronic and thermal Enthalpies=           -3393.009190
 Sum of electronic and thermal Free Energies=        -3393.067319

                     E (Thermal)             CV                S
                      KCal/Mol        Cal/Mol-Kelvin    Cal/Mol-Kelvin
 Total                  126.230             57.677            122.341
 Electronic               0.000              0.000              1.377
 Translational            0.889              2.981             43.157
 Rotational               0.889              2.981             34.272
 Vibrational            124.452             51.715             43.535
 Vibration     1          0.594              1.982              5.379
 Vibration     2          0.600              1.962              3.860
 Vibration     3          0.606              1.942              3.278
 Vibration     4          0.616              1.911              2.774
 Vibration     5          0.616              1.909              2.751
 Vibration     6          0.621              1.893              2.569
 Vibration     7          0.635              1.848              2.189
 Vibration     8          0.646              1.815              1.981
 Vibration     9          0.660              1.772              1.771
 Vibration    10          0.671              1.736              1.625
 Vibration    11          0.720              1.596              1.213
 Vibration    12          0.733              1.558              1.129
 Vibration    13          0.735              1.553              1.118
 Vibration    14          0.764              1.474              0.970
 Vibration    15          0.782              1.428              0.894
 Vibration    16          0.800              1.382              0.825
 Vibration    17          0.802              1.379              0.821
 Vibration    18          0.820              1.333              0.758
 Vibration    19          0.837              1.293              0.709
 Vibration    20          0.851              1.261              0.670
 Vibration    21          0.882              1.190              0.594
 Vibration    22          0.895              1.161              0.565
 Vibration    23          0.965              1.018              0.439

 Optimization completed.
    -- Stationary point found.
 Normal termination of Gaussian 16 at Thu Dec 21 21:27:22 2023.
