 Gaussian 16, Revision A.03,
 Gaussian 16:  ES64L-G16RevA.03 25-Dec-2016

 ----------------------------------------------------------------------
 #P UB3LYP/6-311++G(d,p) nosym opt freq SCRF=(PCM,Solvent=n,n-DiMethylF
 ormamide)
 ----------------------------------------------------------------------

 -------
 Reduced
 -------
 Symbolic Z-matrix:
 Charge = -2 Multiplicity = 1

 SCF Done:  E(UB3LYP) =  -566.414316801     A.U. after   16 cycles
 SCF Done:  E(UB3LYP) =  -566.414697637     A.U. after   12 cycles
 SCF Done:  E(UB3LYP) =  -566.414725478     A.U. after   12 cycles
 SCF Done:  E(UB3LYP) =  -566.414741599     A.U. after   12 cycles
 SCF Done:  E(UB3LYP) =  -566.414741962     A.U. after   11 cycles
 SCF Done:  E(UB3LYP) =  -566.414744445     A.U. after   11 cycles
 Optimization completed.
    -- Stationary point found.
 Normal termination of Gaussian 16 at Sat Feb 10 10:13:03 2024.

 ----------------------------------------------------------------------
 #P Geom=AllCheck Guess=TCheck SCRF=Check GenChk UB3LYP/6-311++G(d,p) F
 req
 ----------------------------------------------------------------------

 Structure from the checkpoint file:  "001-an.chk"
 -------
 Reduced
 -------
 Charge = -2 Multiplicity = 1

                          Input orientation:
 ---------------------------------------------------------------------
 Center     Atomic      Atomic             Coordinates (Angstroms)
 Number     Number       Type             X           Y           Z
 ---------------------------------------------------------------------
      1          8           0       -1.114810    1.776635   -1.900162
      2          6           0       -0.803967    0.895135   -1.021193
      3          6           0       -1.798547   -0.004969   -0.469861
      4          6           0       -1.520998   -0.961717    0.465669
      5          6           0       -0.199493   -1.189680    1.017601
      6          8           0        0.009311   -2.103201    1.894100
      7          6           0        0.804697   -0.318812    0.499567
      8          6           0        0.509086    0.700144   -0.498664
      9          6           0        1.537082    1.534090   -0.979387
     10          7           0        2.384816    2.226957   -1.379766
     11          6           0        2.118049   -0.467984    0.985734
     12          7           0        3.203848   -0.593978    1.390912
     13          1           0       -2.813506    0.111609   -0.841130
     14          1           0       -2.315567   -1.604229    0.836579
 ---------------------------------------------------------------------

 SCF Done:  E(UB3LYP) =  -566.414744445     A.U. after    1 cycles

 Alpha  occ. eigenvalues --  -19.04212 -19.04207 -14.29003 -14.28997 -10.20717
 Alpha  occ. eigenvalues --  -10.20715 -10.19596 -10.19590 -10.17004 -10.16969
 Alpha  occ. eigenvalues --  -10.15768 -10.15701  -0.96267  -0.95894  -0.89362
 Alpha  occ. eigenvalues --   -0.88787  -0.81412  -0.75334  -0.69889  -0.62825
 Alpha  occ. eigenvalues --   -0.59231  -0.49587  -0.48891  -0.46591  -0.42812
 Alpha  occ. eigenvalues --   -0.40066  -0.38694  -0.36950  -0.36890  -0.35864
 Alpha  occ. eigenvalues --   -0.35670  -0.35533  -0.34141  -0.32377  -0.31988
 Alpha  occ. eigenvalues --   -0.31706  -0.24985  -0.23715  -0.21984  -0.21934
 Alpha  occ. eigenvalues --   -0.14972
 Alpha virt. eigenvalues --   -0.03989   0.00564   0.02077   0.02301   0.02325
 Alpha virt. eigenvalues --    0.03157   0.04523   0.04895   0.05039   0.05332
 Alpha virt. eigenvalues --    0.06398   0.06890   0.07593   0.08278   0.08670

  Beta  occ. eigenvalues --  -19.04212 -19.04207 -14.29003 -14.28997 -10.20717
  Beta  occ. eigenvalues --  -10.20715 -10.19596 -10.19590 -10.17004 -10.16969
  Beta  occ. eigenvalues --  -10.15768 -10.15701  -0.96267  -0.95894  -0.89362
  Beta  occ. eigenvalues --   -0.88787  -0.81412  -0.75334  -0.69889  -0.62825
  Beta  occ. eigenvalues --   -0.59231  -0.49587  -0.48891  -0.46591  -0.42812
  Beta  occ. eigenvalues --   -0.40066  -0.38694  -0.36950  -0.36890  -0.35864
  Beta  occ. eigenvalues --   -0.35670  -0.35533  -0.34141  -0.32377  -0.31988
  Beta  occ. eigenvalues --   -0.31706  -0.24985  -0.23715  -0.21984  -0.21934
  Beta  occ. eigenvalues --   -0.14972
  Beta virt. eigenvalues --   -0.03989   0.00564   0.02077   0.02301   0.02325
  Beta virt. eigenvalues --    0.03157   0.04523   0.04895   0.05039   0.05332
  Beta virt. eigenvalues --    0.06398   0.06890   0.07593   0.08278   0.08670

 Mulliken charges and spin densities:
               1          2
     1  O   -0.638481  -0.000000
     2  C   -0.622240   0.000000
     3  C    0.070276  -0.000000
     4  C    0.071216  -0.000000
     5  C   -0.621433   0.000000
     6  O   -0.638886  -0.000000
     7  C    1.517763  -0.000000
     8  C    1.519800   0.000000
     9  C   -1.093954  -0.000000
    10  N   -0.414988   0.000000
    11  C   -1.094870   0.000000
    12  N   -0.414779  -0.000000
    13  H    0.180297  -0.000000
    14  H    0.180278  -0.000000
 Sum of Mulliken charges =  -2.00000   0.00000

 Dipole moment (field-independent basis, Debye):
    X=             -9.0019    Y=             -2.6167    Z=             -0.0082  Tot=              9.3745
 Quadrupole moment (field-independent basis, Debye-Ang):
   XX=           -113.6896   YY=           -111.7897   ZZ=           -107.2218
   XY=             -0.7209   XZ=             -9.8832   YZ=             33.7784

  Exact polarizability: 269.993  32.879 167.510  18.455 -62.505 149.823
 Approx polarizability: 326.673  43.829 189.990  21.175 -71.503 167.921

                      1                      2                      3
                      A                      A                      A
 Frequencies --     67.7819               113.6114               129.2998
 Red. masses --     13.3041                 6.8281                13.6524
 Frc consts  --      0.0360                 0.0519                 0.1345
 IR Inten    --      0.0628                18.0885                 0.6919

                      4                      5                      6
                      A                      A                      A
 Frequencies --    165.5918               171.7049               320.3897
 Red. masses --      9.6927                13.2051                 7.1986
 Frc consts  --      0.1566                 0.2294                 0.4354
 IR Inten    --     17.7616                 7.3387                 0.0040

                      7                      8                      9
                      A                      A                      A
 Frequencies --    341.6622               377.8445               384.6574
 Red. masses --     14.6036                11.2725                 6.6034
 Frc consts  --      1.0044                 0.9482                 0.5757
 IR Inten    --      0.0592                 2.2031                 0.0160

                     10                     11                     12
                      A                      A                      A
 Frequencies --    458.4655               483.2207               520.8695
 Red. masses --     11.9360                11.0808                 4.6673
 Frc consts  --      1.4782                 1.5244                 0.7461
 IR Inten    --     34.6945                 7.0757                20.0480

                     13                     14                     15
                      A                      A                      A
 Frequencies --    541.5980               585.9204               619.9470
 Red. masses --     12.1788                 8.2608                 9.3336
 Frc consts  --      2.1048                 1.6709                 2.1135
 IR Inten    --      7.3519                 0.0051                 0.0663

                     16                     17                     18
                      A                      A                      A
 Frequencies --    651.9620               659.1300               757.2677
 Red. masses --      3.4046                 4.8095                 8.4399
 Frc consts  --      0.8526                 1.2311                 2.8516
 IR Inten    --      0.2246                 0.8712                50.1903

                     19                     20                     21
                      A                      A                      A
 Frequencies --    765.1381               847.5188               975.6320
 Red. masses --      7.5659                 2.0242                 1.3086
 Frc consts  --      2.6097                 0.8566                 0.7339
 IR Inten    --      0.0204                67.0702                 0.1308

                     22                     23                     24
                      A                      A                      A
 Frequencies --    979.6114              1014.3605              1161.6020
 Red. masses --      7.5923                 5.4059                 1.2939
 Frc consts  --      4.2927                 3.2772                 1.0286
 IR Inten    --     82.3529                62.9108               209.9206

                     25                     26                     27
                      A                      A                      A
 Frequencies --   1168.7302              1242.3288              1346.7015
 Red. masses --      3.4648                12.2267                 7.9101
 Frc consts  --      2.7884                11.1181                 8.4523
 IR Inten    --    121.3834               348.0570               385.6272

                     28                     29                     30
                      A                      A                      A
 Frequencies --   1352.3157              1433.1078              1448.6008
 Red. masses --      2.3926                10.9497                10.8265
 Frc consts  --      2.5780                13.2499                13.3856
 IR Inten    --    234.2718               882.2789                27.7785

                     31                     32                     33
                      A                      A                      A
 Frequencies --   1481.9862              1614.4048              2226.1412
 Red. masses --      4.1269                 6.7986                12.6776
 Frc consts  --      5.3402                10.4399                37.0163
 IR Inten    --    848.3537               270.9271              1699.8934

                     34                     35                     36
                      A                      A                      A
 Frequencies --   2228.8198              3133.2346              3153.6040
 Red. masses --     12.6706                 1.0852                 1.0944
 Frc consts  --     37.0849                 6.2771                 6.4127
 IR Inten    --    228.4088                29.8438                74.3862

 - Thermochemistry -
 -------------------
 Temperature   298.150 Kelvin.  Pressure   1.00000 Atm.
 Atom     1 has atomic number  8 and mass  15.99491

 Molecular mass:   158.01163 amu.
 Principal axes and moments of inertia in atomic units:
                           1         2         3
     Eigenvalues --  1469.390091747.002753216.38726
           X           -0.20235   0.96004  -0.19334
           Y            0.69974   0.27986   0.65729
           Z           -0.68514   0.00229   0.72841
 This molecule is an asymmetric top.
 Rotational symmetry number  1.
 Warning -- assumption of classical behavior for rotation
           may cause significant error
 Rotational temperatures (Kelvin)      0.05895     0.04958     0.02693
 Rotational constants (GHZ):           1.22822     1.03305     0.56111
 Zero-point vibrational energy     208896.5 (Joules/Mol)
                                   49.92745 (Kcal/Mol)
 Warning -- explicit consideration of  15 degrees of freedom as
           vibrations may cause significant error
 Vibrational temperatures:     97.52   163.46   186.03   238.25   247.05
          (Kelvin)            460.97   491.58   543.63   553.44   659.63
                              695.25   749.42   779.24   843.01   891.97
                              938.03   948.34  1089.54  1100.86  1219.39
                             1403.72  1409.44  1459.44  1671.29  1681.54
                             1787.43  1937.60  1945.68  2061.92  2084.21
                             2132.25  2322.77  3202.92  3206.77  4508.03
                             4537.33

 Zero-point correction=                           0.079564 (Hartree/Particle)
 Thermal correction to Energy=                    0.089162
 Thermal correction to Enthalpy=                  0.090106
 Thermal correction to Gibbs Free Energy=         0.044081
 Sum of electronic and zero-point Energies=           -566.335180
 Sum of electronic and thermal Energies=              -566.325583
 Sum of electronic and thermal Enthalpies=            -566.324638
 Sum of electronic and thermal Free Energies=         -566.370664

                     E (Thermal)             CV                S
                      KCal/Mol        Cal/Mol-Kelvin    Cal/Mol-Kelvin
 Total                   55.950             35.066             96.868
 Electronic               0.000              0.000              0.000
 Translational            0.889              2.981             41.082
 Rotational               0.889              2.981             30.491
 Vibrational             54.172             29.104             25.295
 Vibration     1          0.598              1.970              4.217
 Vibration     2          0.607              1.938              3.206
 Vibration     3          0.612              1.924              2.956
 Vibration     4          0.624              1.885              2.485
 Vibration     5          0.626              1.877              2.417
 Vibration     6          0.706              1.635              1.308
 Vibration     7          0.721              1.592              1.204
 Vibration     8          0.748              1.517              1.048
 Vibration     9          0.754              1.503              1.021
 Vibration    10          0.816              1.342              0.771
 Vibration    11          0.839              1.287              0.701
 Vibration    12          0.876              1.204              0.608
 Vibration    13          0.897              1.158              0.562
 Vibration    14          0.943              1.062              0.475
 Vibration    15          0.980              0.990              0.417

 Optimization completed.
    -- Stationary point found.
 Normal termination of Gaussian 16 at Sat Feb 10 10:27:44 2024.
