 Gaussian 16, Revision A.03,
 Gaussian 16:  ES64L-G16RevA.03 25-Dec-2016

 ----------------------------------------------------------------------
 #P UB3LYP/6-311++G(d,p) nosym opt freq SCRF=(PCM,Solvent=n,n-DiMethylF
 ormamide)
 ----------------------------------------------------------------------

 -------
 Reduced
 -------
 Symbolic Z-matrix:
 Charge = -2 Multiplicity = 1

 SCF Done:  E(UB3LYP) =  -965.613570663     A.U. after   18 cycles
 SCF Done:  E(UB3LYP) =  -965.616857432     A.U. after   16 cycles
 SCF Done:  E(UB3LYP) =  -965.617392941     A.U. after   16 cycles
 SCF Done:  E(UB3LYP) =  -965.617429734     A.U. after   13 cycles
 SCF Done:  E(UB3LYP) =  -965.617429854     A.U. after   13 cycles
 SCF Done:  E(UB3LYP) =  -965.617447458     A.U. after   12 cycles
 SCF Done:  E(UB3LYP) =  -965.617450044     A.U. after   11 cycles
 SCF Done:  E(UB3LYP) =  -965.617452482     A.U. after   11 cycles
 SCF Done:  E(UB3LYP) =  -965.617453842     A.U. after   10 cycles
 SCF Done:  E(UB3LYP) =  -965.617454668     A.U. after   11 cycles
 SCF Done:  E(UB3LYP) =  -965.617454847     A.U. after    8 cycles
 SCF Done:  E(UB3LYP) =  -965.617455043     A.U. after    9 cycles
 SCF Done:  E(UB3LYP) =  -965.617455125     A.U. after   10 cycles
 SCF Done:  E(UB3LYP) =  -965.617455162     A.U. after    8 cycles
 SCF Done:  E(UB3LYP) =  -965.617455178     A.U. after    8 cycles
 Optimization completed.
    -- Stationary point found.
 Normal termination of Gaussian 16 at Sun Feb 11 06:07:52 2024.

 ----------------------------------------------------------------------
 #P Geom=AllCheck Guess=TCheck SCRF=Check GenChk UB3LYP/6-311++G(d,p) F
 req
 ----------------------------------------------------------------------

 Structure from the checkpoint file:  "251-an.chk"
 -------
 Reduced
 -------
 Charge = -2 Multiplicity = 1

                          Input orientation:
 ---------------------------------------------------------------------
 Center     Atomic      Atomic             Coordinates (Angstroms)
 Number     Number       Type             X           Y           Z
 ---------------------------------------------------------------------
      1          6           0        2.909679   -2.574384   -3.225927
      2          6           0        2.452204   -3.303735   -4.305721
      3          6           0        1.203296   -2.979836   -4.891659
      4          6           0        2.168458   -1.499165   -2.668679
      5          6           0        0.897128   -1.170205   -3.265454
      6          6           0        0.457354   -1.938848   -4.374776
      7          6           0        2.691937   -0.759938   -1.536454
      8          6           0        1.867039    0.283579   -1.049815
      9          6           0        0.608476    0.609677   -1.643177
     10          6           0        0.078069   -0.088627   -2.754993
     11          8           0        3.862562   -1.062094   -1.018062
     12          8           0       -1.076546    0.205804   -3.308764
     13          1           0        3.045032   -4.121442   -4.705307
     14          1           0        0.837050   -3.548371   -5.741549
     15          6           0        2.370090    1.083083    0.133530
     16          1           0        3.864537   -2.809293   -2.768488
     17          1           0       -0.501202   -1.678017   -4.810781
     18          1           0        2.726114    2.082639   -0.157222
     19          1           0        3.212138    0.562860    0.591933
     20          1           0        1.595333    1.236987    0.890692
     21          6           0       -0.228958    1.752082   -1.083496
     22          6           0       -1.142237    1.322235    0.042641
     23          6           0       -1.360888    1.904995    1.232306
     24          6           0       -2.321749    1.281330    2.226630
     25          6           0       -0.714604    3.194690    1.680945
     26          6           0       -1.644660    0.720669    3.503241
     27          6           0       -2.623437    0.030745    4.414000
     28          6           0       -2.989838    0.366307    5.659887
     29          6           0       -2.456617    1.550916    6.427048
     30          6           0       -4.004731   -0.457024    6.417140
     31          1           0       -0.857204    2.112295   -1.906321
     32          1           0        0.406026    2.583132   -0.768567
     33          1           0       -1.691946    0.404429   -0.166079
     34          1           0       -2.872585    0.470710    1.738456
     35          1           0       -3.066480    2.026918    2.536789
     36          1           0       -0.065294    3.628271    0.920859
     37          1           0       -0.116636    3.051083    2.587871
     38          1           0       -1.481594    3.938290    1.930196
     39          1           0       -1.118444    1.521265    4.026261
     40          1           0       -0.879844   -0.001139    3.188545
     41          1           0       -3.096599   -0.850683    3.980094
     42          1           0       -1.740200    2.145916    5.861388
     43          1           0       -1.967676    1.220257    7.351092
     44          1           0       -3.278653    2.209563    6.730891
     45          1           0       -4.362976   -1.303581    5.827576
     46          1           0       -4.869743    0.153403    6.702824
     47          1           0       -3.576846   -0.844770    7.349450
 ---------------------------------------------------------------------

 SCF Done:  E(UB3LYP) =  -965.617455178     A.U. after    2 cycles

 Alpha  occ. eigenvalues --  -19.00799 -19.00653 -10.17394 -10.16235 -10.16093
 Alpha  occ. eigenvalues --  -10.16058 -10.16032 -10.15978 -10.15923 -10.15846
 Alpha  occ. eigenvalues --  -10.15696 -10.15366 -10.14843 -10.14616 -10.14568
 Alpha  occ. eigenvalues --  -10.14238 -10.14211 -10.14104 -10.13282 -10.13242
 Alpha  occ. eigenvalues --  -10.13047 -10.12264 -10.12182  -0.91665  -0.91175
 Alpha  occ. eigenvalues --   -0.82035  -0.81897  -0.80252  -0.77564  -0.74743
 Alpha  occ. eigenvalues --   -0.72362  -0.71778  -0.70664  -0.68951  -0.67708
 Alpha  occ. eigenvalues --   -0.66256  -0.63476  -0.62010  -0.59658  -0.56481
 Alpha  occ. eigenvalues --   -0.55303  -0.51797  -0.51465  -0.50110  -0.47601
 Alpha  occ. eigenvalues --   -0.46734  -0.46266  -0.44925  -0.43645  -0.43137
 Alpha  occ. eigenvalues --   -0.42641  -0.42533  -0.40960  -0.40714  -0.39597
 Alpha  occ. eigenvalues --   -0.39547  -0.38318  -0.38222  -0.37662  -0.36766
 Alpha  occ. eigenvalues --   -0.36714  -0.36485  -0.36341  -0.36196  -0.35808
 Alpha  occ. eigenvalues --   -0.35354  -0.34586  -0.34248  -0.33112  -0.32634
 Alpha  occ. eigenvalues --   -0.32515  -0.31350  -0.30284  -0.30252  -0.29883
 Alpha  occ. eigenvalues --   -0.29261  -0.23801  -0.22481  -0.22403  -0.21508
 Alpha  occ. eigenvalues --   -0.19696  -0.19098  -0.18365  -0.10786
 Alpha virt. eigenvalues --   -0.00594  -0.00295   0.00145   0.00618   0.00935
 Alpha virt. eigenvalues --    0.01295   0.01448   0.01455   0.01948   0.02154
 Alpha virt. eigenvalues --    0.02724   0.03028   0.03824   0.03881   0.04178

  Beta  occ. eigenvalues --  -19.00799 -19.00653 -10.17394 -10.16235 -10.16093
  Beta  occ. eigenvalues --  -10.16058 -10.16032 -10.15978 -10.15923 -10.15846
  Beta  occ. eigenvalues --  -10.15696 -10.15366 -10.14843 -10.14616 -10.14568
  Beta  occ. eigenvalues --  -10.14238 -10.14211 -10.14104 -10.13282 -10.13242
  Beta  occ. eigenvalues --  -10.13047 -10.12264 -10.12182  -0.91665  -0.91175
  Beta  occ. eigenvalues --   -0.82035  -0.81897  -0.80252  -0.77564  -0.74743
  Beta  occ. eigenvalues --   -0.72362  -0.71778  -0.70664  -0.68951  -0.67708
  Beta  occ. eigenvalues --   -0.66256  -0.63476  -0.62010  -0.59658  -0.56481
  Beta  occ. eigenvalues --   -0.55303  -0.51797  -0.51465  -0.50110  -0.47601
  Beta  occ. eigenvalues --   -0.46734  -0.46266  -0.44925  -0.43645  -0.43137
  Beta  occ. eigenvalues --   -0.42641  -0.42533  -0.40960  -0.40714  -0.39597
  Beta  occ. eigenvalues --   -0.39547  -0.38318  -0.38222  -0.37662  -0.36766
  Beta  occ. eigenvalues --   -0.36714  -0.36485  -0.36341  -0.36196  -0.35808
  Beta  occ. eigenvalues --   -0.35354  -0.34586  -0.34248  -0.33112  -0.32634
  Beta  occ. eigenvalues --   -0.32515  -0.31350  -0.30284  -0.30252  -0.29883
  Beta  occ. eigenvalues --   -0.29261  -0.23801  -0.22481  -0.22403  -0.21508
  Beta  occ. eigenvalues --   -0.19696  -0.19098  -0.18365  -0.10786
  Beta virt. eigenvalues --   -0.00594  -0.00295   0.00145   0.00618   0.00935
  Beta virt. eigenvalues --    0.01295   0.01448   0.01455   0.01948   0.02154
  Beta virt. eigenvalues --    0.02724   0.03028   0.03824   0.03881   0.04178

 Mulliken charges and spin densities:
               1          2
     1  C    0.024676   0.000000
     2  C   -0.491714  -0.000000
     3  C   -0.450570  -0.000000
     4  C    0.150383  -0.000000
     5  C    0.159280  -0.000000
     6  C   -0.095472   0.000000
     7  C   -0.699878   0.000000
     8  C    0.751409  -0.000000
     9  C    0.714922  -0.000000
    10  C   -0.894812   0.000000
    11  O   -0.718597  -0.000000
    12  O   -0.697027   0.000000
    13  H    0.149025  -0.000000
    14  H    0.153449  -0.000000
    15  C   -0.608506  -0.000000
    16  H    0.148573  -0.000000
    17  H    0.147403   0.000000
    18  H    0.155989   0.000000
    19  H    0.156380  -0.000000
    20  H    0.152242  -0.000000
    21  C   -0.097024   0.000000
    22  C   -0.777898  -0.000000
    23  C    1.024430  -0.000000
    24  C   -0.961758   0.000000
    25  C   -0.805844   0.000000
    26  C   -0.218504  -0.000000
    27  C   -0.084801   0.000000
    28  C    0.379984  -0.000000
    29  C   -0.662617  -0.000000
    30  C   -0.622952  -0.000000
    31  H    0.179146  -0.000000
    32  H    0.159373  -0.000000
    33  H    0.203652   0.000000
    34  H    0.151928   0.000000
    35  H    0.159399  -0.000000
    36  H    0.123186   0.000000
    37  H    0.150543   0.000000
    38  H    0.154131  -0.000000
    39  H    0.120301  -0.000000
    40  H    0.156344  -0.000000
    41  H    0.173259  -0.000000
    42  H    0.142733  -0.000000
    43  H    0.145789   0.000000
    44  H    0.149160   0.000000
    45  H    0.154658  -0.000000
    46  H    0.151683   0.000000
    47  H    0.144546   0.000000
 Sum of Mulliken charges =  -2.00000   0.00000

 Dipole moment (field-independent basis, Debye):
    X=            -13.3196    Y=              6.2391    Z=             22.2457  Tot=             26.6686
 Quadrupole moment (field-independent basis, Debye-Ang):
   XX=           -218.9624   YY=           -161.6951   ZZ=           -212.9046
   XY=             22.2380   XZ=              9.9786   YZ=             -9.9774

  Exact polarizability: 398.766 -50.903 410.582   0.483 122.541 481.451
 Approx polarizability: 437.790 -57.976 445.420  22.095 128.855 501.413

                      1                      2                      3
                      A                      A                      A
 Frequencies --     18.8416                27.0382                30.3704
 Red. masses --      3.9738                 3.2922                 4.0516
 Frc consts  --      0.0008                 0.0014                 0.0022
 IR Inten    --      1.7050                 0.2614                 0.3039

                      4                      5                      6
                      A                      A                      A
 Frequencies --     40.8453                49.3552                59.5478
 Red. masses --      3.4166                 3.5045                 3.8629
 Frc consts  --      0.0034                 0.0050                 0.0081
 IR Inten    --      1.5207                 2.1948                10.2790

                      7                      8                      9
                      A                      A                      A
 Frequencies --     84.9264               103.5570               114.5442
 Red. masses --      2.4853                 2.2589                 2.2829
 Frc consts  --      0.0106                 0.0143                 0.0176
 IR Inten    --      0.7993                14.1122                 5.0656

                     10                     11                     12
                      A                      A                      A
 Frequencies --    139.2529               145.8196               147.9491
 Red. masses --      1.9047                 1.1436                 1.2273
 Frc consts  --      0.0218                 0.0143                 0.0158
 IR Inten    --      1.9696                 0.2900                 2.7583

                     13                     14                     15
                      A                      A                      A
 Frequencies --    164.6208               180.3823               195.1134
 Red. masses --      2.5563                 2.6952                 2.1325
 Frc consts  --      0.0408                 0.0517                 0.0478
 IR Inten    --      0.8173                 1.5645                 3.5282

                     16                     17                     18
                      A                      A                      A
 Frequencies --    203.7768               219.8277               257.3694
 Red. masses --      2.3202                 2.6102                 3.3277
 Frc consts  --      0.0568                 0.0743                 0.1299
 IR Inten    --      1.7353                 1.3562                 0.5595

                     19                     20                     21
                      A                      A                      A
 Frequencies --    266.0003               293.9604               306.9785
 Red. masses --      4.4739                 2.5946                 3.5642
 Frc consts  --      0.1865                 0.1321                 0.1979
 IR Inten    --     20.7794                 0.3937                 6.3466

                     22                     23                     24
                      A                      A                      A
 Frequencies --    330.9038               345.3198               359.2210
 Red. masses --      2.7513                 3.4399                 2.8609
 Frc consts  --      0.1775                 0.2417                 0.2175
 IR Inten    --      2.2439                 4.3887                 2.3882

                     25                     26                     27
                      A                      A                      A
 Frequencies --    376.0078               391.3599               398.7319
 Red. masses --      5.0897                 3.9479                 2.4786
 Frc consts  --      0.4240                 0.3563                 0.2322
 IR Inten    --     18.6421                 0.5982                 4.6661

                     28                     29                     30
                      A                      A                      A
 Frequencies --    419.0838               433.4260               454.5432
 Red. masses --      3.1868                 5.7124                 3.1976
 Frc consts  --      0.3298                 0.6323                 0.3892
 IR Inten    --      2.2818                 8.3229                 1.7705

                     31                     32                     33
                      A                      A                      A
 Frequencies --    464.2300               480.2102               498.6603
 Red. masses --      2.8501                 3.9352                 2.6180
 Frc consts  --      0.3619                 0.5347                 0.3836
 IR Inten    --     17.3680                 1.2031                 3.4697

                     34                     35                     36
                      A                      A                      A
 Frequencies --    515.6212               535.3593               562.1918
 Red. masses --      5.3755                 3.8133                 4.0048
 Frc consts  --      0.8420                 0.6439                 0.7458
 IR Inten    --      0.6094                 1.1170                10.4477

                     37                     38                     39
                      A                      A                      A
 Frequencies --    582.3582               633.0582               665.5263
 Red. masses --      2.7844                 4.4556                 4.7054
 Frc consts  --      0.5564                 1.0521                 1.2279
 IR Inten    --     38.4706                50.8308                 8.3036

                     40                     41                     42
                      A                      A                      A
 Frequencies --    669.2943               683.9967               710.3610
 Red. masses --      4.8425                 3.4710                 3.0878
 Frc consts  --      1.2781                 0.9568                 0.9180
 IR Inten    --      1.1859                44.0841                64.4035

                     43                     44                     45
                      A                      A                      A
 Frequencies --    753.9773               774.3703               788.3673
 Red. masses --      1.5570                 1.8764                 2.8551
 Frc consts  --      0.5215                 0.6629                 1.0455
 IR Inten    --      3.5058                54.5736                 1.5392

                     46                     47                     48
                      A                      A                      A
 Frequencies --    797.0392               811.3418               832.9117
 Red. masses --      2.7467                 2.4334                 2.4773
 Frc consts  --      1.0281                 0.9438                 1.0126
 IR Inten    --      0.5158                10.3475                 4.3974

                     49                     50                     51
                      A                      A                      A
 Frequencies --    846.7197               860.7506               867.4447
 Red. masses --      2.0217                 1.6140                 1.7318
 Frc consts  --      0.8540                 0.7046                 0.7678
 IR Inten    --     56.9225                 0.0815                 4.7774

                     52                     53                     54
                      A                      A                      A
 Frequencies --    901.3700               958.4679               961.3987
 Red. masses --      2.2136                 1.5102                 2.2495
 Frc consts  --      1.0596                 0.8174                 1.2250
 IR Inten    --     20.4864                 3.1953                 8.5924

                     55                     56                     57
                      A                      A                      A
 Frequencies --    974.3788               980.1150               981.9956
 Red. masses --      1.3551                 1.7828                 1.2340
 Frc consts  --      0.7580                 1.0090                 0.7011
 IR Inten    --      5.6828                22.7908                 0.2314

                     58                     59                     60
                      A                      A                      A
 Frequencies --    988.1084               996.2034              1008.0567
 Red. masses --      3.2367                 2.0447                 2.8112
 Frc consts  --      1.8619                 1.1956                 1.6831
 IR Inten    --     43.1961                 6.2247                 8.4913

                     61                     62                     63
                      A                      A                      A
 Frequencies --   1012.4960              1022.3704              1036.3885
 Red. masses --      1.2579                 2.0473                 2.0523
 Frc consts  --      0.7598                 1.2608                 1.2988
 IR Inten    --      7.4179                73.8872                45.3363

                     64                     65                     66
                      A                      A                      A
 Frequencies --   1042.8098              1058.3678              1066.4386
 Red. masses --      1.5917                 1.6391                 2.1539
 Frc consts  --      1.0198                 1.0818                 1.4433
 IR Inten    --     28.2272                23.6139               155.6550

                     67                     68                     69
                      A                      A                      A
 Frequencies --   1093.8291              1098.8542              1099.2226
 Red. masses --      2.0828                 1.8350                 2.0047
 Frc consts  --      1.4682                 1.3055                 1.4271
 IR Inten    --    100.9708                21.6412                29.9145

                     70                     71                     72
                      A                      A                      A
 Frequencies --   1117.1491              1126.6386              1158.3285
 Red. masses --      1.8369                 2.0492                 2.2030
 Frc consts  --      1.3507                 1.5325                 1.7415
 IR Inten    --    153.2424                40.2859                16.6599

                     73                     74                     75
                      A                      A                      A
 Frequencies --   1168.3087              1180.3187              1187.0689
 Red. masses --      1.6476                 1.6592                 1.5907
 Frc consts  --      1.3250                 1.3619                 1.3207
 IR Inten    --      7.1901               114.7217               219.9467

                     76                     77                     78
                      A                      A                      A
 Frequencies --   1225.4118              1242.9585              1256.5732
 Red. masses --      2.6550                 1.8952                 1.8598
 Frc consts  --      2.3490                 1.7252                 1.7302
 IR Inten    --    150.4671                16.9154                97.0540

                     79                     80                     81
                      A                      A                      A
 Frequencies --   1272.7620              1282.1646              1304.4070
 Red. masses --      1.9891                 1.3976                 1.3882
 Frc consts  --      1.8985                 1.3537                 1.3917
 IR Inten    --      3.4660                 7.4023                58.5978

                     82                     83                     84
                      A                      A                      A
 Frequencies --   1309.6054              1324.9137              1345.4423
 Red. masses --      1.2535                 7.8518                 3.1098
 Frc consts  --      1.2667                 8.1207                 3.3168
 IR Inten    --     57.6853               267.3163              1418.4952

                     85                     86                     87
                      A                      A                      A
 Frequencies --   1351.3465              1374.1211              1379.5864
 Red. masses --      1.4309                 4.7644                 1.3035
 Frc consts  --      1.5396                 5.3004                 1.4617
 IR Inten    --     14.2068               295.4540                 9.6114

                     88                     89                     90
                      A                      A                      A
 Frequencies --   1383.3196              1389.1601              1404.0860
 Red. masses --      1.2928                 1.7703                 1.3566
 Frc consts  --      1.4575                 2.0128                 1.5757
 IR Inten    --     19.4352               263.5130                10.5269

                     91                     92                     93
                      A                      A                      A
 Frequencies --   1407.9948              1411.3039              1427.7318
 Red. masses --      1.3499                 1.2732                 2.7819
 Frc consts  --      1.5767                 1.4942                 3.3411
 IR Inten    --      7.4361                 4.2104                21.4113

                     94                     95                     96
                      A                      A                      A
 Frequencies --   1434.4101              1455.6232              1463.8666
 Red. masses --      2.8004                 1.1460                 1.0453
 Frc consts  --      3.3949                 1.4306                 1.3197
 IR Inten    --     21.1423                13.6986                 0.5266

                     97                     98                     99
                      A                      A                      A
 Frequencies --   1466.9733              1473.5822              1476.8381
 Red. masses --      1.0836                 1.1167                 1.0840
 Frc consts  --      1.3740                 1.4287                 1.3930
 IR Inten    --      4.9689                 5.5106                 5.5809

                    100                    101                    102
                      A                      A                      A
 Frequencies --   1480.5123              1481.3104              1481.9822
 Red. masses --      1.0437                 1.0606                 1.0747
 Frc consts  --      1.3478                 1.3712                 1.3907
 IR Inten    --     14.5709                13.3737                17.7758

                    103                    104                    105
                      A                      A                      A
 Frequencies --   1484.6463              1491.0207              1495.8028
 Red. masses --      1.0768                 1.2167                 1.0936
 Frc consts  --      1.3983                 1.5936                 1.4416
 IR Inten    --      9.4767                 6.7154                14.2723

                    106                    107                    108
                      A                      A                      A
 Frequencies --   1504.1447              1523.1049              1579.7943
 Red. masses --      2.4248                 4.3488                 7.2520
 Frc consts  --      3.2322                 5.9440                10.6637
 IR Inten    --     21.0123               175.1135                 7.6112

                    109                    110                    111
                      A                      A                      A
 Frequencies --   1603.7622              1700.4307              1718.5971
 Red. masses --      5.4005                 6.6177                 6.3448
 Frc consts  --      8.1839                11.2740                11.0413
 IR Inten    --      2.4562                 2.5688                 4.6969

                    112                    113                    114
                      A                      A                      A
 Frequencies --   2966.4405              2987.2506              3001.4127
 Red. masses --      1.0599                 1.0654                 1.0382
 Frc consts  --      5.4951                 5.6018                 5.5103
 IR Inten    --    200.5090                30.3177                51.3521

                    115                    116                    117
                      A                      A                      A
 Frequencies --   3003.4724              3003.9571              3006.1955
 Red. masses --      1.0662                 1.0671                 1.0444
 Frc consts  --      5.6670                 5.6735                 5.5611
 IR Inten    --    104.0960                45.0884               130.6951

                    118                    119                    120
                      A                      A                      A
 Frequencies --   3009.0677              3040.9128              3041.6062
 Red. masses --      1.0422                 1.0772                 1.0959
 Frc consts  --      5.5596                 5.8690                 5.9733
 IR Inten    --     78.4545                75.1158                32.0123

                    121                    122                    123
                      A                      A                      A
 Frequencies --   3041.7095              3043.9098              3045.2371
 Red. masses --      1.0993                 1.0959                 1.0989
 Frc consts  --      5.9922                 5.9824                 6.0042
 IR Inten    --     39.0946                38.0151                49.0193

                    124                    125                    126
                      A                      A                      A
 Frequencies --   3065.9613              3080.4787              3092.3737
 Red. masses --      1.0927                 1.0903                 1.0988
 Frc consts  --      6.0517                 6.0961                 6.1909
 IR Inten    --     38.4007                34.8760                15.0186

                    127                    128                    129
                      A                      A                      A
 Frequencies --   3100.8548              3103.3579              3104.3575
 Red. masses --      1.0887                 1.0885                 1.0941
 Frc consts  --      6.1678                 6.1765                 6.2125
 IR Inten    --     79.7387                74.2352                18.4169

                    130                    131                    132
                      A                      A                      A
 Frequencies --   3115.8148              3117.9739              3134.4723
 Red. masses --      1.0941                 1.0945                 1.0845
 Frc consts  --      6.2583                 6.2693                 6.2778
 IR Inten    --     55.1111                42.4571                18.5987

                    133                    134                    135
                      A                      A                      A
 Frequencies --   3150.4670              3168.0962              3177.6948
 Red. masses --      1.0895                 1.0921                 1.0912
 Frc consts  --      6.3713                 6.4580                 6.4918
 IR Inten    --     41.3199                62.3112                56.7603

 - Thermochemistry -
 -------------------
 Temperature   298.150 Kelvin.  Pressure   1.00000 Atm.
 Atom     1 has atomic number  6 and mass  12.00000

 Molecular mass:   308.17763 amu.
 Principal axes and moments of inertia in atomic units:
                           1         2         3
     Eigenvalues --  3847.59674********************
           X           -0.45773   0.61425   0.64279
           Y            0.26604  -0.59522   0.75825
           Z            0.84835   0.51808   0.10903
 This molecule is an asymmetric top.
 Rotational symmetry number  1.
 Warning -- assumption of classical behavior for rotation
           may cause significant error
 Rotational temperatures (Kelvin)      0.02251     0.00440     0.00439
 Rotational constants (GHZ):           0.46906     0.09173     0.09138
 Zero-point vibrational energy    1023545.9 (Joules/Mol)
                                  244.63334 (Kcal/Mol)
 Warning -- explicit consideration of  37 degrees of freedom as
           vibrations may cause significant error
 Vibrational temperatures:     27.11    38.90    43.70    58.77    71.01
          (Kelvin)             85.68   122.19   149.00   164.80   200.35
                              209.80   212.87   236.85   259.53   280.72
                              293.19   316.28   370.30   382.72   422.94
                              441.67   476.10   496.84   516.84   540.99
                              563.08   573.69   602.97   623.60   653.99
                              667.92   690.92   717.46   741.86   770.26
                              808.87   837.88   910.83   957.54   962.97
                              984.12  1022.05  1084.81  1114.15  1134.28
                             1146.76  1167.34  1198.37  1218.24  1238.43
                             1248.06  1296.87  1379.02  1383.24  1401.91
                             1410.17  1412.87  1421.67  1433.31  1450.37
                             1456.76  1470.96  1491.13  1500.37  1522.76
                             1534.37  1573.78  1581.01  1581.54  1607.33
                             1620.98  1666.58  1680.94  1698.22  1707.93
                             1763.09  1788.34  1807.93  1831.22  1844.75
                             1876.75  1884.23  1906.26  1935.79  1944.29
                             1977.05  1984.92  1990.29  1998.69  2020.17
                             2025.79  2030.55  2054.19  2063.80  2094.32
                             2106.18  2110.65  2120.16  2124.84  2130.13
                             2131.28  2132.24  2136.07  2145.25  2152.13
                             2164.13  2191.41  2272.97  2307.46  2446.54
                             2472.68  4268.05  4297.99  4318.36  4321.33
                             4322.02  4325.24  4329.38  4375.20  4376.19
                             4376.34  4379.51  4381.42  4411.23  4432.12
                             4449.24  4461.44  4465.04  4466.48  4482.96
                             4486.07  4509.81  4532.82  4558.18  4571.99

 Zero-point correction=                           0.389848 (Hartree/Particle)
 Thermal correction to Energy=                    0.413342
 Thermal correction to Enthalpy=                  0.414286
 Thermal correction to Gibbs Free Energy=         0.334887
 Sum of electronic and zero-point Energies=           -965.227607
 Sum of electronic and thermal Energies=              -965.204114
 Sum of electronic and thermal Enthalpies=            -965.203169
 Sum of electronic and thermal Free Energies=         -965.282568

                     E (Thermal)             CV                S
                      KCal/Mol        Cal/Mol-Kelvin    Cal/Mol-Kelvin
 Total                  259.376             89.099            167.109
 Electronic               0.000              0.000              0.000
 Translational            0.889              2.981             43.073
 Rotational               0.889              2.981             35.657
 Vibrational            257.598             83.137             88.380
 Vibration     1          0.593              1.986              6.753
 Vibration     2          0.593              1.984              6.036
 Vibration     3          0.594              1.984              5.805
 Vibration     4          0.594              1.981              5.218
 Vibration     5          0.595              1.978              4.843
 Vibration     6          0.597              1.974              4.472
 Vibration     7          0.601              1.960              3.774
 Vibration     8          0.605              1.946              3.386
 Vibration     9          0.607              1.937              3.190
 Vibration    10          0.615              1.914              2.814
 Vibration    11          0.617              1.907              2.726
 Vibration    12          0.617              1.905              2.698
 Vibration    13          0.623              1.886              2.496
 Vibration    14          0.629              1.866              2.324
 Vibration    15          0.636              1.847              2.179
 Vibration    16          0.639              1.835              2.099
 Vibration    17          0.647              1.811              1.961
 Vibration    18          0.667              1.750              1.680
 Vibration    19          0.672              1.735              1.622
 Vibration    20          0.689              1.685              1.451
 Vibration    21          0.697              1.660              1.379
 Vibration    22          0.713              1.614              1.256
 Vibration    23          0.724              1.585              1.187
 Vibration    24          0.734              1.556              1.125
 Vibration    25          0.747              1.521              1.055
 Vibration    26          0.759              1.489              0.995
 Vibration    27          0.765              1.473              0.967
 Vibration    28          0.782              1.429              0.895
 Vibration    29          0.794              1.397              0.848
 Vibration    30          0.813              1.351              0.782
 Vibration    31          0.822              1.329              0.754
 Vibration    32          0.837              1.294              0.709
 Vibration    33          0.854              1.253              0.661
 Vibration    34          0.871              1.215              0.620
 Vibration    35          0.890              1.172              0.575
 Vibration    36          0.918              1.113              0.519
 Vibration    37          0.939              1.069              0.481

 Optimization completed.
    -- Stationary point found.
 Normal termination of Gaussian 16 at Sun Feb 11 11:30:00 2024.
