 Gaussian 16, Revision A.03,
 Gaussian 16:  ES64L-G16RevA.03 25-Dec-2016

 --------------------------------------
 #P UB3LYP/6-311++G(d,p) nosym opt freq
 --------------------------------------

 -------
 Radical
 -------
 Symbolic Z-matrix:
 Charge = -1 Multiplicity = 2

 SCF Done:  E(UB3LYP) =  -1029.27011704     A.U. after   20 cycles
 SCF Done:  E(UB3LYP) =  -1029.32388046     A.U. after   17 cycles
 SCF Done:  E(UB3LYP) =  -1029.38263733     A.U. after   18 cycles
 SCF Done:  E(UB3LYP) =  -1029.39567415     A.U. after   18 cycles
 SCF Done:  E(UB3LYP) =  -1029.39972904     A.U. after   16 cycles
 SCF Done:  E(UB3LYP) =  -1029.39986209     A.U. after   17 cycles
 SCF Done:  E(UB3LYP) =  -1029.40067864     A.U. after   16 cycles
 SCF Done:  E(UB3LYP) =  -1029.40075235     A.U. after   16 cycles
 SCF Done:  E(UB3LYP) =  -1029.40085604     A.U. after   15 cycles
 SCF Done:  E(UB3LYP) =  -1029.40091817     A.U. after   14 cycles
 SCF Done:  E(UB3LYP) =  -1029.40097029     A.U. after   13 cycles
 SCF Done:  E(UB3LYP) =  -1029.40102749     A.U. after   15 cycles
 SCF Done:  E(UB3LYP) =  -1029.40107124     A.U. after   12 cycles
 SCF Done:  E(UB3LYP) =  -1029.40124124     A.U. after   14 cycles
 SCF Done:  E(UB3LYP) =  -1029.40120869     A.U. after   13 cycles
 SCF Done:  E(UB3LYP) =  -1029.40123539     A.U. after   14 cycles
 SCF Done:  E(UB3LYP) =  -1029.40126066     A.U. after   13 cycles
 SCF Done:  E(UB3LYP) =  -1029.40127506     A.U. after   12 cycles
 SCF Done:  E(UB3LYP) =  -1029.40127511     A.U. after   10 cycles
 Optimization completed.
    -- Stationary point found.
 Normal termination of Gaussian 16 at Thu Dec 21 21:57:50 2023.

 ----------------------------------------------------------------------
 #P Geom=AllCheck Guess=TCheck SCRF=Check GenChk UB3LYP/6-311++G(d,p) F
 req
 ----------------------------------------------------------------------

 Structure from the checkpoint file:  "206-rad.chk"
 -------
 Radical
 -------
 Charge = -1 Multiplicity = 2

                          Input orientation:
 ---------------------------------------------------------------------
 Center     Atomic      Atomic             Coordinates (Angstroms)
 Number     Number       Type             X           Y           Z
 ---------------------------------------------------------------------
      1          6           0       -4.551342    0.894548    0.346091
      2          6           0       -3.197470    0.255519    0.179603
      3          6           0       -3.062440   -1.118474   -0.059895
      4          6           0       -1.818570   -1.719861   -0.215148
      5          8           0       -1.766534   -3.054383   -0.444434
      6          6           0       -0.636953   -0.934503   -0.131856
      7          6           0        0.657983   -1.544028   -0.290610
      8          8           0        0.761016   -2.819288   -0.511933
      9          6           0        1.835922   -0.719383   -0.200470
     10          6           0        3.128916   -1.294737   -0.353196
     11          8           0        3.290651   -2.620148   -0.585191
     12          6           0        4.258560   -0.489099   -0.264359
     13          6           0        4.144035    0.884119   -0.026220
     14          6           0        2.898390    1.481716    0.128298
     15          8           0        2.840644    2.816322    0.357408
     16          6           0        1.717921    0.689565    0.043989
     17          6           0        0.421750    1.297255    0.202596
     18          8           0        0.315574    2.573681    0.424304
     19          6           0       -0.757091    0.472306    0.112523
     20          6           0       -2.048103    1.046753    0.265235
     21          8           0       -2.205156    2.374459    0.497786
     22          1           0       -4.714909    1.677328   -0.401957
     23          1           0       -4.642999    1.380010    1.323348
     24          1           0       -5.346562    0.151225    0.251150
     25          1           0       -3.943590   -1.747770   -0.129467
     26          1           0       -0.796824   -3.271245   -0.522706
     27          1           0        2.369125   -2.998743   -0.610209
     28          1           0        5.231374   -0.952348   -0.384403
     29          1           0        5.026256    1.510541    0.042672
     30          1           0        1.870208    3.029673    0.434894
     31          1           0       -1.279782    2.748989    0.522154
 ---------------------------------------------------------------------

 SCF Done:  E(UB3LYP) =  -1029.40127511     A.U. after    1 cycles

 Alpha  occ. eigenvalues --  -19.02211 -19.02151 -19.02085 -19.02077 -18.99033
 Alpha  occ. eigenvalues --  -18.99012 -10.13219 -10.13181 -10.12494 -10.12449
 Alpha  occ. eigenvalues --  -10.12441 -10.12261 -10.07702 -10.07294 -10.07287
 Alpha  occ. eigenvalues --  -10.07277 -10.07235 -10.07115 -10.06591 -10.06538
 Alpha  occ. eigenvalues --  -10.06394  -0.94964  -0.94778  -0.93978  -0.93849
 Alpha  occ. eigenvalues --   -0.89719  -0.89577  -0.75720  -0.73935  -0.69579
 Alpha  occ. eigenvalues --   -0.65736  -0.63945  -0.62629  -0.60123  -0.56780
 Alpha  occ. eigenvalues --   -0.54206  -0.52266  -0.49581  -0.48219  -0.44450
 Alpha  occ. eigenvalues --   -0.42170  -0.41570  -0.40876  -0.40546  -0.40433
 Alpha  occ. eigenvalues --   -0.36612  -0.34587  -0.34199  -0.33965  -0.32563
 Alpha  occ. eigenvalues --   -0.32174  -0.32072  -0.30778  -0.30290  -0.30251
 Alpha  occ. eigenvalues --   -0.29898  -0.29728  -0.29723  -0.27924  -0.27791
 Alpha  occ. eigenvalues --   -0.26426  -0.25985  -0.25539  -0.25360  -0.24588
 Alpha  occ. eigenvalues --   -0.23624  -0.20312  -0.19377  -0.16445  -0.16282
 Alpha  occ. eigenvalues --   -0.14634  -0.14403  -0.11766  -0.09647  -0.03666
 Alpha virt. eigenvalues --    0.06330   0.07538   0.07968   0.08633   0.09882
 Alpha virt. eigenvalues --    0.10641   0.10716   0.11576   0.12271   0.12347
 Alpha virt. eigenvalues --    0.12604   0.14029   0.14803   0.15059   0.15206

  Beta  occ. eigenvalues --  -19.02154 -19.02097 -19.02032 -19.02020 -18.98635
  Beta  occ. eigenvalues --  -18.98632 -10.13008 -10.12952 -10.12442 -10.12402
  Beta  occ. eigenvalues --  -10.12386 -10.12190 -10.07595 -10.07302 -10.07290
  Beta  occ. eigenvalues --  -10.07284 -10.07231 -10.07125 -10.06484 -10.06428
  Beta  occ. eigenvalues --  -10.06304  -0.94743  -0.94564  -0.93866  -0.93738
  Beta  occ. eigenvalues --   -0.89113  -0.88951  -0.75483  -0.73745  -0.69254
  Beta  occ. eigenvalues --   -0.65569  -0.63599  -0.62380  -0.59918  -0.56259
  Beta  occ. eigenvalues --   -0.54008  -0.52070  -0.49479  -0.48080  -0.44221
  Beta  occ. eigenvalues --   -0.42042  -0.41444  -0.40766  -0.40465  -0.40250
  Beta  occ. eigenvalues --   -0.36438  -0.34418  -0.33832  -0.33623  -0.32087
  Beta  occ. eigenvalues --   -0.31892  -0.31779  -0.30693  -0.30192  -0.29803
  Beta  occ. eigenvalues --   -0.29731  -0.29614  -0.28937  -0.27848  -0.27381
  Beta  occ. eigenvalues --   -0.25833  -0.25493  -0.25347  -0.24485  -0.23967
  Beta  occ. eigenvalues --   -0.23505  -0.19445  -0.18923  -0.15978  -0.15059
  Beta  occ. eigenvalues --   -0.14353  -0.14028  -0.10457  -0.08813
  Beta virt. eigenvalues --    0.01300   0.07535   0.07787   0.08635   0.08902
  Beta virt. eigenvalues --    0.09885   0.10657   0.10727   0.11641   0.12285
  Beta virt. eigenvalues --    0.12356   0.13046   0.14047   0.14813   0.15216

 Mulliken charges and spin densities:
               1          2
     1  C   -0.146882   0.002828
     2  C    1.049321   0.075650
     3  C   -0.770725   0.055610
     4  C   -0.444087   0.048067
     5  O   -0.369625   0.016859
     6  C    0.564159  -0.013798
     7  C   -0.575895   0.118422
     8  O   -0.511105   0.133197
     9  C    0.408356  -0.003663
    10  C   -0.408580   0.043122
    11  O   -0.373352   0.016990
    12  C   -0.006910   0.077534
    13  C   -0.057407   0.070010
    14  C   -0.365766   0.051751
    15  O   -0.377704   0.018058
    16  C    0.470665  -0.006591
    17  C   -0.485959   0.128811
    18  O   -0.524777   0.139127
    19  C    0.159883  -0.029993
    20  C   -0.295193   0.061201
    21  O   -0.386214   0.019382
    22  H    0.167984   0.003385
    23  H    0.167901   0.003415
    24  H    0.140874   0.000050
    25  H    0.119872  -0.006278
    26  H    0.376996  -0.002372
    27  H    0.377096  -0.002434
    28  H    0.157035  -0.006964
    29  H    0.156241  -0.006492
    30  H    0.377896  -0.002495
    31  H    0.405901  -0.002386
 Sum of Mulliken charges =  -1.00000   1.00000

 Dipole moment (field-independent basis, Debye):
    X=             -2.8611    Y=              0.7336    Z=              0.2469  Tot=              2.9640
 Quadrupole moment (field-independent basis, Debye-Ang):
   XX=           -154.6652   YY=           -162.8776   ZZ=           -127.9296
   XY=              0.4801   XZ=              1.2674   YZ=             -6.1514

  Exact polarizability: 388.340   2.999 246.905 -11.593  24.123 108.872
 Approx polarizability: 612.373   6.407 466.555 -17.817  50.410 177.816

                      1                      2                      3
                      A                      A                      A
 Frequencies --     50.1227                65.7350                98.2590
 Red. masses --      5.5519                 7.5470                 1.0988
 Frc consts  --      0.0082                 0.0192                 0.0063
 IR Inten    --      0.7650                 0.0067                 0.0001

                      4                      5                      6
                      A                      A                      A
 Frequencies --    113.3559               129.1611               146.8604
 Red. masses --      6.8725                 6.9264                 7.8350
 Frc consts  --      0.0520                 0.0681                 0.0996
 IR Inten    --      0.1051                 0.0392                 0.7113

                      7                      8                      9
                      A                      A                      A
 Frequencies --    169.7995               196.7063               208.9053
 Red. masses --      7.7278                 4.9497                 5.7275
 Frc consts  --      0.1313                 0.1128                 0.1473
 IR Inten    --      0.2863                 0.0710                 0.4337

                     10                     11                     12
                      A                      A                      A
 Frequencies --    275.5631               279.3385               310.2476
 Red. masses --      5.6563                 4.1628                 6.8409
 Frc consts  --      0.2531                 0.1914                 0.3880
 IR Inten    --      0.8369                 1.4935                 0.2478

                     13                     14                     15
                      A                      A                      A
 Frequencies --    321.8303               372.6806               382.3188
 Red. masses --      5.4393                 6.5009                 7.9213
 Frc consts  --      0.3319                 0.5320                 0.6822
 IR Inten    --      1.1987                 0.0130                 0.3616

                     16                     17                     18
                      A                      A                      A
 Frequencies --    404.9007               416.5164               424.8441
 Red. masses --      5.7132                 6.4470                 7.3379
 Frc consts  --      0.5519                 0.6590                 0.7803
 IR Inten    --      6.8441                 0.6990                10.9406

                     19                     20                     21
                      A                      A                      A
 Frequencies --    436.2899               468.4711               471.1081
 Red. masses --      8.7244                10.7526                10.4050
 Frc consts  --      0.9784                 1.3904                 1.3606
 IR Inten    --      1.3516                18.5214                 0.2058

                     22                     23                     24
                      A                      A                      A
 Frequencies --    481.7662               490.4949               499.9146
 Red. masses --     10.3760                 9.4862                 4.9120
 Frc consts  --      1.4189                 1.3447                 0.7233
 IR Inten    --     26.8595                25.4889                 2.0197

                     25                     26                     27
                      A                      A                      A
 Frequencies --    538.3183               546.2984               563.1502
 Red. masses --      5.7065                 8.2925                 4.4203
 Frc consts  --      0.9743                 1.4581                 0.8259
 IR Inten    --      1.3133                 1.0622                 4.8801

                     28                     29                     30
                      A                      A                      A
 Frequencies --    618.2487               631.2230               658.4374
 Red. masses --      5.0210                 4.3446                 5.7920
 Frc consts  --      1.1307                 1.0199                 1.4795
 IR Inten    --      2.2261                 0.2414                 2.6000

                     31                     32                     33
                      A                      A                      A
 Frequencies --    681.2216               707.2777               730.0162
 Red. masses --      4.6574                 7.6268                 7.2209
 Frc consts  --      1.2734                 2.2479                 2.2673
 IR Inten    --     29.4155                 1.0309                25.8546

                     34                     35                     36
                      A                      A                      A
 Frequencies --    735.8591               743.2488               801.8155
 Red. masses --      9.0020                 6.3497                 7.9446
 Frc consts  --      2.8720                 2.0667                 3.0093
 IR Inten    --      0.9979                 2.9299                51.5433

                     37                     38                     39
                      A                      A                      A
 Frequencies --    817.2781               844.1915               849.6624
 Red. masses --      1.6918                 1.1284                 1.1521
 Frc consts  --      0.6658                 0.4738                 0.4900
 IR Inten    --     84.4037               100.0612                97.7125

                     40                     41                     42
                      A                      A                      A
 Frequencies --    854.7243               854.9122               865.7104
 Red. masses --      1.5787                 2.9119                 1.1059
 Frc consts  --      0.6795                 1.2539                 0.4883
 IR Inten    --     46.4482                26.7661                 2.7953

                     43                     44                     45
                      A                      A                      A
 Frequencies --    875.5743               903.8202               933.3047
 Red. masses --      1.0561                 1.3129                 5.6795
 Frc consts  --      0.4770                 0.6319                 2.9148
 IR Inten    --     27.9248                 0.0169                30.9758

                     46                     47                     48
                      A                      A                      A
 Frequencies --    976.9675               992.6290              1036.9328
 Red. masses --      7.9751                 2.5130                 2.2175
 Frc consts  --      4.4848                 1.4589                 1.4048
 IR Inten    --    171.8707                 9.9136                48.0217

                     49                     50                     51
                      A                      A                      A
 Frequencies --   1049.8551              1090.3980              1138.3867
 Red. masses --      1.4655                 2.6862                 2.0097
 Frc consts  --      0.9517                 1.8817                 1.5345
 IR Inten    --      0.8151                17.6148                12.5142

                     52                     53                     54
                      A                      A                      A
 Frequencies --   1206.0808              1229.3882              1255.0366
 Red. masses --      1.7613                 2.9311                 2.7357
 Frc consts  --      1.5095                 2.6102                 2.5388
 IR Inten    --     77.6382                52.3905                13.9431

                     55                     56                     57
                      A                      A                      A
 Frequencies --   1266.0935              1270.9024              1297.3055
 Red. masses --      2.9570                 6.4129                 6.3714
 Frc consts  --      2.7928                 6.1028                 6.3179
 IR Inten    --     35.1529                42.8589               178.8050

                     58                     59                     60
                      A                      A                      A
 Frequencies --   1319.2471              1332.7206              1353.0271
 Red. masses --      7.7577                 4.2921                 4.3988
 Frc consts  --      7.9549                 4.4916                 4.7446
 IR Inten    --    111.3512                 5.0950               481.7495

                     61                     62                     63
                      A                      A                      A
 Frequencies --   1355.4575              1362.8940              1386.6761
 Red. masses --      4.0714                 5.5540                 4.8511
 Frc consts  --      4.4072                 6.0782                 5.4960
 IR Inten    --     26.1772                92.0320                93.2857

                     64                     65                     66
                      A                      A                      A
 Frequencies --   1409.7527              1420.8351              1470.2288
 Red. masses --      1.3634                 3.8942                 1.9792
 Frc consts  --      1.5964                 4.6319                 2.5207
 IR Inten    --      0.3755                66.2288               178.0166

                     67                     68                     69
                      A                      A                      A
 Frequencies --   1473.6475              1490.6041              1496.2671
 Red. masses --      1.0447                 4.8498                 1.4290
 Frc consts  --      1.3367                 6.3488                 1.8849
 IR Inten    --      5.5897                43.5498                76.6848

                     70                     71                     72
                      A                      A                      A
 Frequencies --   1504.3338              1520.7251              1541.9542
 Red. masses --      1.5049                 6.1337                 1.7679
 Frc consts  --      2.0065                 8.3574                 2.4765
 IR Inten    --    547.5873               575.5282                 1.4776

                     73                     74                     75
                      A                      A                      A
 Frequencies --   1587.0370              1604.3589              1634.6490
 Red. masses --      3.5948                 1.8729                 3.1399
 Frc consts  --      5.3345                 2.8404                 4.9433
 IR Inten    --    330.0046                 7.5623                 0.4158

                     76                     77                     78
                      A                      A                      A
 Frequencies --   1649.6987              1669.1981              3013.6816
 Red. masses --      4.3833                 2.5865                 1.0354
 Frc consts  --      7.0284                 4.2460                 5.5406
 IR Inten    --      6.2423                 3.3223                96.3286

                     79                     80                     81
                      A                      A                      A
 Frequencies --   3056.3576              3088.9261              3097.2593
 Red. masses --      1.0994                 1.1001                 1.0705
 Frc consts  --      6.0508                 6.1842                 6.0504
 IR Inten    --     26.2515                70.9146               262.9231

                     82                     83                     84
                      A                      A                      A
 Frequencies --   3124.5228              3164.7547              3166.1126
 Red. masses --      1.0688                 1.0888                 1.0837
 Frc consts  --      6.1474                 6.4250                 6.4004
 IR Inten    --    685.7249                27.2045                35.5226

                     85                     86                     87
                      A                      A                      A
 Frequencies --   3170.2288              3181.6369              3183.5087
 Red. masses --      1.0747                 1.0720                 1.0932
 Frc consts  --      6.3640                 6.3937                 6.5279
 IR Inten    --     32.6434                 2.3305                28.1041

 - Thermochemistry -
 -------------------
 Temperature   298.150 Kelvin.  Pressure   1.00000 Atm.
 Atom     1 has atomic number  6 and mass  12.00000

 Molecular mass:   286.04774 amu.
 Principal axes and moments of inertia in atomic units:
                           1         2         3
     Eigenvalues --  3537.786556740.85462**********
           X            0.99844   0.03694   0.04194
           Y           -0.02942   0.98544  -0.16747
           Z           -0.04752   0.16597   0.98498
 This molecule is an asymmetric top.
 Rotational symmetry number  1.
 Warning -- assumption of classical behavior for rotation
           may cause significant error
 Rotational temperatures (Kelvin)      0.02448     0.01285     0.00844
 Rotational constants (GHZ):           0.51013     0.26773     0.17577
 Zero-point vibrational energy     583836.0 (Joules/Mol)
                                  139.54016 (Kcal/Mol)
 Warning -- explicit consideration of  28 degrees of freedom as
           vibrations may cause significant error
 Vibrational temperatures:     72.12    94.58   141.37   163.09   185.83
          (Kelvin)            211.30   244.30   283.02   300.57   396.47
                              401.91   446.38   463.04   536.20   550.07
                              582.56   599.27   611.26   627.72   674.03
                              677.82   693.15   705.71   719.27   774.52
                              786.00   810.25   889.52   908.19   947.34
                              980.13  1017.61  1050.33  1058.74  1069.37
                             1153.63  1175.88  1214.60  1222.47  1229.76
                             1230.03  1245.56  1259.76  1300.40  1342.82
                             1405.64  1428.17  1491.92  1510.51  1568.84
                             1637.88  1735.28  1768.82  1805.72  1821.63
                             1828.55  1866.53  1898.10  1917.49  1946.70
                             1950.20  1960.90  1995.12  2028.32  2044.26
                             2115.33  2120.25  2144.65  2152.79  2164.40
                             2187.98  2218.53  2283.39  2308.31  2351.90
                             2373.55  2401.60  4336.02  4397.42  4444.28
                             4456.27  4495.49  4553.38  4555.33  4561.25
                             4577.67  4580.36

 Zero-point correction=                           0.222371 (Hartree/Particle)
 Thermal correction to Energy=                    0.238592
 Thermal correction to Enthalpy=                  0.239537
 Thermal correction to Gibbs Free Energy=         0.178722
 Sum of electronic and zero-point Energies=          -1029.178904
 Sum of electronic and thermal Energies=             -1029.162683
 Sum of electronic and thermal Enthalpies=           -1029.161739
 Sum of electronic and thermal Free Energies=        -1029.222553

                     E (Thermal)             CV                S
                      KCal/Mol        Cal/Mol-Kelvin    Cal/Mol-Kelvin
 Total                  149.719             65.668            127.996
 Electronic               0.000              0.000              1.377
 Translational            0.889              2.981             42.851
 Rotational               0.889              2.981             33.859
 Vibrational            147.941             59.707             49.908
 Vibration     1          0.595              1.978              4.813
 Vibration     2          0.597              1.971              4.277
 Vibration     3          0.604              1.950              3.489
 Vibration     4          0.607              1.938              3.211
 Vibration     5          0.612              1.924              2.958
 Vibration     6          0.617              1.906              2.713
 Vibration     7          0.625              1.880              2.438
 Vibration     8          0.636              1.844              2.164
 Vibration     9          0.642              1.827              2.053
 Vibration    10          0.677              1.719              1.561
 Vibration    11          0.680              1.712              1.538
 Vibration    12          0.699              1.654              1.361
 Vibration    13          0.707              1.632              1.301
 Vibration    14          0.744              1.528              1.069
 Vibration    15          0.752              1.508              1.030
 Vibration    16          0.770              1.460              0.945
 Vibration    17          0.780              1.434              0.904
 Vibration    18          0.787              1.416              0.876
 Vibration    19          0.797              1.391              0.838
 Vibration    20          0.826              1.320              0.742
 Vibration    21          0.828              1.314              0.734
 Vibration    22          0.838              1.290              0.705
 Vibration    23          0.846              1.271              0.682
 Vibration    24          0.855              1.250              0.658
 Vibration    25          0.893              1.165              0.569
 Vibration    26          0.901              1.148              0.552
 Vibration    27          0.919              1.111              0.518
 Vibration    28          0.978              0.993              0.419

 Optimization completed.
    -- Stationary point found.
 Normal termination of Gaussian 16 at Thu Dec 21 23:27:06 2023.
