 Q-Chem 5.4, Q-Chem, Inc., Pleasanton, CA (2021)
 Q-Chem 5.4.0 for Intel X86 EM64T Linux

User input:
--------------------------------------------------------------
$molecule
0 1
C                 -1.2205300000      2.8592640000      0.0181060000
C                 -2.5220980000      2.3620060000      0.0164910000
C                 -2.7484890000      0.9798110000      0.0150010000
C                 -0.1424120000      1.9739960000      0.0182320000
C                 -0.3602400000      0.5883250000      0.0167490000
C                 -1.6729400000      0.1058100000      0.0151360000
C                  1.2392570000      2.5347570000      0.0199710000
C                  2.3731350000      1.5401260000      0.0199080000
C                  2.1426950000      0.2069210000      0.0184720000
C                  0.7873750000     -0.3595390000      0.0168930000
O                  1.4582720000      3.7285880000      0.0211970000
O                  0.6192840000     -1.5723950000      0.0154860000
H                 -1.0215270000      3.9259490000      0.0192770000
H                 -1.8289850000     -0.9660020000      0.0140030000
O                  3.5664080000      2.1406120000      0.0214060000
O                 -3.6174120000      3.1710410000      0.0162780000
H                 -3.7691910000      0.6172030000      0.0137630000
H                  2.9430290000     -0.5213890000      0.0184130000
C                  4.7383520000      1.3242240000      0.0215160000
H                 -3.3470120000      4.0958990000      0.0173760000
H                  5.5773940000      2.0162140000      0.0227870000
H                  4.7745890000      0.6967020000     -0.8738990000
H                  4.7732570000      0.6950270000      0.9158080000
$end
$rem
MAX_SCF_CYCLES=200
BASIS  =  6-311++G(d,p)
GUI  =  2
JOB_TYPE  =  SP
METHOD  =  B3LYP
SOLVENT_METHOD = PCM
$end
$pcm
theory = CPCM
$end
$solvent
dielectric 37.219
opticaldielectric 1.43
$end

--------------------------------------------------------------

             Standard Nuclear Orientation (Angstroms)
    I     Atom           X                Y                Z
 ----------------------------------------------------------------
    1      C      -1.2205300000     2.8592640000     0.0181060000
    2      C      -2.5220980000     2.3620060000     0.0164910000
    3      C      -2.7484890000     0.9798110000     0.0150010000
    4      C      -0.1424120000     1.9739960000     0.0182320000
    5      C      -0.3602400000     0.5883250000     0.0167490000
    6      C      -1.6729400000     0.1058100000     0.0151360000
    7      C       1.2392570000     2.5347570000     0.0199710000
    8      C       2.3731350000     1.5401260000     0.0199080000
    9      C       2.1426950000     0.2069210000     0.0184720000
   10      C       0.7873750000    -0.3595390000     0.0168930000
   11      O       1.4582720000     3.7285880000     0.0211970000
   12      O       0.6192840000    -1.5723950000     0.0154860000
   13      H      -1.0215270000     3.9259490000     0.0192770000
   14      H      -1.8289850000    -0.9660020000     0.0140030000
   15      O       3.5664080000     2.1406120000     0.0214060000
   16      O      -3.6174120000     3.1710410000     0.0162780000
   17      H      -3.7691910000     0.6172030000     0.0137630000
   18      H       2.9430290000    -0.5213890000     0.0184130000
   19      C       4.7383520000     1.3242240000     0.0215160000
   20      H      -3.3470120000     4.0958990000     0.0173760000
   21      H       5.5773940000     2.0162140000     0.0227870000
   22      H       4.7745890000     0.6967020000    -0.8738990000
   23      H       4.7732570000     0.6950270000     0.9158080000
 ----------------------------------------------------------------

    9    -725.0912879499      4.28e-06  Convergence criterion met
 Total energy in the final basis set =     -725.0912879499

                    Orbital Energies (a.u.)
 --------------------------------------------------------------

 Alpha MOs
 -- Occupied --
-19.1874 -19.1719 -19.1445 -19.1260 -10.2938 -10.2792 -10.2737 -10.2628
-10.2286 -10.2128 -10.2017 -10.1991 -10.1984 -10.1951 -10.1949  -1.1098
 -1.0842  -1.0742  -1.0594  -0.8901  -0.8344  -0.7827  -0.7730  -0.7420
 -0.6885  -0.6630  -0.6286  -0.5992  -0.5787  -0.5498  -0.5408  -0.5103
 -0.5008  -0.4933  -0.4706  -0.4584  -0.4542  -0.4521  -0.4497  -0.4370
 -0.4282  -0.4204  -0.4130  -0.3971  -0.3728  -0.3691  -0.3642  -0.3526
 -0.2939  -0.2866  -0.2788  -0.2719  -0.2513

          Ground-State Mulliken Net Atomic Charges

     Atom                 Charge (a.u.)
  ----------------------------------------
      1 C                     0.426313
      2 C                    -0.606655
      3 C                    -0.170091
      4 C                     0.622827
      5 C                     0.013472
      6 C                     0.240862
      7 C                    -0.721334
      8 C                    -0.360220
      9 C                     0.529773
     10 C                    -0.349064
     11 O                    -0.286720
     12 O                    -0.339753
     13 H                     0.188132
     14 H                     0.199840
     15 O                    -0.172460
     16 O                    -0.269476
     17 H                     0.244117
     18 H                     0.258374
     19 C                    -0.366699
     20 H                     0.329019
     21 H                     0.213580
     22 H                     0.188079
     23 H                     0.188086
  ----------------------------------------
  Sum of atomic charges =     0.000000

                    Cartesian Multipole Moments
 -----------------------------------------------------------------
    Charge (ESU x 10^10)
                 0.0000
    Dipole Moment (Debye)
         X       0.9405      Y       1.6420      Z       0.0023
       Tot       1.8923
    Quadrupole Moments (Debye-Ang)
        XX     -63.5767     XY     -10.4658     YY     -94.0198
        XZ       0.0245     YZ       0.0113     ZZ     -86.9466

 Total job time:  44.40s(wall), 237.10s(cpu)
        *  Thank you very much for using Q-Chem.  Have a nice day.  *
