 Gaussian 16, Revision A.03,
 Gaussian 16:  ES64L-G16RevA.03 25-Dec-2016

 ----------------------------------------------------------------------
 #P UB3LYP/6-311++G(d,p) nosym opt freq SCRF=(PCM,Solvent=n,n-DiMethylF
 ormamide)
 ----------------------------------------------------------------------

 -------
 Reduced
 -------
 Symbolic Z-matrix:
 Charge = -2 Multiplicity = 1

 SCF Done:  E(UB3LYP) =  -803.733079564     A.U. after   17 cycles
 SCF Done:  E(UB3LYP) =  -803.734679672     A.U. after   13 cycles
 SCF Done:  E(UB3LYP) =  -803.734876560     A.U. after   12 cycles
 SCF Done:  E(UB3LYP) =  -803.734966014     A.U. after   12 cycles
 SCF Done:  E(UB3LYP) =  -803.734989289     A.U. after   12 cycles
 SCF Done:  E(UB3LYP) =  -803.734989800     A.U. after   10 cycles
 SCF Done:  E(UB3LYP) =  -803.734990643     A.U. after   10 cycles
 SCF Done:  E(UB3LYP) =  -803.734990708     A.U. after    9 cycles
 Optimization completed.
    -- Stationary point found.
 Normal termination of Gaussian 16 at Sat Feb 10 18:22:42 2024.

 ----------------------------------------------------------------------
 #P Geom=AllCheck Guess=TCheck SCRF=Check GenChk UB3LYP/6-311++G(d,p) F
 req
 ----------------------------------------------------------------------

 Structure from the checkpoint file:  "137-an.chk"
 -------
 Reduced
 -------
 Charge = -2 Multiplicity = 1

                          Input orientation:
 ---------------------------------------------------------------------
 Center     Atomic      Atomic             Coordinates (Angstroms)
 Number     Number       Type             X           Y           Z
 ---------------------------------------------------------------------
      1          6           0        3.744974    2.211564   -0.505186
      2          8           0        2.382782    1.825498   -0.388936
      3          6           0        2.082669    0.495340   -0.225145
      4          6           0        3.090261   -0.449744   -0.161340
      5          6           0        2.775749   -1.827745   -0.010990
      6          6           0        1.470270   -2.226502    0.059709
      7          6           0        0.390894   -1.292943   -0.002727
      8          6           0       -0.940836   -1.822792    0.070676
      9          8           0       -1.179114   -3.104258    0.182349
     10          6           0       -2.000362   -0.859474    0.011973
     11          6           0       -3.359569   -1.286603    0.069854
     12          6           0       -4.409804   -0.399444    0.019977
     13          6           0       -4.148351    0.993967   -0.092072
     14          6           0       -2.845617    1.439098   -0.147913
     15          6           0       -1.732861    0.554575   -0.101153
     16          6           0       -0.392680    1.107165   -0.165825
     17          8           0       -0.234000    2.391183   -0.239855
     18          6           0        0.680273    0.138061   -0.134097
     19          1           0        4.226455    1.749794   -1.374531
     20          1           0        4.318286    1.961260    0.394474
     21          1           0        3.735543    3.293737   -0.633460
     22          1           0        4.127608   -0.155110   -0.230379
     23          1           0        3.583103   -2.552294    0.040001
     24          1           0        1.208482   -3.271996    0.166091
     25          1           0       -3.539518   -2.352602    0.155403
     26          1           0       -5.433973   -0.757968    0.065972
     27          1           0       -4.972064    1.700341   -0.132529
     28          1           0       -2.628598    2.497893   -0.231859
 ---------------------------------------------------------------------

 SCF Done:  E(UB3LYP) =  -803.734990708     A.U. after    1 cycles

 Alpha  occ. eigenvalues --  -19.13306 -19.01266 -19.01208 -10.21398 -10.20808
 Alpha  occ. eigenvalues --  -10.17678 -10.16677 -10.14875 -10.14693 -10.14664
 Alpha  occ. eigenvalues --  -10.14470 -10.14444 -10.14288 -10.14046 -10.13595
 Alpha  occ. eigenvalues --  -10.13539 -10.13494 -10.13444  -1.04716  -0.92827
 Alpha  occ. eigenvalues --   -0.92187  -0.82411  -0.81710  -0.75156  -0.73381
 Alpha  occ. eigenvalues --   -0.72061  -0.70641  -0.67760  -0.63627  -0.60391
 Alpha  occ. eigenvalues --   -0.58890  -0.55446  -0.53020  -0.51255  -0.50081
 Alpha  occ. eigenvalues --   -0.45995  -0.45477  -0.45457  -0.43995  -0.42854
 Alpha  occ. eigenvalues --   -0.42441  -0.40129  -0.39702  -0.37974  -0.37768
 Alpha  occ. eigenvalues --   -0.36587  -0.36083  -0.34965  -0.34871  -0.32755
 Alpha  occ. eigenvalues --   -0.32327  -0.32176  -0.30945  -0.30790  -0.29786
 Alpha  occ. eigenvalues --   -0.29013  -0.22760  -0.21955  -0.21533  -0.20439
 Alpha  occ. eigenvalues --   -0.19423  -0.18589  -0.10465
 Alpha virt. eigenvalues --   -0.02164  -0.00036   0.00325   0.00578   0.01271
 Alpha virt. eigenvalues --    0.02248   0.02356   0.02661   0.03800   0.03925
 Alpha virt. eigenvalues --    0.04255   0.04598   0.05536   0.06137   0.06508

  Beta  occ. eigenvalues --  -19.13306 -19.01266 -19.01208 -10.21398 -10.20808
  Beta  occ. eigenvalues --  -10.17678 -10.16677 -10.14875 -10.14693 -10.14664
  Beta  occ. eigenvalues --  -10.14470 -10.14444 -10.14288 -10.14046 -10.13595
  Beta  occ. eigenvalues --  -10.13539 -10.13494 -10.13444  -1.04716  -0.92827
  Beta  occ. eigenvalues --   -0.92187  -0.82411  -0.81710  -0.75156  -0.73381
  Beta  occ. eigenvalues --   -0.72061  -0.70641  -0.67760  -0.63627  -0.60391
  Beta  occ. eigenvalues --   -0.58890  -0.55446  -0.53020  -0.51255  -0.50081
  Beta  occ. eigenvalues --   -0.45995  -0.45477  -0.45457  -0.43995  -0.42854
  Beta  occ. eigenvalues --   -0.42441  -0.40129  -0.39702  -0.37974  -0.37768
  Beta  occ. eigenvalues --   -0.36587  -0.36083  -0.34965  -0.34871  -0.32755
  Beta  occ. eigenvalues --   -0.32327  -0.32176  -0.30945  -0.30790  -0.29786
  Beta  occ. eigenvalues --   -0.29013  -0.22760  -0.21955  -0.21533  -0.20439
  Beta  occ. eigenvalues --   -0.19423  -0.18589  -0.10465
  Beta virt. eigenvalues --   -0.02164  -0.00036   0.00325   0.00578   0.01271
  Beta virt. eigenvalues --    0.02248   0.02356   0.02661   0.03800   0.03925
  Beta virt. eigenvalues --    0.04255   0.04598   0.05536   0.06137   0.06508

 Mulliken charges and spin densities:
               1          2
     1  C   -0.271670   0.000000
     2  O   -0.153246   0.000000
     3  C   -0.143145  -0.000000
     4  C   -0.056529   0.000000
     5  C   -0.496322  -0.000000
     6  C   -0.100513   0.000000
     7  C    0.497431   0.000000
     8  C   -0.496373  -0.000000
     9  O   -0.688314   0.000000
    10  C    0.039087   0.000000
    11  C   -0.040583   0.000000
    12  C   -0.519875  -0.000000
    13  C   -0.539717  -0.000000
    14  C    0.013122  -0.000000
    15  C    0.270696  -0.000000
    16  C   -0.335575   0.000000
    17  O   -0.673549  -0.000000
    18  C    0.145206   0.000000
    19  H    0.147491   0.000000
    20  H    0.148965   0.000000
    21  H    0.185445  -0.000000
    22  H    0.164723   0.000000
    23  H    0.163714  -0.000000
    24  H    0.139045   0.000000
    25  H    0.147219  -0.000000
    26  H    0.155409  -0.000000
    27  H    0.155367   0.000000
    28  H    0.142492  -0.000000
 Sum of Mulliken charges =  -2.00000   0.00000

 Dipole moment (field-independent basis, Debye):
    X=              8.1030    Y=              4.2668    Z=              0.2127  Tot=              9.1602
 Quadrupole moment (field-independent basis, Debye-Ang):
   XX=           -125.9681   YY=           -169.7200   ZZ=           -117.9016
   XY=             -5.3535   XZ=             -0.4921   YZ=              3.3458

  Exact polarizability: 567.163 -22.107 396.380  -7.940 -18.220 170.491
 Approx polarizability: 616.741 -26.646 465.029  -7.892 -22.013 187.025

                      1                      2                      3
                      A                      A                      A
 Frequencies --     46.6287                55.0427               115.0261
 Red. masses --      4.6106                 5.9206                 3.9322
 Frc consts  --      0.0059                 0.0106                 0.0307
 IR Inten    --     10.9304                18.2928                 0.4132

                      4                      5                      6
                      A                      A                      A
 Frequencies --    126.6518               162.6874               180.1720
 Red. masses --      4.5748                 5.8784                 4.4073
 Frc consts  --      0.0432                 0.0917                 0.0843
 IR Inten    --      0.2788                 7.9706                20.8140

                      7                      8                      9
                      A                      A                      A
 Frequencies --    199.9852               266.9191               277.7237
 Red. masses --      3.2672                 1.8773                 4.7913
 Frc consts  --      0.0770                 0.0788                 0.2177
 IR Inten    --      0.1781                 0.3540                 4.8661

                     10                     11                     12
                      A                      A                      A
 Frequencies --    299.5405               323.7242               336.6974
 Red. masses --      2.0628                 8.1582                 3.9112
 Frc consts  --      0.1090                 0.5037                 0.2612
 IR Inten    --      0.1591                 6.2911                 0.8534

                     13                     14                     15
                      A                      A                      A
 Frequencies --    374.9123               386.6799               394.6804
 Red. masses --     10.1177                 8.2294                 7.5753
 Frc consts  --      0.8379                 0.7250                 0.6952
 IR Inten    --      4.2795                 0.0836                 0.2855

                     16                     17                     18
                      A                      A                      A
 Frequencies --    444.8442               481.0709               497.4281
 Red. masses --      3.2228                 6.7930                 6.2434
 Frc consts  --      0.3757                 0.9263                 0.9102
 IR Inten    --      3.5053                 0.5587                 0.4910

                     19                     20                     21
                      A                      A                      A
 Frequencies --    498.1474               575.4487               584.8706
 Red. masses --      5.9077                 4.2349                 6.9097
 Frc consts  --      0.8637                 0.8262                 1.3926
 IR Inten    --      0.8825                 8.9552                49.0131

                     22                     23                     24
                      A                      A                      A
 Frequencies --    613.2369               639.1429               662.1825
 Red. masses --      5.3024                 3.7771                 6.0929
 Frc consts  --      1.1748                 0.9091                 1.5741
 IR Inten    --     32.6374                11.0877                 4.5960

                     25                     26                     27
                      A                      A                      A
 Frequencies --    688.4190               692.7620               728.9444
 Red. masses --      6.4033                 2.1295                 1.7735
 Frc consts  --      1.7880                 0.6021                 0.5552
 IR Inten    --      3.2103               162.8192                 0.3898

                     28                     29                     30
                      A                      A                      A
 Frequencies --    757.2576               775.4391               787.2286
 Red. masses --      2.5393                 1.9588                 5.9981
 Frc consts  --      0.8579                 0.6940                 2.1901
 IR Inten    --     31.1120                74.9697                34.0266

                     31                     32                     33
                      A                      A                      A
 Frequencies --    816.8190               826.1685               847.8186
 Red. masses --      3.4976                 1.6508                 6.5913
 Frc consts  --      1.3749                 0.6639                 2.7914
 IR Inten    --      6.5141                 1.7453                76.3639

                     34                     35                     36
                      A                      A                      A
 Frequencies --    856.5074               925.3145               959.8473
 Red. masses --      1.8302                 6.7676                 1.2667
 Frc consts  --      0.7911                 3.4140                 0.6876
 IR Inten    --      1.5734                23.4554                 1.5797

                     37                     38                     39
                      A                      A                      A
 Frequencies --    964.9493               977.2980               983.8086
 Red. masses --      6.4310                 1.3484                 1.2576
 Frc consts  --      3.5281                 0.7588                 0.7171
 IR Inten    --    137.5036                 3.2866                 0.7802

                     40                     41                     42
                      A                      A                      A
 Frequencies --   1016.0077              1069.9199              1082.0826
 Red. masses --      2.0319                 4.5853                 2.3916
 Frc consts  --      1.2358                 3.0926                 1.6499
 IR Inten    --     87.7879               699.4967               406.7611

                     43                     44                     45
                      A                      A                      A
 Frequencies --   1099.2651              1110.1798              1142.1310
 Red. masses --      2.4029                 1.7275                 1.7357
 Frc consts  --      1.7108                 1.2545                 1.3340
 IR Inten    --     70.4591               505.9583                64.8881

                     46                     47                     48
                      A                      A                      A
 Frequencies --   1161.5618              1168.4652              1176.9411
 Red. masses --      1.2801                 1.6973                 1.7299
 Frc consts  --      1.0176                 1.3653                 1.4118
 IR Inten    --      1.4659                25.7742               199.5125

                     49                     50                     51
                      A                      A                      A
 Frequencies --   1196.5884              1219.1338              1235.1302
 Red. masses --      1.6514                 2.0609                 3.0418
 Frc consts  --      1.3931                 1.8047                 2.7340
 IR Inten    --    107.5607               164.3616                76.5595

                     52                     53                     54
                      A                      A                      A
 Frequencies --   1242.9293              1294.3076              1335.0159
 Red. masses --      2.9637                 6.0975                 3.9227
 Frc consts  --      2.6976                 6.0183                 4.1191
 IR Inten    --    328.9130               173.5954              2619.5783

                     55                     56                     57
                      A                      A                      A
 Frequencies --   1345.0321              1367.8419              1419.2838
 Red. masses --      7.4736                 2.2593                 3.2215
 Frc consts  --      7.9661                 2.4906                 3.8233
 IR Inten    --    552.5463               287.8621                63.1454

                     58                     59                     60
                      A                      A                      A
 Frequencies --   1441.7312              1456.3035              1472.2152
 Red. masses --      5.7591                 2.0930                 1.7013
 Frc consts  --      7.0530                 2.6153                 2.1726
 IR Inten    --     27.1433               400.5642                70.5275

                     61                     62                     63
                      A                      A                      A
 Frequencies --   1476.6771              1480.2069              1489.6446
 Red. masses --      2.2245                 1.0518                 3.2355
 Frc consts  --      2.8579                 1.3578                 4.2301
 IR Inten    --     47.0566                 9.9392               100.2003

                     64                     65                     66
                      A                      A                      A
 Frequencies --   1499.1404              1534.7028              1576.4199
 Red. masses --      1.1703                 4.7514                 6.8876
 Frc consts  --      1.5497                 6.5936                10.0847
 IR Inten    --     20.5175               214.3900               112.8090

                     67                     68                     69
                      A                      A                      A
 Frequencies --   1606.7768              1609.7482              2995.7210
 Red. masses --      5.3018                 5.4459                 1.0343
 Frc consts  --      8.0647                 8.3145                 5.4689
 IR Inten    --     25.6961                36.4902               129.2946

                     70                     71                     72
                      A                      A                      A
 Frequencies --   3050.1714              3117.6802              3137.1501
 Red. masses --      1.1054                 1.0986                 1.0848
 Frc consts  --      6.0595                 6.2916                 6.2904
 IR Inten    --     75.0912                44.2987                29.7789

                     73                     74                     75
                      A                      A                      A
 Frequencies --   3144.0368              3153.5590              3176.0662
 Red. masses --      1.0872                 1.0900                 1.0906
 Frc consts  --      6.3320                 6.3868                 6.4817
 IR Inten    --     47.7385                45.2616                43.2576

                     76                     77                     78
                      A                      A                      A
 Frequencies --   3180.4159              3183.1610              3208.3522
 Red. masses --      1.0918                 1.0915                 1.0896
 Frc consts  --      6.5065                 6.5159                 6.6084
 IR Inten    --     88.1475                33.9495                28.4168

 - Thermochemistry -
 -------------------
 Temperature   298.150 Kelvin.  Pressure   1.00000 Atm.
 Atom     1 has atomic number  6 and mass  12.00000

 Molecular mass:   238.06299 amu.
 Principal axes and moments of inertia in atomic units:
                           1         2         3
     Eigenvalues --  2314.355935398.186937698.93510
           X            0.98950  -0.14127   0.03065
           Y            0.13809   0.98645   0.08856
           Z           -0.04274  -0.08340   0.99560
 This molecule is an asymmetric top.
 Rotational symmetry number  1.
 Warning -- assumption of classical behavior for rotation
           may cause significant error
 Rotational temperatures (Kelvin)      0.03742     0.01605     0.01125
 Rotational constants (GHZ):           0.77980     0.33432     0.23441
 Zero-point vibrational energy     543126.9 (Joules/Mol)
                                  129.81044 (Kcal/Mol)
 Warning -- explicit consideration of  22 degrees of freedom as
           vibrations may cause significant error
 Vibrational temperatures:     67.09    79.19   165.50   182.22   234.07
          (Kelvin)            259.23   287.73   384.04   399.58   430.97
                              465.77   484.43   539.42   556.35   567.86
                              640.03   692.15   715.69   716.72   827.94
                              841.50   882.31   919.58   952.73   990.48
                              996.73  1048.79  1089.52  1115.68  1132.65
                             1175.22  1188.67  1219.82  1232.32  1331.32
                             1381.01  1388.35  1406.11  1415.48  1461.81
                             1539.38  1556.88  1581.60  1597.30  1643.27
                             1671.23  1681.16  1693.36  1721.62  1754.06
                             1777.08  1788.30  1862.22  1920.79  1935.20
                             1968.02  2042.03  2074.33  2095.30  2118.19
                             2124.61  2129.69  2143.27  2156.93  2208.10
                             2268.12  2311.79  2316.07  4310.17  4388.52
                             4485.65  4513.66  4523.57  4537.27  4569.65
                             4575.91  4579.86  4616.10

 Zero-point correction=                           0.206866 (Hartree/Particle)
 Thermal correction to Energy=                    0.220783
 Thermal correction to Enthalpy=                  0.221727
 Thermal correction to Gibbs Free Energy=         0.166179
 Sum of electronic and zero-point Energies=           -803.528125
 Sum of electronic and thermal Energies=              -803.514208
 Sum of electronic and thermal Enthalpies=            -803.513264
 Sum of electronic and thermal Free Energies=         -803.568811

                     E (Thermal)             CV                S
                      KCal/Mol        Cal/Mol-Kelvin    Cal/Mol-Kelvin
 Total                  138.543             56.072            116.909
 Electronic               0.000              0.000              0.000
 Translational            0.889              2.981             42.303
 Rotational               0.889              2.981             32.931
 Vibrational            136.766             50.110             41.675
 Vibration     1          0.595              1.979              4.955
 Vibration     2          0.596              1.976              4.627
 Vibration     3          0.608              1.937              3.182
 Vibration     4          0.611              1.926              2.996
 Vibration     5          0.623              1.888              2.518
 Vibration     6          0.629              1.867              2.327
 Vibration     7          0.638              1.840              2.133
 Vibration     8          0.672              1.734              1.616
 Vibration     9          0.679              1.715              1.548
 Vibration    10          0.692              1.675              1.419
 Vibration    11          0.708              1.628              1.291
 Vibration    12          0.717              1.602              1.228
 Vibration    13          0.746              1.524              1.060
 Vibration    14          0.755              1.499              1.013
 Vibration    15          0.762              1.482              0.982
 Vibration    16          0.804              1.372              0.812
 Vibration    17          0.837              1.292              0.707
 Vibration    18          0.853              1.256              0.665
 Vibration    19          0.854              1.254              0.663
 Vibration    20          0.932              1.084              0.494
 Vibration    21          0.942              1.064              0.476
 Vibration    22          0.973              1.004              0.427

 Optimization completed.
    -- Stationary point found.
 Normal termination of Gaussian 16 at Sat Feb 10 19:22:55 2024.
