 Q-Chem 5.4, Q-Chem, Inc., Pleasanton, CA (2021)
 Q-Chem 5.4.0 for Intel X86 EM64T Linux

User input:
--------------------------------------------------------------
$molecule
-1 2
Cl                -2.4895900000      2.8580090000      1.6259720000
C                 -2.3934580000      1.2061530000      0.9916410000
C                 -3.6124420000      0.5730040000      0.8370820000
C                 -3.6696280000     -0.7187800000      0.2841400000
C                 -2.5101640000     -1.3335970000     -0.1302590000
C                 -1.2605110000     -0.6940680000      0.0062880000
C                 -0.0820340000     -1.4000170000     -0.4910250000
O                 -0.1618680000     -2.5638510000     -0.9607200000
C                  1.1849100000     -0.6730100000     -0.4621060000
C                  2.3059900000     -1.2920860000     -1.0530360000
C                  3.5262240000     -0.6569240000     -1.0940510000
C                  3.6561700000      0.6351490000     -0.5543150000
C                  2.5702990000      1.2484620000      0.0419230000
Cl                 2.8668700000      2.9033180000      0.6017350000
C                  1.2986660000      0.6231630000      0.1366550000
C                  0.1529750000      1.2190170000      0.8536910000
O                  0.2982380000      2.1572140000      1.6546230000
C                 -1.1665340000      0.6022110000      0.6083960000
H                 -4.5166610000      1.0884590000      1.1357910000
H                 -4.6300840000     -1.2122250000      0.1743960000
H                 -2.5121140000     -2.3194000000     -0.5786160000
H                  2.1583520000     -2.2789670000     -1.4738870000
H                  4.3861940000     -1.1345550000     -1.5526870000
H                  4.5982010000      1.1663210000     -0.6088310000
$end

$rem
BASIS  =  6-311++G(d,p)
GUI  =  2
JOB_TYPE  =  SP
METHOD  =  B3LYP
SCF_CONVERGENCE  = 8
SOLVENT_METHOD = sm12
$end

$smx
solvent dimethylformamide
charges CM5
$end

--------------------------------------------------------------

             Standard Nuclear Orientation (Angstroms)
    I     Atom           X                Y                Z
 ----------------------------------------------------------------
    1      Cl     -2.4895900000     2.8580090000     1.6259720000
    2      C      -2.3934580000     1.2061530000     0.9916410000
    3      C      -3.6124420000     0.5730040000     0.8370820000
    4      C      -3.6696280000    -0.7187800000     0.2841400000
    5      C      -2.5101640000    -1.3335970000    -0.1302590000
    6      C      -1.2605110000    -0.6940680000     0.0062880000
    7      C      -0.0820340000    -1.4000170000    -0.4910250000
    8      O      -0.1618680000    -2.5638510000    -0.9607200000
    9      C       1.1849100000    -0.6730100000    -0.4621060000
   10      C       2.3059900000    -1.2920860000    -1.0530360000
   11      C       3.5262240000    -0.6569240000    -1.0940510000
   12      C       3.6561700000     0.6351490000    -0.5543150000
   13      C       2.5702990000     1.2484620000     0.0419230000
   14      Cl      2.8668700000     2.9033180000     0.6017350000
   15      C       1.2986660000     0.6231630000     0.1366550000
   16      C       0.1529750000     1.2190170000     0.8536910000
   17      O       0.2982380000     2.1572140000     1.6546230000
   18      C      -1.1665340000     0.6022110000     0.6083960000
   19      H      -4.5166610000     1.0884590000     1.1357910000
   20      H      -4.6300840000    -1.2122250000     0.1743960000
   21      H      -2.5121140000    -2.3194000000    -0.5786160000
   22      H       2.1583520000    -2.2789670000    -1.4738870000
   23      H       4.3861940000    -1.1345550000    -1.5526870000
   24      H       4.5982010000     1.1663210000    -0.6088310000
 ----------------------------------------------------------------

   18   -1608.2453994359      5.71e-09  Convergence criterion met
 Total energy in the final basis set =    -1608.3274766669

                    Orbital Energies (a.u.)
 --------------------------------------------------------------

 Alpha MOs
 -- Occupied --
********-101.5464 -19.0809 -19.0788 -10.2432 -10.2431 -10.2404 -10.2285
-10.1958 -10.1957 -10.1881 -10.1880 -10.1872 -10.1871 -10.1869 -10.1868
-10.1802 -10.1801  -9.4607  -9.4606  -7.2253  -7.2253  -7.2159  -7.2158
 -7.2150  -7.2149  -1.0162  -1.0057  -0.8916  -0.8905  -0.8431  -0.8353
 -0.7978  -0.7563  -0.7456  -0.7402  -0.6773  -0.6498  -0.6355  -0.5891
 -0.5633  -0.5454  -0.5356  -0.4859  -0.4813  -0.4757  -0.4737  -0.4371
 -0.4371  -0.4365  -0.4312  -0.4171  -0.4131  -0.3972  -0.3940  -0.3882
 -0.3699  -0.3672  -0.3637  -0.3522  -0.3341  -0.3262  -0.3175  -0.3051
 -0.2773  -0.2646  -0.2546  -0.2542  -0.2479  -0.2321  -0.1469

 Beta MOs
 -- Occupied --
********-101.5464 -19.0751 -19.0727 -10.2434 -10.2433 -10.2395 -10.2269
-10.1947 -10.1947 -10.1874 -10.1873 -10.1867 -10.1866 -10.1861 -10.1860
-10.1801 -10.1800  -9.4607  -9.4606  -7.2253  -7.2253  -7.2159  -7.2157
 -7.2150  -7.2149  -1.0065  -0.9950  -0.8899  -0.8898  -0.8413  -0.8346
 -0.7942  -0.7542  -0.7427  -0.7390  -0.6706  -0.6481  -0.6329  -0.5883
 -0.5612  -0.5427  -0.5345  -0.4844  -0.4790  -0.4742  -0.4728  -0.4366
 -0.4363  -0.4300  -0.4268  -0.4120  -0.4092  -0.3948  -0.3915  -0.3697
 -0.3695  -0.3623  -0.3582  -0.3472  -0.3325  -0.3189  -0.3168  -0.3044
 -0.2587  -0.2561  -0.2513  -0.2451  -0.2423  -0.2272

          Ground-State Mulliken Net Atomic Charges

     Atom                 Charge (a.u.)    Spin (a.u.)
  --------------------------------------------------------
      1 Cl                    0.664657      -0.001833
      2 C                     0.443615      -0.001081
      3 C                     1.028126       0.053395
      4 C                     0.643431       0.028781
      5 C                     0.330643       0.040701
      6 C                    -0.870875       0.021540
      7 C                    -2.901224       0.076070
      8 O                    -0.299716       0.231510
      9 C                    -0.875427       0.021747
     10 C                     0.325462       0.040737
     11 C                     0.633637       0.028842
     12 C                     1.019747       0.053548
     13 C                     0.445083      -0.001263
     14 Cl                    0.664756      -0.001825
     15 C                     0.004104       0.098899
     16 C                    -3.861104       0.020624
     17 O                    -0.111046       0.209845
     18 C                     0.021355       0.097834
     19 H                     0.319635      -0.004323
     20 H                     0.368387      -0.002319
     21 H                     0.160048      -0.002385
     22 H                     0.159880      -0.002387
     23 H                     0.367713      -0.002326
     24 H                     0.319114      -0.004330
  --------------------------------------------------------
  Sum of atomic charges =    -1.000000

                    Cartesian Multipole Moments
 -----------------------------------------------------------------
    Charge (ESU x 10^10)
                -4.8032
    Dipole Moment (Debye)
         X      -0.4296      Y      -2.1058      Z      -2.2776
       Tot       3.1315
    Quadrupole Moments (Debye-Ang)
        XX    -122.8933     XY      -2.3358     YY    -151.2802
        XZ      -1.5641     YZ     -13.5313     ZZ    -131.3732

 Total job time:  610.59s(wall), 4534.66s(cpu)
        *  Thank you very much for using Q-Chem.  Have a nice day.  *
