 Q-Chem 5.4, Q-Chem, Inc., Pleasanton, CA (2021)
 Q-Chem 5.4.0 for Intel X86 EM64T Linux

User input:
--------------------------------------------------------------
$molecule
-1 2
C                 -0.4680850000      3.9067130000      0.3060420000
C                  0.5566780000      2.9926460000      0.3415090000
C                  0.3874450000      1.6660050000     -0.1652180000
C                 -0.8435470000      1.3099460000     -0.6941040000
C                  1.5202890000      0.7286230000     -0.1367650000
C                  1.5001010000     -0.7024040000      0.1079690000
C                  2.8446020000      1.0506430000     -0.3268330000
C                  2.8422210000     -1.1712610000      0.0482690000
C                  0.4846640000     -1.6236010000      0.4114750000
C                  0.8135460000     -2.9575850000      0.6157860000
C                  2.1473910000     -3.4011220000      0.5295290000
C                  3.1783830000     -2.5124350000      0.2504620000
N                  3.6435690000     -0.0807460000     -0.2044400000
H                 -0.9965820000      0.3264350000     -1.1271810000
H                  3.2856870000      2.0076840000     -0.5565800000
H                 -0.5430290000     -1.2903900000      0.4859250000
H                  0.0307580000     -3.6719050000      0.8473610000
H                  2.3747020000     -4.4500280000      0.6888250000
H                  4.2090500000     -2.8495130000      0.1969850000
H                  4.6343990000     -0.1104010000     -0.3697070000
C                 -1.7769980000      3.6065340000     -0.2330700000
C                 -1.9746280000      2.2035930000     -0.7693770000
O                 -2.6947750000      4.4545050000     -0.2525410000
O                 -3.0666070000      1.8423420000     -1.2640970000
H                 -0.3333160000      4.9076930000      0.7075040000
H                  1.5090150000      3.2647280000      0.7889760000
$end
$rem
MAX_SCF_CYCLES=200
BASIS  =  6-311++G(d,p)
GUI  =  2
JOB_TYPE  =  SP
METHOD  =  B3LYP
SOLVENT_METHOD = COSMO
$end
$solvent
dielectric 37.219
opticaldielectric 1.43
$end

--------------------------------------------------------------

             Standard Nuclear Orientation (Angstroms)
    I     Atom           X                Y                Z
 ----------------------------------------------------------------
    1      C       3.0894272990     1.2769772426    -0.6300846399
    2      C       1.7375578946     1.4992360646    -0.5302561654
    3      C       0.8604336275     0.5122516918     0.0192010862
    4      C       1.4008820878    -0.6896138437     0.4496362298
    5      C      -0.5762883441     0.8034644455     0.1369093016
    6      C      -1.6971099357    -0.1018470268    -0.0428423571
    7      C      -1.1346525090     2.0261389171     0.4317384769
    8      C      -2.8925224466     0.6427758647     0.1601422463
    9      C      -1.8069653159    -1.4567528661    -0.3949702710
   10      C      -3.0664209774    -2.0317288239    -0.5071921570
   11      C      -4.2345562300    -1.2787243018    -0.2797013968
   12      C      -4.1619025223     0.0688412381     0.0510190789
   13      N      -2.5224408157     1.9400845077     0.4345020323
   14      H       0.7731458714    -1.4451407278     0.9115839068
   15      H      -0.6456122518     2.9607773841     0.6565888709
   16      H      -0.9143038443    -2.0419469642    -0.5778052784
   17      H      -3.1541297339    -3.0789388712    -0.7760701715
   18      H      -5.2052222082    -1.7551731276    -0.3694420130
   19      H      -5.0613661163     0.6547944753     0.2134379179
   20      H      -3.1480777555     2.6837371958     0.6904234818
   21      C       3.7227935526     0.0493272617    -0.1991262480
   22      C       2.8069032188    -1.0089305956     0.3806680849
   23      O       4.9551535175    -0.1307637459    -0.3021053933
   24      O       3.2534532587    -2.1046985591     0.7900016063
   25      H       3.7450475483     2.0279790425    -1.0630439524
   26      H       1.3132735951     2.4285268697    -0.9012043091
 ----------------------------------------------------------------

   11    -744.3481441520      7.25e-06  Convergence criterion met
 Total energy in the final basis set =     -744.3481441520
    5    -744.4528616707      8.00e-06  Convergence criterion met
 Total energy in the final basis set =     -744.4528616707

                    Orbital Energies (a.u.)
 --------------------------------------------------------------

 Alpha MOs
 -- Occupied --
-19.0850 -19.0805 -14.3568 -10.2205 -10.2193 -10.2088 -10.2062 -10.1845
-10.1764 -10.1762 -10.1747 -10.1730 -10.1720 -10.1696 -10.1678 -10.1588
-10.1539  -1.0191  -0.9932  -0.9823  -0.8472  -0.8388  -0.7884  -0.7407
 -0.7331  -0.7235  -0.6898  -0.6268  -0.6048  -0.5981  -0.5824  -0.5499
 -0.5370  -0.4924  -0.4778  -0.4755  -0.4626  -0.4452  -0.4376  -0.4318
 -0.4276  -0.4163  -0.4123  -0.4079  -0.3988  -0.3792  -0.3667  -0.3577
 -0.3548  -0.3455  -0.3387  -0.3299  -0.2854  -0.2663  -0.2388  -0.2333
 -0.2281  -0.2103  -0.1661

 Beta MOs
 -- Occupied --
-19.0787 -19.0746 -14.3565 -10.2191 -10.2181 -10.2089 -10.2056 -10.1828
-10.1763 -10.1762 -10.1750 -10.1730 -10.1721 -10.1679 -10.1677 -10.1581
-10.1536  -1.0085  -0.9819  -0.9817  -0.8467  -0.8347  -0.7865  -0.7404
 -0.7315  -0.7210  -0.6814  -0.6264  -0.6025  -0.5956  -0.5794  -0.5481
 -0.5354  -0.4916  -0.4773  -0.4733  -0.4601  -0.4415  -0.4369  -0.4310
 -0.4262  -0.4079  -0.4058  -0.3999  -0.3927  -0.3766  -0.3658  -0.3556
 -0.3442  -0.3365  -0.3278  -0.3175  -0.2799  -0.2603  -0.2324  -0.2290
 -0.2225  -0.2019

          Ground-State Mulliken Net Atomic Charges

     Atom                 Charge (a.u.)    Spin (a.u.)
  --------------------------------------------------------
      1 C                     0.256087       0.066141
      2 C                    -1.014266       0.092607
      3 C                     1.173270       0.118662
      4 C                    -0.771582      -0.025692
      5 C                     0.365046       0.088786
      6 C                     1.177522      -0.063281
      7 C                    -0.227347       0.029784
      8 C                     0.133482      -0.026470
      9 C                    -0.991071       0.023266
     10 C                    -0.587197       0.012718
     11 C                    -0.258727      -0.005683
     12 C                    -0.593348      -0.004902
     13 N                    -0.122487       0.009449
     14 H                     0.188974      -0.004116
     15 H                     0.225598      -0.003236
     16 H                     0.154571      -0.001139
     17 H                     0.205576      -0.000170
     18 H                     0.201811      -0.000020
     19 H                     0.203868       0.000036
     20 H                     0.362790      -0.000511
     21 C                    -0.424197       0.132762
     22 C                     0.041763       0.139036
     23 O                    -0.528518       0.227891
     24 O                    -0.555934       0.208230
     25 H                     0.206560      -0.005142
     26 H                     0.177755      -0.009007
  --------------------------------------------------------
  Sum of atomic charges =    -1.000000

                    Cartesian Multipole Moments
 -----------------------------------------------------------------
    Charge (ESU x 10^10)
                -4.8032
    Dipole Moment (Debye)
         X     -21.7783      Y       9.1895      Z      -0.5954
       Tot      23.6452
    Quadrupole Moments (Debye-Ang)
        XX    -180.8590     XY      12.7336     YY     -99.5448
        XZ      -6.6390     YZ       8.2149     ZZ    -107.4263

 Total job time:  95.59s(wall), 727.06s(cpu)
        *  Thank you very much for using Q-Chem.  Have a nice day.  *
