 Gaussian 16, Revision A.03,
 Gaussian 16:  ES64L-G16RevA.03 25-Dec-2016

 --------------------------------------
 #P UB3LYP/6-311++G(d,p) nosym opt freq
 --------------------------------------

 -------
 Radical
 -------
 Symbolic Z-matrix:
 Charge = -1 Multiplicity = 2

 SCF Done:  E(UB3LYP) =  -744.348080281     A.U. after   27 cycles
 SCF Done:  E(UB3LYP) =  -744.348080373     A.U. after   13 cycles
 Optimization completed.
    -- Stationary point found.
 Normal termination of Gaussian 16 at Tue Jan  9 20:45:29 2024.

 ----------------------------------------------------------------------
 #P Geom=AllCheck Guess=TCheck SCRF=Check GenChk UB3LYP/6-311++G(d,p) F
 req
 ----------------------------------------------------------------------

 Structure from the checkpoint file:  "320-rad.chk"
 -------
 Radical
 -------
 Charge = -1 Multiplicity = 2

                          Input orientation:
 ---------------------------------------------------------------------
 Center     Atomic      Atomic             Coordinates (Angstroms)
 Number     Number       Type             X           Y           Z
 ---------------------------------------------------------------------
      1          6           0       -0.468085    3.906713    0.306042
      2          6           0        0.556678    2.992646    0.341509
      3          6           0        0.387445    1.666005   -0.165218
      4          6           0       -0.843547    1.309946   -0.694104
      5          6           0        1.520289    0.728623   -0.136765
      6          6           0        1.500101   -0.702404    0.107969
      7          6           0        2.844602    1.050643   -0.326833
      8          6           0        2.842221   -1.171261    0.048269
      9          6           0        0.484664   -1.623601    0.411475
     10          6           0        0.813546   -2.957585    0.615786
     11          6           0        2.147391   -3.401122    0.529529
     12          6           0        3.178383   -2.512435    0.250462
     13          7           0        3.643569   -0.080746   -0.204440
     14          1           0       -0.996582    0.326435   -1.127181
     15          1           0        3.285687    2.007684   -0.556580
     16          1           0       -0.543029   -1.290390    0.485925
     17          1           0        0.030758   -3.671905    0.847361
     18          1           0        2.374702   -4.450028    0.688825
     19          1           0        4.209050   -2.849513    0.196985
     20          1           0        4.634399   -0.110401   -0.369707
     21          6           0       -1.776998    3.606534   -0.233070
     22          6           0       -1.974628    2.203593   -0.769377
     23          8           0       -2.694775    4.454505   -0.252541
     24          8           0       -3.066607    1.842342   -1.264097
     25          1           0       -0.333316    4.907693    0.707504
     26          1           0        1.509015    3.264728    0.788976
 ---------------------------------------------------------------------

 SCF Done:  E(UB3LYP) =  -744.348080373     A.U. after    2 cycles

 Alpha  occ. eigenvalues --  -18.93104 -18.92850 -14.27074 -10.11974 -10.10726
 Alpha  occ. eigenvalues --  -10.09287 -10.08835 -10.08080 -10.08031 -10.07964
 Alpha  occ. eigenvalues --  -10.07308 -10.07299 -10.07154 -10.05140 -10.03924
 Alpha  occ. eigenvalues --  -10.02395 -10.02189  -0.89341  -0.86380  -0.83790
 Alpha  occ. eigenvalues --   -0.75675  -0.71837  -0.68026  -0.65185  -0.63407
 Alpha  occ. eigenvalues --   -0.59686  -0.56092  -0.53853  -0.50898  -0.48810
 Alpha  occ. eigenvalues --   -0.45960  -0.44660  -0.42130  -0.39881  -0.38781
 Alpha  occ. eigenvalues --   -0.35484  -0.34750  -0.34051  -0.33907  -0.32742
 Alpha  occ. eigenvalues --   -0.30808  -0.30417  -0.27810  -0.27594  -0.26493
 Alpha  occ. eigenvalues --   -0.26333  -0.25431  -0.25340  -0.23318  -0.22055
 Alpha  occ. eigenvalues --   -0.20802  -0.19922  -0.17760  -0.14200  -0.12385
 Alpha  occ. eigenvalues --   -0.10809  -0.08934  -0.07180  -0.02218
 Alpha virt. eigenvalues --    0.05382   0.06312   0.06758   0.08327   0.09548
 Alpha virt. eigenvalues --    0.09635   0.10367   0.11476   0.11939   0.12236
 Alpha virt. eigenvalues --    0.12400   0.13402   0.14197   0.14475   0.15040

  Beta  occ. eigenvalues --  -18.92448 -18.92167 -14.27057 -10.11978 -10.10660
  Beta  occ. eigenvalues --  -10.09283 -10.08841 -10.08074 -10.08025 -10.07959
  Beta  occ. eigenvalues --  -10.07331 -10.07259 -10.07109 -10.04997 -10.03797
  Beta  occ. eigenvalues --  -10.02263 -10.02056  -0.89297  -0.85271  -0.82541
  Beta  occ. eigenvalues --   -0.75666  -0.71585  -0.67734  -0.65171  -0.63311
  Beta  occ. eigenvalues --   -0.59324  -0.55377  -0.53763  -0.50842  -0.48560
  Beta  occ. eigenvalues --   -0.45867  -0.44319  -0.41785  -0.39841  -0.38743
  Beta  occ. eigenvalues --   -0.35383  -0.34732  -0.33921  -0.33792  -0.32594
  Beta  occ. eigenvalues --   -0.30707  -0.30060  -0.27681  -0.27484  -0.26053
  Beta  occ. eigenvalues --   -0.25317  -0.25031  -0.24647  -0.22878  -0.21752
  Beta  occ. eigenvalues --   -0.20134  -0.17196  -0.16611  -0.14116  -0.11769
  Beta  occ. eigenvalues --   -0.10138  -0.07150  -0.06562
  Beta virt. eigenvalues --    0.04513   0.05387   0.06446   0.06758   0.08327
  Beta virt. eigenvalues --    0.09554   0.09673   0.10372   0.11670   0.12133
  Beta virt. eigenvalues --    0.12260   0.12774   0.13604   0.14376   0.14866

 Mulliken charges and spin densities:
               1          2
     1  C    0.409770   0.121202
     2  C   -1.058698   0.058756
     3  C    1.464256   0.100009
     4  C   -0.725600   0.075107
     5  C    0.348751   0.117237
     6  C    1.354249  -0.075994
     7  C   -0.281744   0.037119
     8  C    0.145419  -0.043051
     9  C   -1.055914   0.019722
    10  C   -0.577063   0.013003
    11  C   -0.185833  -0.013264
    12  C   -0.567929  -0.013614
    13  N   -0.084105   0.004011
    14  H    0.144111  -0.008337
    15  H    0.160371  -0.002904
    16  H    0.140882  -0.001926
    17  H    0.147009  -0.000157
    18  H    0.133117  -0.000120
    19  H    0.116798   0.000511
    20  H    0.276460  -0.000091
    21  C   -0.640474   0.058162
    22  C   -0.130967   0.075034
    23  O   -0.374083   0.242991
    24  O   -0.392394   0.253125
    25  H    0.142224  -0.008091
    26  H    0.091387  -0.008441
 Sum of Mulliken charges =  -1.00000   1.00000

 Dipole moment (field-independent basis, Debye):
    X=             11.5655    Y=            -11.6891    Z=              2.3918  Tot=             16.6167
 Quadrupole moment (field-independent basis, Debye-Ang):
   XX=           -125.7536   YY=           -153.6884   ZZ=           -110.2699
   XY=             39.4004   XZ=            -12.6584   YZ=              6.1592

  Exact polarizability: 245.714 -44.461 267.718  14.278  -4.597 113.984
 Approx polarizability: 419.006 -24.594 392.059  20.440  -1.607 182.334

                      1                      2                      3
                      A                      A                      A
 Frequencies --     39.8821                60.5910                77.3514
 Red. masses --      6.5872                 6.2929                 5.6642
 Frc consts  --      0.0062                 0.0136                 0.0200
 IR Inten    --      0.0563                 1.3805                 1.3924

                      4                      5                      6
                      A                      A                      A
 Frequencies --    110.8108               179.3744               208.5512
 Red. masses --      6.1030                 4.3366                 3.0677
 Frc consts  --      0.0442                 0.0822                 0.0786
 IR Inten    --      0.7253                18.5541                19.5656

                      7                      8                      9
                      A                      A                      A
 Frequencies --    228.2448               256.9021               276.4682
 Red. masses --      5.8668                 2.6024                 4.8518
 Frc consts  --      0.1801                 0.1012                 0.2185
 IR Inten    --      2.6019                24.8025                10.1893

                     10                     11                     12
                      A                      A                      A
 Frequencies --    317.1646               351.5662               389.8915
 Red. masses --      4.1533                14.3339                 3.2359
 Frc consts  --      0.2462                 1.0438                 0.2898
 IR Inten    --     12.9583                 0.1851                 7.9863

                     13                     14                     15
                      A                      A                      A
 Frequencies --    430.1876               461.4744               476.3255
 Red. masses --      2.9791                 5.9637                 3.2007
 Frc consts  --      0.3248                 0.7483                 0.4279
 IR Inten    --      5.9442                 2.5862                 0.4380

                     16                     17                     18
                      A                      A                      A
 Frequencies --    495.3071               557.4293               580.6155
 Red. masses --      5.1237                 6.5132                 3.2545
 Frc consts  --      0.7406                 1.1924                 0.6464
 IR Inten    --     12.1991                 2.6612                 5.9645

                     19                     20                     21
                      A                      A                      A
 Frequencies --    588.1254               594.7242               626.4747
 Red. masses --      4.6482                 7.1667                 4.3734
 Frc consts  --      0.9473                 1.4935                 1.0113
 IR Inten    --      2.3263                17.0408                 9.0378

                     22                     23                     24
                      A                      A                      A
 Frequencies --    647.1516               665.0883               733.4519
 Red. masses --      2.6790                 6.0727                 3.0672
 Frc consts  --      0.6610                 1.5827                 0.9722
 IR Inten    --      2.9783                 1.2857                 3.9606

                     25                     26                     27
                      A                      A                      A
 Frequencies --    737.8950               743.2379               765.3794
 Red. masses --      1.2906                 2.8619                 2.9724
 Frc consts  --      0.4140                 0.9314                 1.0259
 IR Inten    --     85.5580                15.9521                 2.4390

                     28                     29                     30
                      A                      A                      A
 Frequencies --    775.6298               785.3642               809.9625
 Red. masses --      2.5572                 2.9280                 2.7673
 Frc consts  --      0.9064                 1.0640                 1.0696
 IR Inten    --      9.6375                11.9858                16.2940

                     31                     32                     33
                      A                      A                      A
 Frequencies --    843.6161               860.4414               885.6032
 Red. masses --      1.5044                 1.5821                 4.8487
 Frc consts  --      0.6308                 0.6901                 2.2405
 IR Inten    --      0.6670                17.4682                 0.0359

                     34                     35                     36
                      A                      A                      A
 Frequencies --    914.3726               917.0779               926.8003
 Red. masses --      3.8628                 1.4826                 1.3337
 Frc consts  --      1.9028                 0.7347                 0.6750
 IR Inten    --      8.8348                 1.3949                 1.3760

                     37                     38                     39
                      A                      A                      A
 Frequencies --    971.3019               987.9358              1031.6635
 Red. masses --      1.2758                 3.0535                 2.1654
 Frc consts  --      0.7091                 1.7559                 1.3579
 IR Inten    --      0.1352                 5.8068                19.4707

                     40                     41                     42
                      A                      A                      A
 Frequencies --   1091.8869              1113.6798              1131.7463
 Red. masses --      1.6221                 2.5109                 1.8102
 Frc consts  --      1.1394                 1.8349                 1.3661
 IR Inten    --     64.1255                 1.5267                15.8451

                     43                     44                     45
                      A                      A                      A
 Frequencies --   1151.8967              1171.2698              1186.1862
 Red. masses --      1.5218                 1.1864                 1.6928
 Frc consts  --      1.1897                 0.9589                 1.4033
 IR Inten    --      5.1111                 4.6064                13.9743

                     46                     47                     48
                      A                      A                      A
 Frequencies --   1243.6252              1255.4034              1264.5853
 Red. masses --      2.1775                 3.1678                 2.1543
 Frc consts  --      1.9842                 2.9415                 2.0298
 IR Inten    --     31.2949                15.8509                23.2798

                     49                     50                     51
                      A                      A                      A
 Frequencies --   1305.7691              1308.8221              1354.8861
 Red. masses --      1.9091                 2.4947                 2.2859
 Frc consts  --      1.9179                 2.5179                 2.4723
 IR Inten    --      4.1986                 7.9943                25.9158

                     52                     53                     54
                      A                      A                      A
 Frequencies --   1369.8977              1428.7879              1450.8953
 Red. masses --      4.6178                 2.3594                 3.0551
 Frc consts  --      5.1058                 2.8378                 3.7892
 IR Inten    --     15.1063                66.4811                44.9315

                     55                     56                     57
                      A                      A                      A
 Frequencies --   1476.2730              1487.3608              1514.7637
 Red. masses --      2.8449                 6.7326                 2.8490
 Frc consts  --      3.6530                 8.7754                 3.8515
 IR Inten    --     44.4436               139.4959                11.2622

                     58                     59                     60
                      A                      A                      A
 Frequencies --   1544.1157              1555.6198              1574.4996
 Red. masses --      7.5733                 7.0965                 6.9112
 Frc consts  --     10.6389                10.1182                10.0947
 IR Inten    --    123.3077               325.3972               274.2094

                     61                     62                     63
                      A                      A                      A
 Frequencies --   1587.5057              1606.9917              1647.2622
 Red. masses --      5.4512                 5.9645                 6.1328
 Frc consts  --      8.0941                 9.0751                 9.8046
 IR Inten    --     19.2417                 2.5298                 1.6788

                     64                     65                     66
                      A                      A                      A
 Frequencies --   3124.2919              3144.5668              3148.0975
 Red. masses --      1.0843                 1.0851                 1.0935
 Frc consts  --      6.2360                 6.3221                 6.3850
 IR Inten    --     23.9657                 3.9537                60.0433

                     67                     68                     69
                      A                      A                      A
 Frequencies --   3155.4466              3157.8047              3172.4787
 Red. masses --      1.0889                 1.0898                 1.0944
 Frc consts  --      6.3879                 6.4025                 6.4897
 IR Inten    --      8.0136                31.0898                42.0455

                     70                     71                     72
                      A                      A                      A
 Frequencies --   3195.5161              3246.2983              3679.8499
 Red. masses --      1.0932                 1.0956                 1.0797
 Frc consts  --      6.5773                 6.8024                 8.6138
 IR Inten    --      6.9431                 3.9894                62.0868

 - Thermochemistry -
 -------------------
 Temperature   298.150 Kelvin.  Pressure   1.00000 Atm.
 Atom     1 has atomic number  6 and mass  12.00000

 Molecular mass:   223.06333 amu.
 Principal axes and moments of inertia in atomic units:
                           1         2         3
     Eigenvalues --  1549.974766982.972458244.41836
           X           -0.63186   0.76894  -0.09732
           Y            0.76925   0.63752   0.04274
           Z           -0.09491   0.04785   0.99434
 This molecule is an asymmetric top.
 Rotational symmetry number  1.
 Warning -- assumption of classical behavior for rotation
           may cause significant error
 Rotational temperatures (Kelvin)      0.05588     0.01240     0.01051
 Rotational constants (GHZ):           1.16437     0.25845     0.21890
 Zero-point vibrational energy     503373.7 (Joules/Mol)
                                  120.30921 (Kcal/Mol)
 Warning -- explicit consideration of  20 degrees of freedom as
           vibrations may cause significant error
 Vibrational temperatures:     57.38    87.18   111.29   159.43   258.08
          (Kelvin)            300.06   328.39   369.62   397.78   456.33
                              505.83   560.97   618.94   663.96   685.33
                              712.64   802.02   835.38   846.18   855.68
                              901.36   931.11   956.91  1055.27  1061.67
                             1069.35  1101.21  1115.96  1129.96  1165.36
                             1213.78  1237.98  1274.19  1315.58  1319.47
                             1333.46  1397.49  1421.42  1484.33  1570.98
                             1602.34  1628.33  1657.32  1685.20  1706.66
                             1789.30  1806.25  1819.46  1878.71  1883.10
                             1949.38  1970.98  2055.71  2087.51  2124.03
                             2139.98  2179.41  2221.64  2238.19  2265.35
                             2284.07  2312.10  2370.04  4495.16  4524.33
                             4529.41  4539.98  4543.38  4564.49  4597.63
                             4670.70  5294.48

 Zero-point correction=                           0.191725 (Hartree/Particle)
 Thermal correction to Energy=                    0.204817
 Thermal correction to Enthalpy=                  0.205761
 Thermal correction to Gibbs Free Energy=         0.150735
 Sum of electronic and zero-point Energies=           -744.156355
 Sum of electronic and thermal Energies=              -744.143263
 Sum of electronic and thermal Enthalpies=            -744.142319
 Sum of electronic and thermal Free Energies=         -744.197346

                     E (Thermal)             CV                S
                      KCal/Mol        Cal/Mol-Kelvin    Cal/Mol-Kelvin
 Total                  128.525             52.384            115.813
 Electronic               0.000              0.000              1.377
 Translational            0.889              2.981             42.109
 Rotational               0.889              2.981             32.856
 Vibrational            126.747             46.423             39.470
 Vibration     1          0.594              1.981              5.265
 Vibration     2          0.597              1.973              4.438
 Vibration     3          0.599              1.964              3.957
 Vibration     4          0.607              1.941              3.255
 Vibration     5          0.629              1.868              2.335
 Vibration     6          0.642              1.828              2.056
 Vibration     7          0.651              1.798              1.893
 Vibration     8          0.666              1.751              1.683
 Vibration     9          0.678              1.717              1.555
 Vibration    10          0.704              1.641              1.325
 Vibration    11          0.728              1.572              1.159
 Vibration    12          0.758              1.492              1.001
 Vibration    13          0.791              1.404              0.858
 Vibration    14          0.819              1.336              0.762
 Vibration    15          0.833              1.303              0.720
 Vibration    16          0.851              1.260              0.670
 Vibration    17          0.913              1.123              0.529
 Vibration    18          0.937              1.073              0.484
 Vibration    19          0.945              1.057              0.471
 Vibration    20          0.952              1.043              0.459

 Optimization completed.
    -- Stationary point found.
 Normal termination of Gaussian 16 at Tue Jan  9 21:30:37 2024.
