 Gaussian 16, Revision A.03,
 Gaussian 16:  ES64L-G16RevA.03 25-Dec-2016

 ----------------------------------------------------------------------
 #P UB3LYP/6-311++G(d,p) nosym opt freq SCRF=(PCM,Solvent=n,n-DiMethylF
 ormamide)
 ----------------------------------------------------------------------

 -------
 Radical
 -------
 Symbolic Z-matrix:
 Charge = -1 Multiplicity = 2

 SCF Done:  E(UB3LYP) =  -496.278543605     A.U. after   18 cycles
 SCF Done:  E(UB3LYP) =  -496.278695683     A.U. after   16 cycles
 SCF Done:  E(UB3LYP) =  -496.279038569     A.U. after   15 cycles
 SCF Done:  E(UB3LYP) =  -496.279099329     A.U. after   13 cycles
 SCF Done:  E(UB3LYP) =  -496.279125119     A.U. after   13 cycles
 SCF Done:  E(UB3LYP) =  -496.279133879     A.U. after   13 cycles
 SCF Done:  E(UB3LYP) =  -496.279137560     A.U. after   12 cycles
 SCF Done:  E(UB3LYP) =  -496.279138956     A.U. after   11 cycles
 SCF Done:  E(UB3LYP) =  -496.279139057     A.U. after   11 cycles
 SCF Done:  E(UB3LYP) =  -496.279139141     A.U. after    9 cycles
 SCF Done:  E(UB3LYP) =  -496.279139161     A.U. after    8 cycles
 Optimization completed.
    -- Stationary point found.
 Normal termination of Gaussian 16 at Sat Feb 10 11:16:45 2024.

 ----------------------------------------------------------------------
 #P Geom=AllCheck Guess=TCheck SCRF=Check GenChk UB3LYP/6-311++G(d,p) F
 req
 ----------------------------------------------------------------------

 Structure from the checkpoint file:  "082-rad.chk"
 -------
 Radical
 -------
 Charge = -1 Multiplicity = 2

                          Input orientation:
 ---------------------------------------------------------------------
 Center     Atomic      Atomic             Coordinates (Angstroms)
 Number     Number       Type             X           Y           Z
 ---------------------------------------------------------------------
      1          6           0        2.606994   -0.129990    0.729536
      2          8           0        1.825417    0.145969   -0.444383
      3          6           0        0.457444    0.099088   -0.275894
      4          6           0       -0.266128    1.243149   -0.487234
      5          6           0       -1.707775    1.275296   -0.403525
      6          8           0       -2.370673    2.342287   -0.600612
      7          6           0       -2.348073    0.021644   -0.071697
      8          6           0       -1.626322   -1.123449    0.135797
      9          6           0       -0.187081   -1.175354    0.029854
     10          8           0        0.468315   -2.253046    0.172256
     11          1           0        2.379584   -1.120446    1.124723
     12          1           0        3.650794   -0.083307    0.419848
     13          1           0        2.421277    0.632467    1.493813
     14          1           0        0.254062    2.164715   -0.728262
     15          1           0       -3.431142    0.018613    0.004816
     16          1           0       -2.126693   -2.057637    0.373524
 ---------------------------------------------------------------------

 SCF Done:  E(UB3LYP) =  -496.279139161     A.U. after    1 cycles

 Alpha  occ. eigenvalues --  -19.13809 -19.07955 -19.07699 -10.22196 -10.22145
 Alpha  occ. eigenvalues --  -10.22097 -10.20866 -10.16520 -10.16354 -10.15982
 Alpha  occ. eigenvalues --   -1.05118  -0.99526  -0.99361  -0.82228  -0.74982
 Alpha  occ. eigenvalues --   -0.69603  -0.67105  -0.60000  -0.56738  -0.49513
 Alpha  occ. eigenvalues --   -0.48698  -0.46539  -0.45866  -0.43499  -0.42577
 Alpha  occ. eigenvalues --   -0.40575  -0.40184  -0.38182  -0.37337  -0.36833
 Alpha  occ. eigenvalues --   -0.35102  -0.29300  -0.28019  -0.24900  -0.24165
 Alpha  occ. eigenvalues --   -0.23853  -0.16463
 Alpha virt. eigenvalues --   -0.00843   0.00089   0.01158   0.01658   0.02364
 Alpha virt. eigenvalues --    0.03392   0.03794   0.04201   0.04814   0.06487
 Alpha virt. eigenvalues --    0.06590   0.07219   0.08758   0.09515   0.09717

  Beta  occ. eigenvalues --  -19.13790 -19.07233 -19.07007 -10.22035 -10.22019
  Beta  occ. eigenvalues --  -10.21976 -10.20860 -10.16429 -10.16209 -10.15915
  Beta  occ. eigenvalues --   -1.05000  -0.98308  -0.98112  -0.81611  -0.74747
  Beta  occ. eigenvalues --   -0.69160  -0.66320  -0.59594  -0.56390  -0.49312
  Beta  occ. eigenvalues --   -0.48449  -0.46126  -0.45569  -0.43344  -0.42360
  Beta  occ. eigenvalues --   -0.39921  -0.38573  -0.37649  -0.36605  -0.34918
  Beta  occ. eigenvalues --   -0.34268  -0.28972  -0.24940  -0.23975  -0.23515
  Beta  occ. eigenvalues --   -0.23238
  Beta virt. eigenvalues --   -0.09138   0.00022   0.00595   0.01251   0.01698
  Beta virt. eigenvalues --    0.02919   0.03773   0.04220   0.04825   0.05022
  Beta virt. eigenvalues --    0.06609   0.06867   0.07332   0.08846   0.09570

 Mulliken charges and spin densities:
               1          2
     1  C   -0.289752   0.006563
     2  O   -0.224297   0.000107
     3  C   -0.427929   0.115593
     4  C    0.639327   0.015156
     5  C   -0.590860   0.125788
     6  O   -0.519018   0.240422
     7  C    0.140263   0.100143
     8  C   -0.025428   0.082269
     9  C   -0.237405   0.074456
    10  O   -0.507769   0.259698
    11  H    0.169719  -0.001217
    12  H    0.152790   0.000934
    13  H    0.136778  -0.000289
    14  H    0.207354  -0.005521
    15  H    0.185664  -0.007705
    16  H    0.190564  -0.006397
 Sum of Mulliken charges =  -1.00000   1.00000

 Dipole moment (field-independent basis, Debye):
    X=              4.5468    Y=             -0.9918    Z=              2.7976  Tot=              5.4299
 Quadrupole moment (field-independent basis, Debye-Ang):
   XX=            -73.2486   YY=            -89.9924   ZZ=            -63.4467
   XY=             19.0545   XZ=             -0.5280   YZ=              4.4415

  Exact polarizability: 180.229 -46.310 201.246   8.829 -22.951  87.702
 Approx polarizability: 191.127 -58.230 227.846   7.723 -26.103  96.967

                      1                      2                      3
                      A                      A                      A
 Frequencies --     63.1885               114.2186               142.3674
 Red. masses --      2.5192                 5.9919                 1.3474
 Frc consts  --      0.0059                 0.0461                 0.0161
 IR Inten    --     11.6122                18.3335                 2.0594

                      4                      5                      6
                      A                      A                      A
 Frequencies --    174.5806               273.5896               330.2688
 Red. masses --      2.8951                 5.4153                 7.0915
 Frc consts  --      0.0520                 0.2388                 0.4557
 IR Inten    --      8.5801                 7.9218                 1.0661

                      7                      8                      9
                      A                      A                      A
 Frequencies --    352.1053               379.7378               451.3027
 Red. masses --      5.0603                 8.6045                 6.9498
 Frc consts  --      0.3696                 0.7310                 0.8340
 IR Inten    --      4.7190                11.9042                 7.7470

                     10                     11                     12
                      A                      A                      A
 Frequencies --    475.9313               508.1286               615.3918
 Red. masses --      3.6968                 5.7313                 4.3627
 Frc consts  --      0.4934                 0.8719                 0.9734
 IR Inten    --      4.8876                 3.3609                 8.6602

                     13                     14                     15
                      A                      A                      A
 Frequencies --    656.3208               707.8857               742.7154
 Red. masses --      3.1874                 6.7369                 2.9147
 Frc consts  --      0.8089                 1.9890                 0.9473
 IR Inten    --      9.1508                12.5429                 2.5166

                     16                     17                     18
                      A                      A                      A
 Frequencies --    814.1546               823.8498               873.0009
 Red. masses --      4.5870                 2.4055                 1.6284
 Frc consts  --      1.7914                 0.9619                 0.7312
 IR Inten    --     90.7593                45.9275                57.8599

                     19                     20                     21
                      A                      A                      A
 Frequencies --    914.2394               949.9893              1012.2044
 Red. masses --      3.7807                 1.2729                 4.2919
 Frc consts  --      1.8619                 0.6768                 2.5908
 IR Inten    --     24.1418                 1.1168                53.3515

                     22                     23                     24
                      A                      A                      A
 Frequencies --   1098.1320              1153.9126              1166.3367
 Red. masses --      1.9607                 1.4018                 1.7245
 Frc consts  --      1.3931                 1.0998                 1.3822
 IR Inten    --    164.4515               116.7207               151.0507

                     25                     26                     27
                      A                      A                      A
 Frequencies --   1215.0650              1217.2308              1244.0923
 Red. masses --      1.6342                 1.8963                 2.4279
 Frc consts  --      1.4215                 1.6554                 2.2140
 IR Inten    --    100.9999                55.9226                69.3491

                     28                     29                     30
                      A                      A                      A
 Frequencies --   1344.9480              1432.3110              1450.3687
 Red. masses --      2.1800                 3.7695                 1.3642
 Frc consts  --      2.3234                 4.5563                 1.6907
 IR Inten    --     84.0723               122.0575                70.5249

                     31                     32                     33
                      A                      A                      A
 Frequencies --   1472.5671              1477.0553              1499.0358
 Red. masses --      2.2381                 1.6796                 1.0480
 Frc consts  --      2.8594                 2.1590                 1.3876
 IR Inten    --      1.6982                43.6563                14.2635

                     34                     35                     36
                      A                      A                      A
 Frequencies --   1506.1754              1520.0276              1640.9715
 Red. masses --      4.5880                 4.8780                 7.0378
 Frc consts  --      6.1323                 6.6404                11.1658
 IR Inten    --    983.1861               369.7102                40.2212

                     37                     38                     39
                      A                      A                      A
 Frequencies --   3012.0787              3094.9669              3130.8000
 Red. masses --      1.0390                 1.0937                 1.1066
 Frc consts  --      5.5537                 6.1727                 6.3905
 IR Inten    --    105.2970                50.0889                27.9359

                     40                     41                     42
                      A                      A                      A
 Frequencies --   3147.4987              3164.9020              3167.6203
 Red. masses --      1.0858                 1.0924                 1.0932
 Frc consts  --      6.3379                 6.4472                 6.4627
 IR Inten    --     31.0641                42.0417                 7.3047

 - Thermochemistry -
 -------------------
 Temperature   298.150 Kelvin.  Pressure   1.00000 Atm.
 Atom     1 has atomic number  6 and mass  12.00000

 Molecular mass:   138.03169 amu.
 Principal axes and moments of inertia in atomic units:
                           1         2         3
     Eigenvalues --   749.764911695.520422353.68165
           X            0.87185   0.48534  -0.06577
           Y           -0.46897   0.86597   0.17367
           Z            0.14124  -0.12057   0.98261
 This molecule is an asymmetric top.
 Rotational symmetry number  1.
 Warning -- assumption of classical behavior for rotation
           may cause significant error
 Rotational temperatures (Kelvin)      0.11552     0.05108     0.03680
 Rotational constants (GHZ):           2.40708     1.06442     0.76677
 Zero-point vibrational energy     302244.1 (Joules/Mol)
                                   72.23807 (Kcal/Mol)
 Warning -- explicit consideration of  12 degrees of freedom as
           vibrations may cause significant error
 Vibrational temperatures:     90.91   164.34   204.83   251.18   393.63
          (Kelvin)            475.18   506.60   546.36   649.32   684.76
                              731.08   885.41   944.30  1018.49  1068.60
                             1171.39  1185.34  1256.05  1315.39  1366.82
                             1456.34  1579.97  1660.22  1678.10  1748.21
                             1751.32  1789.97  1935.08  2060.78  2086.76
                             2118.70  2125.15  2156.78  2167.05  2186.98
                             2360.99  4333.71  4452.97  4504.52  4528.55
                             4553.59  4557.50

 Zero-point correction=                           0.115119 (Hartree/Particle)
 Thermal correction to Energy=                    0.123961
 Thermal correction to Enthalpy=                  0.124905
 Thermal correction to Gibbs Free Energy=         0.080225
 Sum of electronic and zero-point Energies=           -496.164020
 Sum of electronic and thermal Energies=              -496.155179
 Sum of electronic and thermal Enthalpies=            -496.154234
 Sum of electronic and thermal Free Energies=         -496.198914

                     E (Thermal)             CV                S
                      KCal/Mol        Cal/Mol-Kelvin    Cal/Mol-Kelvin
 Total                   77.786             32.560             94.037
 Electronic               0.000              0.000              1.377
 Translational            0.889              2.981             40.679
 Rotational               0.889              2.981             29.483
 Vibrational             76.009             26.598             22.498
 Vibration     1          0.597              1.972              4.355
 Vibration     2          0.607              1.938              3.196
 Vibration     3          0.616              1.911              2.772
 Vibration     4          0.627              1.874              2.386
 Vibration     5          0.676              1.722              1.573
 Vibration     6          0.713              1.615              1.259
 Vibration     7          0.729              1.571              1.157
 Vibration     8          0.750              1.513              1.040
 Vibration     9          0.810              1.358              0.792
 Vibration    10          0.833              1.303              0.721
 Vibration    11          0.863              1.232              0.638
 Vibration    12          0.975              0.999              0.424

 Optimization completed.
    -- Stationary point found.
 Normal termination of Gaussian 16 at Sat Feb 10 11:27:30 2024.
