 Q-Chem 5.4, Q-Chem, Inc., Pleasanton, CA (2021)
 Q-Chem 5.4.0 for Intel X86 EM64T Linux

User input:
--------------------------------------------------------------
$molecule
0 1
C                 -1.2338700000      1.8892290000     -2.9138620000
C                 -2.1816830000      1.9616310000     -1.7816900000
C                  0.1892740000      1.8630570000     -2.5146540000
C                  0.5688860000      1.5069810000     -1.2712930000
C                 -0.4953670000      0.9120160000     -0.3936110000
C                 -1.8204110000      1.6061260000     -0.5327210000
C                 -0.3139470000     -0.2289470000      0.3460960000
C                 -1.3781070000     -0.8239760000      1.2238590000
C                  1.0111630000     -0.9229540000      0.4851040000
C                  1.3725340000     -1.2785570000      1.7340290000
C                  0.4247870000     -1.2062850000      2.8662720000
C                 -0.9983820000     -1.1800520000      2.4671770000
O                 -1.5890580000      2.0117230000     -4.0791980000
O                  0.7800220000     -1.3287570000      4.0315960000
C                  1.9524840000      1.8346960000     -0.7183870000
C                  1.8619550000      3.1306910000      0.1192640000
C                  3.0411000000      1.9754360000     -1.7901510000
C                  1.8129350000     -1.3412090000     -0.7435820000
C                  1.1697030000     -2.6081440000     -1.3522680000
C                  3.3022880000     -1.5868460000     -0.4695620000
C                 -2.7618170000     -1.1516020000      0.6711950000
C                 -3.8502650000     -1.2921570000      1.7431540000
C                 -2.6715750000     -2.4476880000     -0.1663410000
C                 -2.6221930000      2.0246660000      0.6958500000
C                 -1.9789000000      3.2916940000      1.3042790000
C                 -4.1115160000      2.2703590000      0.4217180000
H                 -3.1432710000      2.4077130000     -2.0048150000
H                  0.8884510000      2.2401130000     -3.2511040000
H                  2.3341540000     -1.7245900000      1.9570870000
H                 -1.6975330000     -1.5570550000      3.2036840000
H                  2.2530420000      1.0495590000     -0.0245030000
H                  2.8422260000      3.3666050000      0.5426930000
H                  1.1591370000      3.0272740000      0.9475980000
H                  1.5429150000      3.9746770000     -0.4982640000
H                  3.1110070000      1.0893380000     -2.4257930000
H                  4.0124560000      2.1243440000     -1.3117690000
H                  2.8628320000      2.8397670000     -2.4356110000
H                  1.7269450000     -0.5657360000     -1.5048380000
H                  1.1937880000     -3.4390930000     -0.6420810000
H                  1.7189030000     -2.9073930000     -2.2493330000
H                  0.1318720000     -2.4345410000     -1.6412470000
H                  3.4554990000     -2.4496850000      0.1842440000
H                  3.7842960000     -0.7229480000     -0.0054050000
H                  3.8201990000     -1.7972210000     -1.4087500000
H                 -3.0623940000     -0.3665310000     -0.0227320000
H                 -4.8217180000     -1.4410740000      1.2649680000
H                 -3.9200080000     -0.4060120000      2.3787460000
H                 -3.6718890000     -2.1564410000      2.3886490000
H                 -3.6519450000     -2.6835850000     -0.5895610000
H                 -2.3524890000     -3.2916200000      0.4512370000
H                 -1.9689000000     -2.3444500000     -0.9948190000
H                 -2.5362390000      1.2493840000      1.4572820000
H                 -2.5280260000      3.5911450000      2.2013240000
H                 -2.0030250000      4.1224960000      0.5939260000
H                 -0.9410390000      3.1181470000      1.5932110000
H                 -4.6294730000      2.4809790000      1.3608270000
H                 -4.5935850000      1.4064340000     -0.0423260000
H                 -4.2645670000      3.1330860000     -0.2322760000
$end
$rem
MAX_SCF_CYCLES=200
BASIS  =  6-311++G(d,p)
GUI  =  2
JOB_TYPE  =  SP
METHOD  =  B3LYP
SOLVENT_METHOD = PCM
$end
$pcm
theory = CPCM
$end
$solvent
dielectric 37.219
opticaldielectric 1.43
$end

--------------------------------------------------------------

             Standard Nuclear Orientation (Angstroms)
    I     Atom           X                Y                Z
 ----------------------------------------------------------------
    1      C      -1.2338700000     1.8892290000    -2.9138620000
    2      C      -2.1816830000     1.9616310000    -1.7816900000
    3      C       0.1892740000     1.8630570000    -2.5146540000
    4      C       0.5688860000     1.5069810000    -1.2712930000
    5      C      -0.4953670000     0.9120160000    -0.3936110000
    6      C      -1.8204110000     1.6061260000    -0.5327210000
    7      C      -0.3139470000    -0.2289470000     0.3460960000
    8      C      -1.3781070000    -0.8239760000     1.2238590000
    9      C       1.0111630000    -0.9229540000     0.4851040000
   10      C       1.3725340000    -1.2785570000     1.7340290000
   11      C       0.4247870000    -1.2062850000     2.8662720000
   12      C      -0.9983820000    -1.1800520000     2.4671770000
   13      O      -1.5890580000     2.0117230000    -4.0791980000
   14      O       0.7800220000    -1.3287570000     4.0315960000
   15      C       1.9524840000     1.8346960000    -0.7183870000
   16      C       1.8619550000     3.1306910000     0.1192640000
   17      C       3.0411000000     1.9754360000    -1.7901510000
   18      C       1.8129350000    -1.3412090000    -0.7435820000
   19      C       1.1697030000    -2.6081440000    -1.3522680000
   20      C       3.3022880000    -1.5868460000    -0.4695620000
   21      C      -2.7618170000    -1.1516020000     0.6711950000
   22      C      -3.8502650000    -1.2921570000     1.7431540000
   23      C      -2.6715750000    -2.4476880000    -0.1663410000
   24      C      -2.6221930000     2.0246660000     0.6958500000
   25      C      -1.9789000000     3.2916940000     1.3042790000
   26      C      -4.1115160000     2.2703590000     0.4217180000
   27      H      -3.1432710000     2.4077130000    -2.0048150000
   28      H       0.8884510000     2.2401130000    -3.2511040000
   29      H       2.3341540000    -1.7245900000     1.9570870000
   30      H      -1.6975330000    -1.5570550000     3.2036840000
   31      H       2.2530420000     1.0495590000    -0.0245030000
   32      H       2.8422260000     3.3666050000     0.5426930000
   33      H       1.1591370000     3.0272740000     0.9475980000
   34      H       1.5429150000     3.9746770000    -0.4982640000
   35      H       3.1110070000     1.0893380000    -2.4257930000
   36      H       4.0124560000     2.1243440000    -1.3117690000
   37      H       2.8628320000     2.8397670000    -2.4356110000
   38      H       1.7269450000    -0.5657360000    -1.5048380000
   39      H       1.1937880000    -3.4390930000    -0.6420810000
   40      H       1.7189030000    -2.9073930000    -2.2493330000
   41      H       0.1318720000    -2.4345410000    -1.6412470000
   42      H       3.4554990000    -2.4496850000     0.1842440000
   43      H       3.7842960000    -0.7229480000    -0.0054050000
   44      H       3.8201990000    -1.7972210000    -1.4087500000
   45      H      -3.0623940000    -0.3665310000    -0.0227320000
   46      H      -4.8217180000    -1.4410740000     1.2649680000
   47      H      -3.9200080000    -0.4060120000     2.3787460000
   48      H      -3.6718890000    -2.1564410000     2.3886490000
   49      H      -3.6519450000    -2.6835850000    -0.5895610000
   50      H      -2.3524890000    -3.2916200000     0.4512370000
   51      H      -1.9689000000    -2.3444500000    -0.9948190000
   52      H      -2.5362390000     1.2493840000     1.4572820000
   53      H      -2.5280260000     3.5911450000     2.2013240000
   54      H      -2.0030250000     4.1224960000     0.5939260000
   55      H      -0.9410390000     3.1181470000     1.5932110000
   56      H      -4.6294730000     2.4809790000     1.3608270000
   57      H      -4.5935850000     1.4064340000    -0.0423260000
   58      H      -4.2645670000     3.1330860000    -0.2322760000
 ----------------------------------------------------------------

    9   -1084.5184064200      6.03e-06  Convergence criterion met
 Total energy in the final basis set =    -1084.5184064200

                    Orbital Energies (a.u.)
 --------------------------------------------------------------

 Alpha MOs
 -- Occupied --
-19.1185 -19.1185 -10.2655 -10.2655 -10.2216 -10.2209 -10.2127 -10.2127
-10.2126 -10.2126 -10.1894 -10.1894 -10.1894 -10.1894 -10.1785 -10.1785
-10.1784 -10.1784 -10.1620 -10.1620 -10.1620 -10.1620 -10.1594 -10.1594
-10.1594 -10.1594  -1.0495  -1.0495  -0.8948  -0.8625  -0.8341  -0.8211
 -0.7932  -0.7866  -0.7711  -0.7453  -0.7442  -0.6955  -0.6898  -0.6885
 -0.6858  -0.6823  -0.6471  -0.6391  -0.6245  -0.6017  -0.5854  -0.5712
 -0.5573  -0.5522  -0.5343  -0.5144  -0.4869  -0.4804  -0.4738  -0.4661
 -0.4624  -0.4606  -0.4597  -0.4467  -0.4460  -0.4434  -0.4412  -0.4317
 -0.4308  -0.4103  -0.4086  -0.4076  -0.4072  -0.4054  -0.4047  -0.3928
 -0.3873  -0.3862  -0.3846  -0.3813  -0.3775  -0.3711  -0.3700  -0.3565
 -0.3525  -0.3523  -0.3486  -0.3450  -0.3448  -0.3422  -0.3412  -0.3388
 -0.3345  -0.3246  -0.2897  -0.2704  -0.2700  -0.2585  -0.2511  -0.2467

          Ground-State Mulliken Net Atomic Charges

     Atom                 Charge (a.u.)
  ----------------------------------------
      1 C                    -0.707704
      2 C                    -0.294008
      3 C                    -0.294992
      4 C                     0.797067
      5 C                     0.130253
      6 C                     0.784348
      7 C                     0.130609
      8 C                     0.796301
      9 C                     0.784517
     10 C                    -0.295213
     11 C                    -0.707874
     12 C                    -0.294174
     13 O                    -0.362161
     14 O                    -0.362165
     15 C                    -0.174692
     16 C                    -0.735268
     17 C                    -0.685177
     18 C                    -0.166916
     19 C                    -0.737104
     20 C                    -0.683541
     21 C                    -0.175194
     22 C                    -0.685804
     23 C                    -0.733515
     24 C                    -0.167744
     25 C                    -0.736540
     26 C                    -0.683793
     27 H                     0.249112
     28 H                     0.249332
     29 H                     0.249107
     30 H                     0.249347
     31 H                     0.303543
     32 H                     0.175972
     33 H                     0.150480
     34 H                     0.188731
     35 H                     0.147597
     36 H                     0.189369
     37 H                     0.161705
     38 H                     0.303114
     39 H                     0.190027
     40 H                     0.176077
     41 H                     0.147869
     42 H                     0.161678
     43 H                     0.147125
     44 H                     0.188893
     45 H                     0.303012
     46 H                     0.189336
     47 H                     0.147624
     48 H                     0.161627
     49 H                     0.176044
     50 H                     0.188737
     51 H                     0.150295
     52 H                     0.303201
     53 H                     0.175989
     54 H                     0.190083
     55 H                     0.147606
     56 H                     0.188890
     57 H                     0.147277
     58 H                     0.161685
  ----------------------------------------
  Sum of atomic charges =     0.000000

                    Cartesian Multipole Moments
 -----------------------------------------------------------------
    Charge (ESU x 10^10)
                 0.0000
    Dipole Moment (Debye)
         X      -0.0004      Y       0.0007      Z       0.0000
       Tot       0.0008
    Quadrupole Moments (Debye-Ang)
        XX    -145.6117     XY       5.2236     YY    -157.2895
        XZ     -23.2660     YZ      19.4205     ZZ    -216.4791

 Total job time:  257.27s(wall), 1779.09s(cpu)
        *  Thank you very much for using Q-Chem.  Have a nice day.  *
