 Gaussian 16, Revision A.03,
 Gaussian 16:  ES64L-G16RevA.03 25-Dec-2016

 --------------------------------------
 #P UB3LYP/6-311++G(d,p) nosym opt freq
 --------------------------------------

 -------
 Reduced
 -------
 Symbolic Z-matrix:
 Charge = -2 Multiplicity = 1

 SCF Done:  E(UB3LYP) =  -783.634706354     A.U. after   47 cycles
 Optimization completed.
    -- Stationary point found.
 Normal termination of Gaussian 16 at Wed Dec 27 20:59:02 2023.

 ----------------------------------------------------------------------
 #P Geom=AllCheck Guess=TCheck SCRF=Check GenChk UB3LYP/6-311++G(d,p) F
 req
 ----------------------------------------------------------------------

 Structure from the checkpoint file:  "154-an.chk"
 -------
 Reduced
 -------
 Charge = -2 Multiplicity = 1

                          Input orientation:
 ---------------------------------------------------------------------
 Center     Atomic      Atomic             Coordinates (Angstroms)
 Number     Number       Type             X           Y           Z
 ---------------------------------------------------------------------
      1          6           0       -4.390704   -0.334542    0.225564
      2          6           0       -2.911963   -0.618372    0.270914
      3          6           0       -2.433925   -1.946135    0.417993
      4          6           0       -1.085949   -2.218341    0.458729
      5          6           0       -0.118201   -1.188122    0.346871
      6          6           0        1.283664   -1.562588    0.403731
      7          8           0        1.667953   -2.772738    0.579282
      8          6           0        2.217304   -0.469728    0.241627
      9          6           0        3.610490   -0.727513    0.279512
     10          6           0        4.548829    0.272272    0.123928
     11          6           0        4.115660    1.613213   -0.082575
     12          6           0        2.766429    1.896356   -0.127435
     13          6           0        1.776266    0.890632    0.029423
     14          6           0        0.382358    1.257519   -0.025598
     15          8           0        0.034253    2.493933   -0.245452
     16          6           0       -0.563761    0.179503    0.165865
     17          6           0       -1.989309    0.424139    0.148423
     18          7           0       -2.448013    1.741915    0.047157
     19          1           0       -4.714549    0.136977   -0.723696
     20          1           0       -4.710472    0.347762    1.023497
     21          1           0       -4.971888   -1.258192    0.318013
     22          1           0       -3.158633   -2.753014    0.520070
     23          1           0       -0.710857   -3.227653    0.586125
     24          1           0        3.904653   -1.760762    0.437056
     25          1           0        5.611961    0.040108    0.157743
     26          1           0        4.847273    2.410316   -0.204560
     27          1           0        2.406949    2.908216   -0.284461
     28          1           0       -3.305726    1.856178   -0.477668
     29          1           0       -1.660091    2.368661   -0.198650
 ---------------------------------------------------------------------

 SCF Done:  E(UB3LYP) =  -783.634706354     A.U. after    5 cycles

 Alpha  occ. eigenvalues --  -18.79779 -18.78889 -14.06235  -9.96529  -9.95697
 Alpha  occ. eigenvalues --   -9.95289  -9.94763  -9.93624  -9.93555  -9.92780
 Alpha  occ. eigenvalues --   -9.92770  -9.92768  -9.92666  -9.91640  -9.91260
 Alpha  occ. eigenvalues --   -9.91167  -9.91085  -9.90860  -0.71571  -0.70607
 Alpha  occ. eigenvalues --   -0.66488  -0.60433  -0.58692  -0.54244  -0.51181
 Alpha  occ. eigenvalues --   -0.50261  -0.47875  -0.45410  -0.40780  -0.38240
 Alpha  occ. eigenvalues --   -0.36660  -0.33263  -0.30592  -0.29821  -0.27090
 Alpha  occ. eigenvalues --   -0.25539  -0.22796  -0.21513  -0.21208  -0.20439
 Alpha  occ. eigenvalues --   -0.19380  -0.19070  -0.17856  -0.17795  -0.15284
 Alpha  occ. eigenvalues --   -0.14700  -0.14083  -0.13366  -0.12746  -0.12100
 Alpha  occ. eigenvalues --   -0.10435  -0.09710  -0.09459  -0.08152  -0.07611
 Alpha  occ. eigenvalues --   -0.05593  -0.00702   0.00406   0.01091   0.02319
 Alpha  occ. eigenvalues --    0.03489   0.03972   0.12697
 Alpha virt. eigenvalues --    0.14244   0.15717   0.16822   0.17489   0.18605
 Alpha virt. eigenvalues --    0.19074   0.20095   0.20112   0.20602   0.21918
 Alpha virt. eigenvalues --    0.22416   0.22445   0.23734   0.24729   0.24931

  Beta  occ. eigenvalues --  -18.79779 -18.78889 -14.06235  -9.96529  -9.95697
  Beta  occ. eigenvalues --   -9.95289  -9.94763  -9.93624  -9.93555  -9.92780
  Beta  occ. eigenvalues --   -9.92770  -9.92768  -9.92666  -9.91640  -9.91260
  Beta  occ. eigenvalues --   -9.91167  -9.91085  -9.90860  -0.71571  -0.70607
  Beta  occ. eigenvalues --   -0.66488  -0.60433  -0.58692  -0.54244  -0.51181
  Beta  occ. eigenvalues --   -0.50261  -0.47875  -0.45410  -0.40780  -0.38240
  Beta  occ. eigenvalues --   -0.36660  -0.33263  -0.30592  -0.29821  -0.27090
  Beta  occ. eigenvalues --   -0.25539  -0.22796  -0.21513  -0.21208  -0.20439
  Beta  occ. eigenvalues --   -0.19380  -0.19070  -0.17856  -0.17795  -0.15284
  Beta  occ. eigenvalues --   -0.14700  -0.14083  -0.13366  -0.12746  -0.12100
  Beta  occ. eigenvalues --   -0.10435  -0.09710  -0.09459  -0.08152  -0.07611
  Beta  occ. eigenvalues --   -0.05593  -0.00702   0.00406   0.01091   0.02319
  Beta  occ. eigenvalues --    0.03489   0.03972   0.12697
  Beta virt. eigenvalues --    0.14244   0.15717   0.16822   0.17489   0.18605
  Beta virt. eigenvalues --    0.19074   0.20095   0.20112   0.20602   0.21918
  Beta virt. eigenvalues --    0.22416   0.22445   0.23734   0.24729   0.24931

 Mulliken charges and spin densities:
               1          2
     1  C    1.530955   0.000000
     2  C   -1.103050  -0.000000
     3  C   -0.258447   0.000000
     4  C    0.126319   0.000000
     5  C    0.599639  -0.000000
     6  C   -0.886938   0.000000
     7  O   -0.482001   0.000000
     8  C    0.231551  -0.000000
     9  C    0.005269   0.000000
    10  C   -0.422340   0.000000
    11  C   -0.529878  -0.000000
    12  C    0.074699   0.000000
    13  C    0.305847   0.000000
    14  C   -0.633708   0.000000
    15  O   -0.488342   0.000000
    16  C    0.074570  -0.000000
    17  C   -0.058582  -0.000000
    18  N   -0.417592  -0.000000
    19  H   -0.294622  -0.000000
    20  H    0.085913  -0.000000
    21  H   -0.536607  -0.000000
    22  H    0.053311   0.000000
    23  H    0.130012  -0.000000
    24  H    0.127990   0.000000
    25  H    0.076437  -0.000000
    26  H    0.076186  -0.000000
    27  H    0.130461  -0.000000
    28  H    0.181379   0.000000
    29  H    0.301564  -0.000000
 Sum of Mulliken charges =  -2.00000  -0.00000

 Dipole moment (field-independent basis, Debye):
    X=             -0.3198    Y=              2.2989    Z=             -1.4681  Tot=              2.7464
 Quadrupole moment (field-independent basis, Debye-Ang):
   XX=           -208.4627   YY=           -164.3331   ZZ=           -124.7367
   XY=             -0.6002   XZ=             -4.2217   YZ=              4.2478

  Exact polarizability:2276.765 253.076 570.674 106.259 -88.897 272.316
 Approx polarizability:5502.269 426.298 694.356 495.667 -42.004 341.748

                      1                      2                      3
                      A                      A                      A
 Frequencies --     50.9092                85.3252               126.2846
 Red. masses --      5.5814                 4.3078                 4.2108
 Frc consts  --      0.0085                 0.0185                 0.0396
 IR Inten    --      1.1710                 0.3056                 9.5127

                      4                      5                      6
                      A                      A                      A
 Frequencies --    134.5857               184.0509               201.5618
 Red. masses --      4.4236                 6.4120                 3.0915
 Frc consts  --      0.0472                 0.1280                 0.0740
 IR Inten    --      0.3105                 1.0103                29.4259

                      7                      8                      9
                      A                      A                      A
 Frequencies --    212.1392               260.4139               280.5455
 Red. masses --      1.2745                 3.6628                 4.3149
 Frc consts  --      0.0338                 0.1463                 0.2001
 IR Inten    --     81.4664                30.3889                43.9596

                     10                     11                     12
                      A                      A                      A
 Frequencies --    293.0818               332.1193               343.4531
 Red. masses --      4.1306                 6.3530                 4.1931
 Frc consts  --      0.2090                 0.4129                 0.2914
 IR Inten    --      2.1593               131.0066                14.2509

                     13                     14                     15
                      A                      A                      A
 Frequencies --    379.3096               403.7147               409.2351
 Red. masses --      4.7430                 7.3632                 5.6586
 Frc consts  --      0.4021                 0.7071                 0.5584
 IR Inten    --     87.7794                 0.9697                 9.5427

                     16                     17                     18
                      A                      A                      A
 Frequencies --    433.7845               449.9644               476.9377
 Red. masses --      1.8189                 2.7042                 3.9684
 Frc consts  --      0.2017                 0.3226                 0.5319
 IR Inten    --    143.4923                31.7362                96.7352

                     19                     20                     21
                      A                      A                      A
 Frequencies --    481.8209               508.0106               562.0177
 Red. masses --      6.4618                 4.1423                 5.6746
 Frc consts  --      0.8838                 0.6299                 1.0561
 IR Inten    --    711.3297                34.4738                66.7707

                     22                     23                     24
                      A                      A                      A
 Frequencies --    577.2627               595.4646               646.8220
 Red. masses --      4.3715                 4.7248                 4.9232
 Frc consts  --      0.8583                 0.9871                 1.2136
 IR Inten    --     49.4351                 7.5848                10.3735

                     25                     26                     27
                      A                      A                      A
 Frequencies --    657.8167               684.3184               689.0120
 Red. masses --      6.3260                 5.3717                 1.8210
 Frc consts  --      1.6128                 1.4821                 0.5093
 IR Inten    --     22.3914                28.2745                69.9745

                     28                     29                     30
                      A                      A                      A
 Frequencies --    732.2002               746.1844               750.6808
 Red. masses --      2.8677                 1.7989                 5.3471
 Frc consts  --      0.9058                 0.5901                 1.7753
 IR Inten    --     11.4114                 7.2465                 8.0990

                     31                     32                     33
                      A                      A                      A
 Frequencies --    774.2896               790.5778               812.4146
 Red. masses --      2.4118                 1.6256                 4.9071
 Frc consts  --      0.8519                 0.5986                 1.9082
 IR Inten    --     29.8948                22.8489                29.0663

                     34                     35                     36
                      A                      A                      A
 Frequencies --    832.1139               884.0874               899.4152
 Red. masses --      4.3930                 1.5224                 4.7652
 Frc consts  --      1.7921                 0.7011                 2.2712
 IR Inten    --      3.1619                50.5296                 1.4297

                     37                     38                     39
                      A                      A                      A
 Frequencies --    936.1436               955.2188               958.5687
 Red. masses --      1.2849                 1.2467                 1.9891
 Frc consts  --      0.6634                 0.6702                 1.0768
 IR Inten    --      8.8109                 4.9570               209.7377

                     40                     41                     42
                      A                      A                      A
 Frequencies --    960.8937              1002.0758              1017.8452
 Red. masses --      1.3727                 3.0424                 2.0298
 Frc consts  --      0.7467                 1.8000                 1.2390
 IR Inten    --      5.0343                57.5093               661.7812

                     43                     44                     45
                      A                      A                      A
 Frequencies --   1043.5649              1047.4002              1097.4126
 Red. masses --      2.1215                 1.6558                 1.9858
 Frc consts  --      1.3612                 1.0703                 1.4090
 IR Inten    --    449.0346               133.6788                31.9994

                     46                     47                     48
                      A                      A                      A
 Frequencies --   1125.0821              1153.8185              1171.2833
 Red. masses --      1.3860                 1.4389                 2.5072
 Frc consts  --      1.0337                 1.1286                 2.0266
 IR Inten    --    234.7014                39.0721               640.4792

                     49                     50                     51
                      A                      A                      A
 Frequencies --   1195.1031              1218.5469              1226.3078
 Red. masses --      1.8885                 2.8763                 2.8453
 Frc consts  --      1.5892                 2.5164                 2.5210
 IR Inten    --     96.9609                13.6902               555.0854

                     52                     53                     54
                      A                      A                      A
 Frequencies --   1249.9592              1266.9559              1321.5219
 Red. masses --      2.3732                 3.1287                 4.5583
 Frc consts  --      2.1847                 2.9589                 4.6903
 IR Inten    --    302.9515               825.2749              1556.9183

                     55                     56                     57
                      A                      A                      A
 Frequencies --   1350.4770              1354.8433              1374.7044
 Red. masses --      3.3543                 3.3600                 2.7364
 Frc consts  --      3.6044                 3.6338                 3.0468
 IR Inten    --    122.3709                22.6921               394.4681

                     58                     59                     60
                      A                      A                      A
 Frequencies --   1395.0922              1433.2990              1443.6162
 Red. masses --      1.4687                 3.7846                 4.6374
 Frc consts  --      1.6842                 4.5808                 5.6942
 IR Inten    --    421.5342               389.1550              1794.1327

                     61                     62                     63
                      A                      A                      A
 Frequencies --   1463.3641              1476.3655              1484.5001
 Red. masses --      2.6195                 1.0602                 3.7868
 Frc consts  --      3.3050                 1.3616                 4.9169
 IR Inten    --    256.5635               163.3449               834.4820

                     64                     65                     66
                      A                      A                      A
 Frequencies --   1487.1845              1491.3824              1528.3881
 Red. masses --      2.6504                 1.4555                 4.2144
 Frc consts  --      3.4538                 1.9074                 5.8004
 IR Inten    --    392.4247               340.5256               122.5106

                     67                     68                     69
                      A                      A                      A
 Frequencies --   1560.4171              1585.1965              1589.2111
 Red. masses --      5.4850                 5.3193                 2.6095
 Frc consts  --      7.8688                 7.8754                 3.8831
 IR Inten    --   3176.3603                86.2552               283.6810

                     70                     71                     72
                      A                      A                      A
 Frequencies --   1617.0041              2873.1613              2991.5628
 Red. masses --      1.7658                 1.0679                 1.0675
 Frc consts  --      2.7202                 5.1939                 5.6285
 IR Inten    --     31.1558               119.3594               640.8523

                     73                     74                     75
                      A                      A                      A
 Frequencies --   3049.6921              3091.7377              3097.8697
 Red. masses --      1.0960                 1.0826                 1.0867
 Frc consts  --      6.0058                 6.0971                 6.1443
 IR Inten    --      1.6978                39.9475               265.9255

                     76                     77                     78
                      A                      A                      A
 Frequencies --   3115.3661              3118.9028              3157.8083
 Red. masses --      1.0906                 1.0730                 1.0907
 Frc consts  --      6.2363                 6.1498                 6.4078
 IR Inten    --    378.1858               475.9924               114.4920

                     79                     80                     81
                      A                      A                      A
 Frequencies --   3164.0016              3171.7427              3556.1401
 Red. masses --      1.0909                 1.0905                 1.0800
 Frc consts  --      6.4343                 6.4634                 8.0467
 IR Inten    --    151.4869                39.1533               242.5634

 - Thermochemistry -
 -------------------
 Temperature   298.150 Kelvin.  Pressure   1.00000 Atm.
 Atom     1 has atomic number  6 and mass  12.00000

 Molecular mass:   237.07898 amu.
 Principal axes and moments of inertia in atomic units:
                           1         2         3
     Eigenvalues --  2081.226105646.399027713.07843
           X            0.99275  -0.12016   0.00349
           Y            0.11845   0.98272   0.14224
           Z           -0.02052  -0.14079   0.98983
 This molecule is an asymmetric top.
 Rotational symmetry number  1.
 Warning -- assumption of classical behavior for rotation
           may cause significant error
 Rotational temperatures (Kelvin)      0.04162     0.01534     0.01123
 Rotational constants (GHZ):           0.86715     0.31963     0.23398
 Zero-point vibrational energy     572130.0 (Joules/Mol)
                                  136.74234 (Kcal/Mol)
 Warning -- explicit consideration of  23 degrees of freedom as
           vibrations may cause significant error
 Vibrational temperatures:     73.25   122.76   181.70   193.64   264.81
          (Kelvin)            290.00   305.22   374.68   403.64   421.68
                              477.85   494.15   545.74   580.86   588.80
                              624.12   647.40   686.21   693.23   730.91
                              808.62   830.55   856.74   930.63   946.45
                              984.58   991.33  1053.47  1073.59  1080.06
                             1114.03  1137.47  1168.88  1197.23  1272.00
                             1294.06  1346.90  1374.35  1379.17  1382.51
                             1441.76  1464.45  1501.46  1506.98  1578.93
                             1618.74  1660.09  1685.22  1719.49  1753.22
                             1764.38  1798.41  1822.87  1901.38  1943.04
                             1949.32  1977.89  2007.23  2062.20  2077.04
                             2105.45  2124.16  2135.86  2139.73  2145.77
                             2199.01  2245.09  2280.74  2286.52  2326.51
                             4133.84  4304.19  4387.83  4448.32  4457.14
                             4482.32  4487.41  4543.38  4552.29  4563.43
                             5116.49

 Zero-point correction=                           0.217913 (Hartree/Particle)
 Thermal correction to Energy=                    0.231961
 Thermal correction to Enthalpy=                  0.232906
 Thermal correction to Gibbs Free Energy=         0.177834
 Sum of electronic and zero-point Energies=           -783.416794
 Sum of electronic and thermal Energies=              -783.402745
 Sum of electronic and thermal Enthalpies=            -783.401801
 Sum of electronic and thermal Free Energies=         -783.456872

                     E (Thermal)             CV                S
                      KCal/Mol        Cal/Mol-Kelvin    Cal/Mol-Kelvin
 Total                  145.558             57.806            115.907
 Electronic               0.000              0.000              0.000
 Translational            0.889              2.981             42.291
 Rotational               0.889              2.981             32.872
 Vibrational            143.781             51.844             40.745
 Vibration     1          0.595              1.977              4.782
 Vibration     2          0.601              1.959              3.764
 Vibration     3          0.611              1.927              3.002
 Vibration     4          0.613              1.919              2.879
 Vibration     5          0.631              1.862              2.287
 Vibration     6          0.638              1.838              2.119
 Vibration     7          0.643              1.822              2.025
 Vibration     8          0.668              1.745              1.659
 Vibration     9          0.680              1.710              1.530
 Vibration    10          0.688              1.687              1.456
 Vibration    11          0.714              1.611              1.250
 Vibration    12          0.722              1.589              1.196
 Vibration    13          0.749              1.514              1.042
 Vibration    14          0.769              1.462              0.949
 Vibration    15          0.774              1.450              0.929
 Vibration    16          0.795              1.397              0.846
 Vibration    17          0.809              1.361              0.796
 Vibration    18          0.834              1.301              0.718
 Vibration    19          0.838              1.290              0.705
 Vibration    20          0.863              1.232              0.638
 Vibration    21          0.918              1.113              0.520
 Vibration    22          0.934              1.080              0.490
 Vibration    23          0.953              1.041              0.458

 Optimization completed.
    -- Stationary point found.
 Normal termination of Gaussian 16 at Wed Dec 27 22:15:32 2023.
