 Q-Chem 5.4, Q-Chem, Inc., Pleasanton, CA (2021)
 Q-Chem 5.4.0 for Intel X86 EM64T Linux

User input:
--------------------------------------------------------------
$molecule
-2 1
C                 -4.3907040000     -0.3345420000      0.2255640000
C                 -2.9119630000     -0.6183720000      0.2709140000
C                 -2.4339250000     -1.9461350000      0.4179930000
C                 -1.0859490000     -2.2183410000      0.4587290000
C                 -0.1182010000     -1.1881220000      0.3468710000
C                  1.2836640000     -1.5625880000      0.4037310000
O                  1.6679530000     -2.7727380000      0.5792820000
C                  2.2173040000     -0.4697280000      0.2416270000
C                  3.6104900000     -0.7275130000      0.2795120000
C                  4.5488290000      0.2722720000      0.1239280000
C                  4.1156600000      1.6132130000     -0.0825750000
C                  2.7664290000      1.8963560000     -0.1274350000
C                  1.7762660000      0.8906320000      0.0294230000
C                  0.3823580000      1.2575190000     -0.0255980000
O                  0.0342530000      2.4939330000     -0.2454520000
C                 -0.5637610000      0.1795030000      0.1658650000
C                 -1.9893090000      0.4241390000      0.1484230000
N                 -2.4480130000      1.7419150000      0.0471570000
H                 -4.7145490000      0.1369770000     -0.7236960000
H                 -4.7104720000      0.3477620000      1.0234970000
H                 -4.9718880000     -1.2581920000      0.3180130000
H                 -3.1586330000     -2.7530140000      0.5200700000
H                 -0.7108570000     -3.2276530000      0.5861250000
H                  3.9046530000     -1.7607620000      0.4370560000
H                  5.6119610000      0.0401080000      0.1577430000
H                  4.8472730000      2.4103160000     -0.2045600000
H                  2.4069490000      2.9082160000     -0.2844610000
H                 -3.3057260000      1.8561780000     -0.4776680000
H                 -1.6600910000      2.3686610000     -0.1986500000
$end
$rem
MAX_SCF_CYCLES=200
BASIS  =  6-311++G(d,p)
GUI  =  2
JOB_TYPE  =  SP
METHOD  =  B3LYP
SOLVENT_METHOD = PCM
$end
$pcm
theory = CPCM
$end
$solvent
dielectric 37.219
opticaldielectric 1.43
$end

--------------------------------------------------------------

             Standard Nuclear Orientation (Angstroms)
    I     Atom           X                Y                Z
 ----------------------------------------------------------------
    1      C      -4.3907040000    -0.3345420000     0.2255640000
    2      C      -2.9119630000    -0.6183720000     0.2709140000
    3      C      -2.4339250000    -1.9461350000     0.4179930000
    4      C      -1.0859490000    -2.2183410000     0.4587290000
    5      C      -0.1182010000    -1.1881220000     0.3468710000
    6      C       1.2836640000    -1.5625880000     0.4037310000
    7      O       1.6679530000    -2.7727380000     0.5792820000
    8      C       2.2173040000    -0.4697280000     0.2416270000
    9      C       3.6104900000    -0.7275130000     0.2795120000
   10      C       4.5488290000     0.2722720000     0.1239280000
   11      C       4.1156600000     1.6132130000    -0.0825750000
   12      C       2.7664290000     1.8963560000    -0.1274350000
   13      C       1.7762660000     0.8906320000     0.0294230000
   14      C       0.3823580000     1.2575190000    -0.0255980000
   15      O       0.0342530000     2.4939330000    -0.2454520000
   16      C      -0.5637610000     0.1795030000     0.1658650000
   17      C      -1.9893090000     0.4241390000     0.1484230000
   18      N      -2.4480130000     1.7419150000     0.0471570000
   19      H      -4.7145490000     0.1369770000    -0.7236960000
   20      H      -4.7104720000     0.3477620000     1.0234970000
   21      H      -4.9718880000    -1.2581920000     0.3180130000
   22      H      -3.1586330000    -2.7530140000     0.5200700000
   23      H      -0.7108570000    -3.2276530000     0.5861250000
   24      H       3.9046530000    -1.7607620000     0.4370560000
   25      H       5.6119610000     0.0401080000     0.1577430000
   26      H       4.8472730000     2.4103160000    -0.2045600000
   27      H       2.4069490000     2.9082160000    -0.2844610000
   28      H      -3.3057260000     1.8561780000    -0.4776680000
   29      H      -1.6600910000     2.3686610000    -0.1986500000
 ----------------------------------------------------------------

    9    -783.9018357643      2.99e-06  Convergence criterion met
 Total energy in the final basis set =     -783.9018357643

                    Orbital Energies (a.u.)
 --------------------------------------------------------------

 Alpha MOs
 -- Occupied --
-19.0276 -19.0224 -14.2786 -10.1841 -10.1780 -10.1736 -10.1511 -10.1482
-10.1478 -10.1456 -10.1456 -10.1434 -10.1427 -10.1414 -10.1355 -10.1344
-10.1341 -10.1321  -0.9471  -0.9417  -0.8838  -0.8249  -0.8067  -0.7592
 -0.7265  -0.7225  -0.6996  -0.6675  -0.6288  -0.6005  -0.5840  -0.5511
 -0.5271  -0.5153  -0.4879  -0.4708  -0.4455  -0.4378  -0.4266  -0.4137
 -0.4071  -0.4024  -0.3973  -0.3881  -0.3797  -0.3685  -0.3643  -0.3532
 -0.3469  -0.3412  -0.3305  -0.3231  -0.3147  -0.3056  -0.3009  -0.2807
 -0.2302  -0.2274  -0.2127  -0.2089  -0.1997  -0.1859  -0.1053

          Ground-State Mulliken Net Atomic Charges

     Atom                 Charge (a.u.)
  ----------------------------------------
      1 C                    -0.501176
      2 C                     0.532739
      3 C                    -0.882294
      4 C                    -0.252150
      5 C                     0.458331
      6 C                    -0.519895
      7 O                    -0.679707
      8 C                     0.074751
      9 C                     0.001444
     10 C                    -0.513361
     11 C                    -0.580344
     12 C                     0.045715
     13 C                     0.125522
     14 C                    -0.423115
     15 O                    -0.653777
     16 C                     0.103127
     17 C                     0.157172
     18 N                    -0.476461
     19 H                     0.163563
     20 H                     0.164011
     21 H                     0.164762
     22 H                     0.137799
     23 H                     0.138903
     24 H                     0.141289
     25 H                     0.171216
     26 H                     0.170371
     27 H                     0.148467
     28 H                     0.255155
     29 H                     0.327942
  ----------------------------------------
  Sum of atomic charges =    -2.000000

                    Cartesian Multipole Moments
 -----------------------------------------------------------------
    Charge (ESU x 10^10)
                -9.6064
    Dipole Moment (Debye)
         X      -8.4477      Y       2.6692      Z      -3.1679
       Tot       9.4087
    Quadrupole Moments (Debye-Ang)
        XX    -138.8455     XY      11.1543     YY    -163.9130
        XZ       0.9549     YZ       4.7709     ZZ    -120.6566

 Total job time:  208.90s(wall), 397.90s(cpu)
        *  Thank you very much for using Q-Chem.  Have a nice day.  *
