 Gaussian 16, Revision A.03,
 Gaussian 16:  ES64L-G16RevA.03 25-Dec-2016

 --------------------------------------
 #P UB3LYP/6-311++G(d,p) nosym opt freq
 --------------------------------------

 -------
 Reduced
 -------
 Symbolic Z-matrix:
 Charge = -3 Multiplicity = 1

 SCF Done:  E(UB3LYP) =  -1312.11022017     A.U. after   54 cycles
 SCF Done:  E(UB3LYP) =  -1312.11029850     A.U. after   29 cycles
 SCF Done:  E(UB3LYP) =  -1312.11030342     A.U. after   29 cycles
 SCF Done:  E(UB3LYP) =  -1312.11031611     A.U. after   26 cycles
 SCF Done:  E(UB3LYP) =  -1312.11032485     A.U. after   24 cycles
 SCF Done:  E(UB3LYP) =  -1312.11032717     A.U. after   25 cycles
 SCF Done:  E(UB3LYP) =  -1312.11032856     A.U. after   25 cycles
 SCF Done:  E(UB3LYP) =  -1312.11032979     A.U. after   25 cycles
 SCF Done:  E(UB3LYP) =  -1312.11033175     A.U. after   25 cycles
 SCF Done:  E(UB3LYP) =  -1312.11033230     A.U. after   31 cycles
 SCF Done:  E(UB3LYP) =  -1312.11033245     A.U. after   26 cycles
 SCF Done:  E(UB3LYP) =  -1312.11033246     A.U. after   24 cycles
 Optimization completed.
    -- Stationary point found.
 Normal termination of Gaussian 16 at Sun Jan  7 09:08:05 2024.

 ----------------------------------------------------------------------
 #P Geom=AllCheck Guess=TCheck SCRF=Check GenChk UB3LYP/6-311++G(d,p) F
 req
 ----------------------------------------------------------------------

 Structure from the checkpoint file:  "222-an.chk"
 -------
 Reduced
 -------
 Charge = -3 Multiplicity = 1

                          Input orientation:
 ---------------------------------------------------------------------
 Center     Atomic      Atomic             Coordinates (Angstroms)
 Number     Number       Type             X           Y           Z
 ---------------------------------------------------------------------
      1          8           0       -2.580716   -2.811559   -1.673171
      2         16           0       -3.029408   -2.349585   -0.334016
      3          8           0       -2.609956   -3.180222    0.824330
      4          8           0       -4.521751   -2.125411   -0.318487
      5          6           0       -2.330032   -0.616203   -0.070391
      6          6           0       -3.343544    0.323019    0.045478
      7          6           0       -3.064587    1.689901    0.248768
      8          6           0       -1.760296    2.112136    0.343190
      9          6           0       -0.684228    1.201908    0.234508
     10          6           0        0.654060    1.782093    0.353432
     11          8           0        0.827772    3.034741    0.550186
     12          6           0        1.759510    0.862572    0.215930
     13          6           0        3.096684    1.339039    0.273506
     14          6           0        4.178339    0.487506    0.172670
     15          6           0        3.957157   -0.902236    0.001049
     16          6           0        2.661311   -1.384033   -0.083305
     17          6           0        1.535781   -0.536002    0.003339
     18          6           0        0.190387   -1.135472   -0.113064
     19          8           0        0.061770   -2.363540   -0.300306
     20          6           0       -0.950107   -0.210932    0.013474
     21          1           0       -4.363494   -0.030403   -0.024590
     22          1           0       -3.886678    2.400643    0.332819
     23          1           0       -1.496506    3.152221    0.502703
     24          1           0        3.232522    2.407203    0.407263
     25          1           0        5.196909    0.873589    0.226567
     26          1           0        4.806793   -1.579474   -0.071300
     27          1           0        2.462310   -2.441499   -0.222722
 ---------------------------------------------------------------------

 SCF Done:  E(UB3LYP) =  -1312.11033246     A.U. after    4 cycles

 Alpha  occ. eigenvalues --  -88.70245 -18.74389 -18.74317 -18.74315 -18.73924
 Alpha  occ. eigenvalues --  -18.73220  -9.89580  -9.89266  -9.88033  -9.86967
 Alpha  occ. eigenvalues --   -9.86375  -9.86287  -9.86183  -9.86109  -9.85883
 Alpha  occ. eigenvalues --   -9.85766  -9.85561  -9.85548  -9.84975  -9.84930
 Alpha  occ. eigenvalues --   -7.76043  -5.72314  -5.72286  -5.72257  -0.75776
 Alpha  occ. eigenvalues --   -0.66232  -0.65537  -0.62511  -0.61752  -0.54066
 Alpha  occ. eigenvalues --   -0.53426  -0.46409  -0.43949  -0.43288  -0.42076
 Alpha  occ. eigenvalues --   -0.34494  -0.32604  -0.29965  -0.28883  -0.25289
 Alpha  occ. eigenvalues --   -0.22376  -0.21532  -0.20101  -0.15725  -0.14912
 Alpha  occ. eigenvalues --   -0.14438  -0.13853  -0.13241  -0.10967  -0.10427
 Alpha  occ. eigenvalues --   -0.10331  -0.08930  -0.08889  -0.08050  -0.07657
 Alpha  occ. eigenvalues --   -0.06102  -0.05113  -0.04731  -0.03600  -0.02935
 Alpha  occ. eigenvalues --   -0.01641  -0.01494   0.01206   0.01956   0.03589
 Alpha  occ. eigenvalues --    0.04689   0.05841   0.06196   0.06730   0.07059
 Alpha  occ. eigenvalues --    0.07388   0.08840   0.09540   0.10427   0.19927
 Alpha virt. eigenvalues --    0.21515   0.22148   0.23172   0.25233   0.26188
 Alpha virt. eigenvalues --    0.26407   0.27534   0.28396   0.29172   0.30313
 Alpha virt. eigenvalues --    0.31351   0.32199   0.32735   0.33103   0.33733

  Beta  occ. eigenvalues --  -88.70245 -18.74389 -18.74317 -18.74315 -18.73924
  Beta  occ. eigenvalues --  -18.73220  -9.89580  -9.89266  -9.88033  -9.86967
  Beta  occ. eigenvalues --   -9.86375  -9.86287  -9.86183  -9.86109  -9.85883
  Beta  occ. eigenvalues --   -9.85766  -9.85561  -9.85548  -9.84975  -9.84930
  Beta  occ. eigenvalues --   -7.76043  -5.72314  -5.72286  -5.72257  -0.75776
  Beta  occ. eigenvalues --   -0.66232  -0.65537  -0.62511  -0.61752  -0.54066
  Beta  occ. eigenvalues --   -0.53426  -0.46409  -0.43949  -0.43288  -0.42076
  Beta  occ. eigenvalues --   -0.34494  -0.32604  -0.29965  -0.28883  -0.25289
  Beta  occ. eigenvalues --   -0.22376  -0.21532  -0.20101  -0.15725  -0.14912
  Beta  occ. eigenvalues --   -0.14438  -0.13853  -0.13241  -0.10967  -0.10427
  Beta  occ. eigenvalues --   -0.10331  -0.08930  -0.08889  -0.08050  -0.07657
  Beta  occ. eigenvalues --   -0.06102  -0.05113  -0.04731  -0.03600  -0.02935
  Beta  occ. eigenvalues --   -0.01641  -0.01494   0.01206   0.01956   0.03589
  Beta  occ. eigenvalues --    0.04689   0.05841   0.06196   0.06730   0.07059
  Beta  occ. eigenvalues --    0.07388   0.08840   0.09540   0.10427   0.19927
  Beta virt. eigenvalues --    0.21515   0.22148   0.23172   0.25233   0.26188
  Beta virt. eigenvalues --    0.26407   0.27534   0.28396   0.29172   0.30313
  Beta virt. eigenvalues --    0.31351   0.32199   0.32735   0.33103   0.33733

 Mulliken charges and spin densities:
               1          2
     1  O   -0.348910  -0.000000
     2  S    0.510804  -0.000000
     3  O   -0.339812  -0.000000
     4  O   -0.413073  -0.000000
     5  C   -0.846379   0.000000
     6  C    0.525862  -0.000000
     7  C   -0.309075  -0.000000
     8  C   -0.390865   0.000000
     9  C    0.913475  -0.000000
    10  C   -0.814828   0.000000
    11  O   -0.456951  -0.000000
    12  C    0.836149  -0.000000
    13  C   -1.485443   0.000000
    14  C    2.459939  -0.000000
    15  C    1.464464  -0.000000
    16  C   -0.767420   0.000000
    17  C    0.467786  -0.000000
    18  C   -0.863824  -0.000000
    19  O   -0.278756  -0.000000
    20  C    0.271431  -0.000000
    21  H    0.206608  -0.000000
    22  H    0.079767   0.000000
    23  H    0.112861  -0.000000
    24  H    0.172775  -0.000000
    25  H   -2.604599   0.000000
    26  H   -1.377884   0.000000
    27  H    0.275901  -0.000000
 Sum of Mulliken charges =  -3.00000  -0.00000

 Dipole moment (field-independent basis, Debye):
    X=             -7.9634    Y=              9.3942    Z=              0.5047  Tot=             12.3256
 Quadrupole moment (field-independent basis, Debye-Ang):
   XX=           -376.7153   YY=           -231.5441   ZZ=           -157.6169
   XY=            -50.0553   XZ=            -10.3729   YZ=             -9.2872

  Exact polarizability:1686.493 -41.7051342.243   8.746  64.579 212.057
 Approx polarizability:9270.616-514.2491338.616  18.284  68.542 289.841

                      1                      2                      3
                      A                      A                      A
 Frequencies --     18.7551                49.4817                85.1010
 Red. masses --     10.9908                 7.6185                 9.4564
 Frc consts  --      0.0023                 0.0110                 0.0404
 IR Inten    --      6.0176                 0.0423                 3.2452

                      4                      5                      6
                      A                      A                      A
 Frequencies --    120.2277               125.3119               163.6324
 Red. masses --     10.4571                 4.4225                 6.5566
 Frc consts  --      0.0891                 0.0409                 0.1034
 IR Inten    --      2.9550                 4.4202                 2.7728

                      7                      8                      9
                      A                      A                      A
 Frequencies --    176.4685               204.0478               242.8295
 Red. masses --      8.5656                10.6354                 5.4608
 Frc consts  --      0.1572                 0.2609                 0.1897
 IR Inten    --     22.7482                 6.3474                34.3547

                     10                     11                     12
                      A                      A                      A
 Frequencies --    276.6682               289.8209               311.4824
 Red. masses --      9.2470                 9.1113                 6.5957
 Frc consts  --      0.4170                 0.4509                 0.3770
 IR Inten    --      1.1049                 0.7699                13.1765

                     13                     14                     15
                      A                      A                      A
 Frequencies --    344.3241               374.9532               391.0748
 Red. masses --      6.3137                10.2389                 9.5440
 Frc consts  --      0.4410                 0.8481                 0.8600
 IR Inten    --     49.9791                55.3877               108.2031

                     16                     17                     18
                      A                      A                      A
 Frequencies --    400.3846               440.5651               444.4108
 Red. masses --      6.8428                 3.4659                 8.1657
 Frc consts  --      0.6463                 0.3964                 0.9502
 IR Inten    --      7.6333                20.5586                95.3994

                     19                     20                     21
                      A                      A                      A
 Frequencies --    484.0719               494.2280               498.1069
 Red. masses --     12.3064                 6.3651                 5.5446
 Frc consts  --      1.6990                 0.9160                 0.8105
 IR Inten    --    256.8785                20.2110                 3.0397

                     22                     23                     24
                      A                      A                      A
 Frequencies --    511.0927               569.1332               597.5579
 Red. masses --     13.4779                 6.4234                15.2582
 Frc consts  --      2.0743                 1.2259                 3.2101
 IR Inten    --     50.4303                 4.2038               365.9952

                     25                     26                     27
                      A                      A                      A
 Frequencies --    612.6068               642.3795               651.4829
 Red. masses --      6.5312                 4.9860                 7.4204
 Frc consts  --      1.4441                 1.2122                 1.8556
 IR Inten    --     19.4450                11.5775                27.2773

                     28                     29                     30
                      A                      A                      A
 Frequencies --    688.3810               705.5772               730.6080
 Red. masses --      7.1061                 2.8462                 7.5328
 Frc consts  --      1.9840                 0.8348                 2.3691
 IR Inten    --     65.9886                 3.4435                35.8441

                     31                     32                     33
                      A                      A                      A
 Frequencies --    735.3574               767.4960               812.4421
 Red. masses --      5.8902                 1.7918                 6.7665
 Frc consts  --      1.8766                 0.6219                 2.6315
 IR Inten    --      7.9511                35.4320                60.3974

                     34                     35                     36
                      A                      A                      A
 Frequencies --    812.9589               861.2627               902.9025
 Red. masses --      4.3799                 1.4630                 1.4124
 Frc consts  --      1.7055                 0.6394                 0.6784
 IR Inten    --      1.0633                50.9081                39.1734

                     37                     38                     39
                      A                      A                      A
 Frequencies --    906.7201               924.1069               934.0224
 Red. masses --      1.3534                 6.9383                 8.8877
 Frc consts  --      0.6556                 3.4910                 4.5683
 IR Inten    --     18.7635                48.4951               183.9876

                     40                     41                     42
                      A                      A                      A
 Frequencies --    959.8908               960.3992              1001.1035
 Red. masses --      3.7857                 1.6508                 1.2460
 Frc consts  --      2.0552                 0.8971                 0.7358
 IR Inten    --    442.4870               143.7726                31.1376

                     43                     44                     45
                      A                      A                      A
 Frequencies --   1021.4731              1067.0069              1095.8669
 Red. masses --      2.1241                 3.1259                 4.6777
 Frc consts  --      1.3058                 2.0968                 3.3098
 IR Inten    --    132.8048               393.2420                58.3680

                     46                     47                     48
                      A                      A                      A
 Frequencies --   1099.0545              1108.3445              1128.6897
 Red. masses --      2.3457                 2.4877                 1.7218
 Frc consts  --      1.6694                 1.8005                 1.2923
 IR Inten    --     63.2878               175.3654                21.7479

                     49                     50                     51
                      A                      A                      A
 Frequencies --   1155.9617              1163.7892              1165.6055
 Red. masses --      1.9446                 2.3610                 2.3406
 Frc consts  --      1.5310                 1.8841                 1.8737
 IR Inten    --    368.0144               327.9644              1834.0067

                     52                     53                     54
                      A                      A                      A
 Frequencies --   1176.7614              1189.7584              1222.6499
 Red. masses --      1.6711                 2.0646                 2.3272
 Frc consts  --      1.3634                 1.7219                 2.0497
 IR Inten    --    302.2719                66.3789               155.5559

                     55                     56                     57
                      A                      A                      A
 Frequencies --   1238.2783              1296.8463              1336.7657
 Red. masses --      2.1814                 5.6483                 2.8022
 Frc consts  --      1.9707                 5.5968                 2.9502
 IR Inten    --    173.6072                52.6016                35.8049

                     58                     59                     60
                      A                      A                      A
 Frequencies --   1353.1644              1362.7990              1418.3676
 Red. masses --      9.0036                 3.4042                 2.5847
 Frc consts  --      9.7133                 3.7250                 3.0636
 IR Inten    --    447.2047               180.3960               671.9126

                     61                     62                     63
                      A                      A                      A
 Frequencies --   1462.8269              1466.2938              1473.0775
 Red. masses --      3.3109                 2.6897                 4.1262
 Frc consts  --      4.1743                 3.4071                 5.2753
 IR Inten    --    165.5334                53.7137              1401.5458

                     64                     65                     66
                      A                      A                      A
 Frequencies --   1536.5673              1546.5639              1562.3007
 Red. masses --      5.5023                 6.3232                 6.3713
 Frc consts  --      7.6541                 8.9109                 9.1624
 IR Inten    --    450.3875                86.8323              2195.0197

                     67                     68                     69
                      A                      A                      A
 Frequencies --   1590.4634              1608.1881              3087.2202
 Red. masses --      5.2139                 6.9663                 1.0863
 Frc consts  --      7.7708                10.6152                 6.1002
 IR Inten    --     32.6208               788.4577               268.3662

                     70                     71                     72
                      A                      A                      A
 Frequencies --   3094.9249              3118.2500              3160.7996
 Red. masses --      1.0861                 1.0916                 1.0903
 Frc consts  --      6.1293                 6.2534                 6.4177
 IR Inten    --    831.2394               141.0512                11.7202

                     73                     74                     75
                      A                      A                      A
 Frequencies --   3164.7235              3164.9987              3192.6023
 Red. masses --      1.0905                 1.0905                 1.0892
 Frc consts  --      6.4352                 6.4360                 6.5410
 IR Inten    --     27.2073                76.6359                 5.3052

 - Thermochemistry -
 -------------------
 Temperature   298.150 Kelvin.  Pressure   1.00000 Atm.
 Atom     1 has atomic number  8 and mass  15.99491

 Molecular mass:   287.00142 amu.
 Principal axes and moments of inertia in atomic units:
                           1         2         3
     Eigenvalues --  3001.756377713.28600**********
           X            0.91517  -0.40277  -0.01521
           Y            0.39641   0.90626  -0.14682
           Z            0.07292   0.12834   0.98905
 This molecule is an asymmetric top.
 Rotational symmetry number  1.
 Warning -- assumption of classical behavior for rotation
           may cause significant error
 Rotational temperatures (Kelvin)      0.02885     0.01123     0.00837
 Rotational constants (GHZ):           0.60123     0.23398     0.17436
 Zero-point vibrational energy     466869.1 (Joules/Mol)
                                  111.58438 (Kcal/Mol)
 Warning -- explicit consideration of  25 degrees of freedom as
           vibrations may cause significant error
 Vibrational temperatures:     26.98    71.19   122.44   172.98   180.30
          (Kelvin)            235.43   253.90   293.58   349.38   398.06
                              416.99   448.15   495.41   539.47   562.67
                              576.06   633.87   639.41   696.47   711.08
                              716.66   735.35   818.86   859.75   881.40
                              924.24   937.34   990.43  1015.17  1051.18
                             1058.02  1104.26  1168.92  1169.67  1239.16
                             1299.08  1304.57  1329.58  1343.85  1381.07
                             1381.80  1440.36  1469.67  1535.18  1576.71
                             1581.29  1594.66  1623.93  1663.17  1674.43
                             1677.05  1693.10  1711.80  1759.12  1781.61
                             1865.87  1923.31  1946.90  1960.76  2040.71
                             2104.68  2109.67  2119.43  2210.78  2225.16
                             2247.80  2288.32  2313.82  4441.82  4452.91
                             4486.47  4547.69  4553.33  4553.73  4593.44

 Zero-point correction=                           0.177821 (Hartree/Particle)
 Thermal correction to Energy=                    0.193056
 Thermal correction to Enthalpy=                  0.194000
 Thermal correction to Gibbs Free Energy=         0.134297
 Sum of electronic and zero-point Energies=          -1311.932511
 Sum of electronic and thermal Energies=             -1311.917277
 Sum of electronic and thermal Enthalpies=           -1311.916333
 Sum of electronic and thermal Free Energies=        -1311.976036

                     E (Thermal)             CV                S
                      KCal/Mol        Cal/Mol-Kelvin    Cal/Mol-Kelvin
 Total                  121.144             60.318            125.655
 Electronic               0.000              0.000              0.000
 Translational            0.889              2.981             42.861
 Rotational               0.889              2.981             33.838
 Vibrational            119.367             54.356             48.957
 Vibration     1          0.593              1.986              6.762
 Vibration     2          0.595              1.978              4.838
 Vibration     3          0.601              1.960              3.770
 Vibration     4          0.609              1.932              3.097
 Vibration     5          0.610              1.928              3.017
 Vibration     6          0.623              1.887              2.507
 Vibration     7          0.628              1.871              2.365
 Vibration     8          0.640              1.834              2.096
 Vibration     9          0.659              1.775              1.782
 Vibration    10          0.678              1.717              1.554
 Vibration    11          0.686              1.693              1.475
 Vibration    12          0.700              1.652              1.354
 Vibration    13          0.723              1.587              1.192
 Vibration    14          0.746              1.523              1.059
 Vibration    15          0.759              1.489              0.996
 Vibration    16          0.766              1.469              0.961
 Vibration    17          0.800              1.382              0.825
 Vibration    18          0.804              1.373              0.813
 Vibration    19          0.840              1.285              0.699
 Vibration    20          0.850              1.263              0.673
 Vibration    21          0.854              1.254              0.663
 Vibration    22          0.866              1.225              0.631
 Vibration    23          0.925              1.098              0.506
 Vibration    24          0.955              1.037              0.454
 Vibration    25          0.972              1.005              0.428

 Optimization completed.
    -- Stationary point found.
 Normal termination of Gaussian 16 at Sun Jan  7 10:15:57 2024.
