 Q-Chem 5.4, Q-Chem, Inc., Pleasanton, CA (2021)
 Q-Chem 5.4.0 for Intel X86 EM64T Linux

User input:
--------------------------------------------------------------
$molecule
-3 1
O                 -2.5807160000     -2.8115590000     -1.6731710000
S                 -3.0294080000     -2.3495850000     -0.3340160000
O                 -2.6099560000     -3.1802220000      0.8243300000
O                 -4.5217510000     -2.1254110000     -0.3184870000
C                 -2.3300320000     -0.6162030000     -0.0703910000
C                 -3.3435440000      0.3230190000      0.0454780000
C                 -3.0645870000      1.6899010000      0.2487680000
C                 -1.7602960000      2.1121360000      0.3431900000
C                 -0.6842280000      1.2019080000      0.2345080000
C                  0.6540600000      1.7820930000      0.3534320000
O                  0.8277720000      3.0347410000      0.5501860000
C                  1.7595100000      0.8625720000      0.2159300000
C                  3.0966840000      1.3390390000      0.2735060000
C                  4.1783390000      0.4875060000      0.1726700000
C                  3.9571570000     -0.9022360000      0.0010490000
C                  2.6613110000     -1.3840330000     -0.0833050000
C                  1.5357810000     -0.5360020000      0.0033390000
C                  0.1903870000     -1.1354720000     -0.1130640000
O                  0.0617700000     -2.3635400000     -0.3003060000
C                 -0.9501070000     -0.2109320000      0.0134740000
H                 -4.3634940000     -0.0304030000     -0.0245900000
H                 -3.8866780000      2.4006430000      0.3328190000
H                 -1.4965060000      3.1522210000      0.5027030000
H                  3.2325220000      2.4072030000      0.4072630000
H                  5.1969090000      0.8735890000      0.2265670000
H                  4.8067930000     -1.5794740000     -0.0713000000
H                  2.4623100000     -2.4414990000     -0.2227220000
$end

$rem
Scf_algorithm RCA_DIIS
BASIS  =  6-311++G(d,p)
GUI  =  2
JOB_TYPE  =  SP
METHOD  =  B3LYP
SCF_CONVERGENCE  = 8
SOLVENT_METHOD = sm12
$end

$smx
solvent dimethylformamide
charges CM5
$end

--------------------------------------------------------------

             Standard Nuclear Orientation (Angstroms)
    I     Atom           X                Y                Z
 ----------------------------------------------------------------
    1      O      -2.5807160000    -2.8115590000    -1.6731710000
    2      S      -3.0294080000    -2.3495850000    -0.3340160000
    3      O      -2.6099560000    -3.1802220000     0.8243300000
    4      O      -4.5217510000    -2.1254110000    -0.3184870000
    5      C      -2.3300320000    -0.6162030000    -0.0703910000
    6      C      -3.3435440000     0.3230190000     0.0454780000
    7      C      -3.0645870000     1.6899010000     0.2487680000
    8      C      -1.7602960000     2.1121360000     0.3431900000
    9      C      -0.6842280000     1.2019080000     0.2345080000
   10      C       0.6540600000     1.7820930000     0.3534320000
   11      O       0.8277720000     3.0347410000     0.5501860000
   12      C       1.7595100000     0.8625720000     0.2159300000
   13      C       3.0966840000     1.3390390000     0.2735060000
   14      C       4.1783390000     0.4875060000     0.1726700000
   15      C       3.9571570000    -0.9022360000     0.0010490000
   16      C       2.6613110000    -1.3840330000    -0.0833050000
   17      C       1.5357810000    -0.5360020000     0.0033390000
   18      C       0.1903870000    -1.1354720000    -0.1130640000
   19      O       0.0617700000    -2.3635400000    -0.3003060000
   20      C      -0.9501070000    -0.2109320000     0.0134740000
   21      H      -4.3634940000    -0.0304030000    -0.0245900000
   22      H      -3.8866780000     2.4006430000     0.3328190000
   23      H      -1.4965060000     3.1522210000     0.5027030000
   24      H       3.2325220000     2.4072030000     0.4072630000
   25      H       5.1969090000     0.8735890000     0.2265670000
   26      H       4.8067930000    -1.5794740000    -0.0713000000
   27      H       2.4623100000    -2.4414990000    -0.2227220000
 ----------------------------------------------------------------

   33   -1312.1103714202      5.74E-09 Convergence criterion met
   18   -1311.8221555274      7.51E-09 Convergence criterion met
 Total energy in the final basis set = -1312.70901465

                    Orbital Energies (a.u.)
 --------------------------------------------------------------

 Alpha MOs
 -- Occupied --
-89.0860 -19.2244 -19.2215 -19.1289 -19.1287 -19.1265 -10.3973 -10.3817
-10.3795 -10.3750 -10.3744 -10.3598 -10.3587 -10.3576 -10.3045 -10.2960
-10.2907 -10.2687 -10.2639 -10.2626  -8.1440  -6.1067  -6.1065  -6.1063
 -1.1427  -1.1378  -1.1310  -1.0482  -1.0084  -0.9979  -0.9713  -0.9465
 -0.9439  -0.8727  -0.8569  -0.8306  -0.8048  -0.7634  -0.7435  -0.7101
 -0.6942  -0.6763  -0.6535  -0.6232  -0.6176  -0.6118  -0.6011  -0.5824
 -0.5732  -0.5464  -0.5439  -0.5381  -0.5290  -0.5273  -0.5231  -0.5055
 -0.5045  -0.4838  -0.4800  -0.4529  -0.4512  -0.4463  -0.4452  -0.4431
 -0.4216  -0.3790  -0.3716  -0.3645  -0.3603  -0.3558  -0.3513  -0.3365
 -0.3205  -0.3170  -0.2824

          Ground-State Mulliken Net Atomic Charges

     Atom                 Charge (a.u.)
  ----------------------------------------
      1 O                    -0.310599
      2 S                     0.705311
      3 O                    -0.311069
      4 O                    -0.140645
      5 C                     0.859808
      6 C                     5.668059
      7 C                     5.582127
      8 C                     5.343806
      9 C                     4.114751
     10 C                    -0.272611
     11 O                    -0.000791
     12 C                     2.328718
     13 C                    -9.545177
     14 C                   -10.880390
     15 C                    -0.741084
     16 C                     1.436468
     17 C                    -2.090388
     18 C                     0.817870
     19 O                     0.122684
     20 C                     5.023506
     21 H                     0.426653
     22 H                     0.751752
     23 H                     0.425186
     24 H                     1.961924
     25 H                   -17.328296
     26 H                     2.368819
     27 H                     0.683609
  ----------------------------------------
  Sum of atomic charges =    -3.000000

                    Cartesian Multipole Moments
 -----------------------------------------------------------------
    Charge (ESU x 10^10)
               -14.4096
    Dipole Moment (Debye)
         X     -67.5898      Y      -3.6167      Z      -1.7090
       Tot      67.7081
    Quadrupole Moments (Debye-Ang)
        XX    -724.4396     XY    -163.6061     YY    -228.3597
        XZ     -31.1300     YZ      -9.0322     ZZ    -183.3592

 Total job time:  965.46s(wall), 2970.48s(cpu)
        *  Thank you very much for using Q-Chem.  Have a nice day.  *
