 Gaussian 16, Revision A.03,
 Gaussian 16:  ES64L-G16RevA.03 25-Dec-2016

 ----------------------------------------------------------------------
 #P UB3LYP/6-311++G(d,p) nosym opt freq SCRF=(PCM,Solvent=n,n-DiMethylF
 ormamide)
 ----------------------------------------------------------------------

 -------
 Reduced
 -------
 Symbolic Z-matrix:
 Charge = -2 Multiplicity = 1

 SCF Done:  E(UB3LYP) =  -1204.18474136     A.U. after   18 cycles
 SCF Done:  E(UB3LYP) =  -1204.18540037     A.U. after   14 cycles
 SCF Done:  E(UB3LYP) =  -1204.18579869     A.U. after   14 cycles
 SCF Done:  E(UB3LYP) =  -1204.18590202     A.U. after   12 cycles
 SCF Done:  E(UB3LYP) =  -1204.18593837     A.U. after   13 cycles
 SCF Done:  E(UB3LYP) =  -1204.18595776     A.U. after   11 cycles
 SCF Done:  E(UB3LYP) =  -1204.18596417     A.U. after   11 cycles
 SCF Done:  E(UB3LYP) =  -1204.18596683     A.U. after   11 cycles
 SCF Done:  E(UB3LYP) =  -1204.18596769     A.U. after   11 cycles
 SCF Done:  E(UB3LYP) =  -1204.18596830     A.U. after   10 cycles
 SCF Done:  E(UB3LYP) =  -1204.18557441     A.U. after   14 cycles
 SCF Done:  E(UB3LYP) =  -1204.18597923     A.U. after   11 cycles
 SCF Done:  E(UB3LYP) =  -1204.18324039     A.U. after   17 cycles
 SCF Done:  E(UB3LYP) =  -1204.18564092     A.U. after   14 cycles
 SCF Done:  E(UB3LYP) =  -1204.18598070     A.U. after    8 cycles
 SCF Done:  E(UB3LYP) =  -1204.18598169     A.U. after   12 cycles
 SCF Done:  E(UB3LYP) =  -1204.18598250     A.U. after   11 cycles
 SCF Done:  E(UB3LYP) =  -1204.18598441     A.U. after   11 cycles
 SCF Done:  E(UB3LYP) =  -1204.18598485     A.U. after   10 cycles
 Optimization completed.
    -- Stationary point found.
 Normal termination of Gaussian 16 at Sat Feb 10 19:34:16 2024.

 ----------------------------------------------------------------------
 #P Geom=AllCheck Guess=TCheck SCRF=Check GenChk UB3LYP/6-311++G(d,p) F
 req
 ----------------------------------------------------------------------

 Structure from the checkpoint file:  "152-an.chk"
 -------
 Reduced
 -------
 Charge = -2 Multiplicity = 1

                          Input orientation:
 ---------------------------------------------------------------------
 Center     Atomic      Atomic             Coordinates (Angstroms)
 Number     Number       Type             X           Y           Z
 ---------------------------------------------------------------------
      1          7           0       -2.934862   -1.861969   -0.213234
      2          6           0       -2.544517   -0.528498   -0.105981
      3          6           0       -3.501473    0.471700    0.006244
      4          6           0       -3.117465    1.816885    0.211939
      5          6           0       -1.788902    2.154046    0.310527
      6          6           0       -0.761638    1.171409    0.187604
      7          6           0        0.612032    1.619029    0.293877
      8          8           0        0.876764    2.874437    0.472022
      9          6           0        1.620471    0.595692    0.180764
     10          6           0        3.031659    0.806800    0.335099
     11         17           0        3.715437    2.381013    0.857860
     12          6           0        3.984699   -0.164413    0.149141
     13          6           0        3.589167   -1.480042   -0.208127
     14          6           0        2.254598   -1.765736   -0.332924
     15          6           0        1.242044   -0.785329   -0.137046
     16          6           0       -0.123078   -1.205999   -0.275106
     17          8           0       -0.404820   -2.448105   -0.603008
     18          6           0       -1.131734   -0.205803   -0.055091
     19          1           0       -3.839955   -2.019493   -0.633465
     20          1           0       -2.155540   -2.453343   -0.526726
     21          1           0       -4.553259    0.203339   -0.041553
     22          1           0       -3.885049    2.580522    0.301514
     23          1           0       -1.481817    3.177905    0.480769
     24          1           0        5.031343    0.074631    0.290570
     25          1           0        4.344438   -2.243660   -0.360939
     26          1           0        1.921455   -2.765019   -0.584729
 ---------------------------------------------------------------------

 SCF Done:  E(UB3LYP) =  -1204.18598485     A.U. after    1 cycles

 Alpha  occ. eigenvalues -- -101.52896 -19.02445 -19.01386 -14.28221 -10.21422
 Alpha  occ. eigenvalues --  -10.19123 -10.17929 -10.17842 -10.15582 -10.15298
 Alpha  occ. eigenvalues --  -10.15181 -10.14765 -10.14701 -10.14388 -10.14258
 Alpha  occ. eigenvalues --  -10.13790 -10.13646 -10.13260  -9.44375  -7.20800
 Alpha  occ. eigenvalues --   -7.19908  -7.19809  -0.93992  -0.93149  -0.88568
 Alpha  occ. eigenvalues --   -0.85802  -0.81298  -0.80200  -0.75589  -0.71255
 Alpha  occ. eigenvalues --   -0.71075  -0.70023  -0.63983  -0.60958  -0.59862
 Alpha  occ. eigenvalues --   -0.55355  -0.52556  -0.52107  -0.49903  -0.47286
 Alpha  occ. eigenvalues --   -0.45072  -0.44321  -0.44104  -0.42007  -0.41155
 Alpha  occ. eigenvalues --   -0.40423  -0.39051  -0.38325  -0.36855  -0.36437
 Alpha  occ. eigenvalues --   -0.36202  -0.35390  -0.33301  -0.32940  -0.32622
 Alpha  occ. eigenvalues --   -0.32085  -0.30919  -0.29938  -0.29417  -0.27990
 Alpha  occ. eigenvalues --   -0.22848  -0.22455  -0.21926  -0.20566  -0.18931
 Alpha  occ. eigenvalues --   -0.18650  -0.10834
 Alpha virt. eigenvalues --   -0.02566  -0.00170   0.00136   0.00782   0.01243
 Alpha virt. eigenvalues --    0.01902   0.02344   0.02540   0.03439   0.04496
 Alpha virt. eigenvalues --    0.04695   0.04902   0.05679   0.06184   0.06736

  Beta  occ. eigenvalues -- -101.52896 -19.02445 -19.01386 -14.28221 -10.21422
  Beta  occ. eigenvalues --  -10.19123 -10.17929 -10.17842 -10.15582 -10.15298
  Beta  occ. eigenvalues --  -10.15181 -10.14765 -10.14701 -10.14388 -10.14258
  Beta  occ. eigenvalues --  -10.13790 -10.13646 -10.13260  -9.44375  -7.20800
  Beta  occ. eigenvalues --   -7.19908  -7.19809  -0.93992  -0.93149  -0.88568
  Beta  occ. eigenvalues --   -0.85802  -0.81298  -0.80200  -0.75589  -0.71255
  Beta  occ. eigenvalues --   -0.71075  -0.70023  -0.63983  -0.60958  -0.59862
  Beta  occ. eigenvalues --   -0.55355  -0.52556  -0.52107  -0.49903  -0.47286
  Beta  occ. eigenvalues --   -0.45072  -0.44321  -0.44104  -0.42007  -0.41155
  Beta  occ. eigenvalues --   -0.40423  -0.39051  -0.38325  -0.36855  -0.36437
  Beta  occ. eigenvalues --   -0.36202  -0.35390  -0.33301  -0.32940  -0.32622
  Beta  occ. eigenvalues --   -0.32085  -0.30919  -0.29938  -0.29417  -0.27990
  Beta  occ. eigenvalues --   -0.22848  -0.22455  -0.21926  -0.20566  -0.18931
  Beta  occ. eigenvalues --   -0.18650  -0.10834
  Beta virt. eigenvalues --   -0.02566  -0.00170   0.00136   0.00782   0.01243
  Beta virt. eigenvalues --    0.01902   0.02344   0.02540   0.03439   0.04496
  Beta virt. eigenvalues --    0.04695   0.04902   0.05679   0.06184   0.06736

 Mulliken charges and spin densities:
               1          2
     1  N   -0.429317  -0.000000
     2  C   -0.046848   0.000000
     3  C   -0.282473  -0.000000
     4  C   -0.468379   0.000000
     5  C   -0.074526  -0.000000
     6  C    0.311659   0.000000
     7  C   -1.443381   0.000000
     8  O   -0.559523  -0.000000
     9  C   -0.130442   0.000000
    10  C    0.847229  -0.000000
    11  Cl   0.288792  -0.000000
    12  C   -0.276530  -0.000000
    13  C   -0.740077   0.000000
    14  C    0.383955  -0.000000
    15  C    0.354307  -0.000000
    16  C   -0.817889   0.000000
    17  O   -0.629778  -0.000000
    18  C    0.227114  -0.000000
    19  H    0.244779   0.000000
    20  H    0.309879  -0.000000
    21  H    0.136643  -0.000000
    22  H    0.157532   0.000000
    23  H    0.143259   0.000000
    24  H    0.173644  -0.000000
    25  H    0.158212   0.000000
    26  H    0.162159  -0.000000
 Sum of Mulliken charges =  -2.00000   0.00000

 Dipole moment (field-independent basis, Debye):
    X=             -4.3824    Y=             -5.4588    Z=             -1.7846  Tot=              7.2242
 Quadrupole moment (field-independent basis, Debye-Ang):
   XX=           -144.2757   YY=           -172.8981   ZZ=           -126.4713
   XY=            -14.7663   XZ=             -0.5975   YZ=             -7.6477

  Exact polarizability: 571.318 -28.323 420.768   8.777  47.083 176.582
 Approx polarizability: 624.113 -35.120 504.198   8.308  58.863 196.763

                      1                      2                      3
                      A                      A                      A
 Frequencies --     52.3315                67.7529                97.4777
 Red. masses --      9.0126                 6.5845                 6.9490
 Frc consts  --      0.0145                 0.0178                 0.0389
 IR Inten    --      7.6661                12.7796                 0.0783

                      4                      5                      6
                      A                      A                      A
 Frequencies --    166.1378               177.8365               206.3967
 Red. masses --      7.6094                10.5195                 4.5517
 Frc consts  --      0.1237                 0.1960                 0.1142
 IR Inten    --      5.8910                17.5434                 0.2754

                      7                      8                      9
                      A                      A                      A
 Frequencies --    220.8790               255.6210               279.0748
 Red. masses --      4.7801                 7.0302                 4.5082
 Frc consts  --      0.1374                 0.2707                 0.2069
 IR Inten    --      7.6284                 6.3643                11.4473

                     10                     11                     12
                      A                      A                      A
 Frequencies --    342.3679               364.0438               381.2348
 Red. masses --     11.1248                 6.5206                 6.4622
 Frc consts  --      0.7683                 0.5091                 0.5534
 IR Inten    --      1.0897                 0.2993                11.2163

                     13                     14                     15
                      A                      A                      A
 Frequencies --    391.9761               405.1321               421.2062
 Red. masses --      6.8711                 5.7146                 7.7448
 Frc consts  --      0.6220                 0.5526                 0.8096
 IR Inten    --      1.7011                57.6786                 1.7407

                     16                     17                     18
                      A                      A                      A
 Frequencies --    437.6203               467.2799               492.8902
 Red. masses --      1.3559                 5.2512                 4.1971
 Frc consts  --      0.1530                 0.6756                 0.6008
 IR Inten    --    349.3280                23.5219                 3.8388

                     19                     20                     21
                      A                      A                      A
 Frequencies --    505.1968               518.8368               563.2261
 Red. masses --      8.3562                 5.1219                 5.6759
 Frc consts  --      1.2566                 0.8123                 1.0608
 IR Inten    --      5.1852                 5.9515                11.0672

                     22                     23                     24
                      A                      A                      A
 Frequencies --    583.1571               598.0095               636.7870
 Red. masses --      4.3995                 5.9650                 4.3351
 Frc consts  --      0.8815                 1.2568                 1.0357
 IR Inten    --     11.2796                75.1436                 8.6427

                     25                     26                     27
                      A                      A                      A
 Frequencies --    690.2266               702.2913               719.9905
 Red. masses --      6.2761                 2.3770                 7.2350
 Frc consts  --      1.7617                 0.6908                 2.2098
 IR Inten    --     15.5776               131.0116               212.8561

                     28                     29                     30
                      A                      A                      A
 Frequencies --    738.2487               751.7445               773.7561
 Red. masses --      2.4050                 1.5765                 1.6898
 Frc consts  --      0.7723                 0.5249                 0.5961
 IR Inten    --     63.2479                 6.1600               169.7385

                     31                     32                     33
                      A                      A                      A
 Frequencies --    777.0579               811.3434               822.2608
 Red. masses --      1.8603                 5.3647                 5.8350
 Frc consts  --      0.6618                 2.0807                 2.3244
 IR Inten    --     96.8465                61.5165                50.3658

                     34                     35                     36
                      A                      A                      A
 Frequencies --    842.1364               866.0528               877.3120
 Red. masses --      1.5478                 1.3958                 6.5293
 Frc consts  --      0.6467                 0.6168                 2.9609
 IR Inten    --      3.7123                 1.8931                25.8923

                     37                     38                     39
                      A                      A                      A
 Frequencies --    929.9746               964.5236               986.4719
 Red. masses --      6.7229                 1.2402                 1.2823
 Frc consts  --      3.4257                 0.6798                 0.7352
 IR Inten    --     17.4785                 2.4128                 2.8501

                     40                     41                     42
                      A                      A                      A
 Frequencies --   1013.8372              1055.6659              1068.9466
 Red. masses --      4.4267                 2.5536                 2.1003
 Frc consts  --      2.6808                 1.6767                 1.4140
 IR Inten    --    309.8345               371.7925               185.1080

                     43                     44                     45
                      A                      A                      A
 Frequencies --   1088.5931              1119.2717              1153.9625
 Red. masses --      3.3652                 1.7427                 1.7585
 Frc consts  --      2.3496                 1.2863                 1.3797
 IR Inten    --    123.1246               555.0459               223.9522

                     46                     47                     48
                      A                      A                      A
 Frequencies --   1158.1322              1170.4358              1213.3910
 Red. masses --      1.4852                 1.7859                 2.0821
 Frc consts  --      1.1737                 1.4415                 1.8061
 IR Inten    --    161.4486                32.8754               235.3753

                     49                     50                     51
                      A                      A                      A
 Frequencies --   1237.0951              1263.7029              1296.1326
 Red. masses --      2.7935                 3.7389                 4.1371
 Frc consts  --      2.5188                 3.5179                 4.0950
 IR Inten    --    136.6542               650.4948               143.6427

                     52                     53                     54
                      A                      A                      A
 Frequencies --   1338.2614              1345.4747              1366.4529
 Red. masses --      3.7081                 6.0219                 2.3300
 Frc consts  --      3.9127                 6.4230                 2.5633
 IR Inten    --    780.7178              1246.6885               441.2808

                     55                     56                     57
                      A                      A                      A
 Frequencies --   1418.3377              1428.0056              1458.6870
 Red. masses --      2.9724                 6.2770                 3.1438
 Frc consts  --      3.5230                 7.5416                 3.9412
 IR Inten    --     41.4441               173.0091               383.5246

                     58                     59                     60
                      A                      A                      A
 Frequencies --   1466.4692              1485.6593              1521.3067
 Red. masses --      3.0837                 4.2137                 4.9053
 Frc consts  --      3.9072                 5.4797                 6.6888
 IR Inten    --    281.1691                 5.6457               299.8947

                     61                     62                     63
                      A                      A                      A
 Frequencies --   1575.9212              1579.1580              1596.0199
 Red. masses --      1.4198                 5.0695                 5.2942
 Frc consts  --      2.0775                 7.4485                 7.9456
 IR Inten    --    125.4187               241.8850                30.5159

                     64                     65                     66
                      A                      A                      A
 Frequencies --   1608.4187              3131.6178              3149.5779
 Red. masses --      4.5608                 1.0853                 1.0923
 Frc consts  --      6.9517                 6.2708                 6.3839
 IR Inten    --    120.8126                57.3440                80.4034

                     67                     68                     69
                      A                      A                      A
 Frequencies --   3157.4697              3184.7879              3191.2249
 Red. masses --      1.0867                 1.0907                 1.0928
 Frc consts  --      6.3832                 6.5182                 6.5567
 IR Inten    --     32.1202                14.1247                79.4414

                     70                     71                     72
                      A                      A                      A
 Frequencies --   3191.7916              3258.3718              3607.5263
 Red. masses --      1.0911                 1.0677                 1.0832
 Frc consts  --      6.5493                 6.6787                 8.3058
 IR Inten    --      8.1238               443.3150                37.7161

 - Thermochemistry -
 -------------------
 Temperature   298.150 Kelvin.  Pressure   1.00000 Atm.
 Atom     1 has atomic number  7 and mass  14.00307

 Molecular mass:   257.02436 amu.
 Principal axes and moments of inertia in atomic units:
                           1         2         3
     Eigenvalues --  2609.419655992.161828577.11380
           X            0.97679  -0.20982  -0.04303
           Y            0.19689   0.95870  -0.20527
           Z            0.08433   0.19204   0.97776
 This molecule is an asymmetric top.
 Rotational symmetry number  1.
 Warning -- assumption of classical behavior for rotation
           may cause significant error
 Rotational temperatures (Kelvin)      0.03319     0.01445     0.01010
 Rotational constants (GHZ):           0.69163     0.30118     0.21041
 Zero-point vibrational energy     477223.7 (Joules/Mol)
                                  114.05920 (Kcal/Mol)
 Warning -- explicit consideration of  23 degrees of freedom as
           vibrations may cause significant error
 Vibrational temperatures:     75.29    97.48   140.25   239.04   255.87
          (Kelvin)            296.96   317.80   367.78   401.53   492.59
                              523.78   548.51   563.97   582.89   606.02
                              629.64   672.31   709.16   726.87   746.49
                              810.36   839.03   860.40   916.19   993.08
                             1010.44  1035.91  1062.18  1081.59  1113.26
                             1118.01  1167.34  1183.05  1211.65  1246.06
                             1262.26  1338.03  1387.73  1419.31  1458.69
                             1518.87  1537.98  1566.24  1610.38  1660.29
                             1666.29  1684.00  1745.80  1779.90  1818.19
                             1864.85  1925.46  1935.84  1966.02  2040.67
                             2054.58  2098.73  2109.92  2137.53  2188.82
                             2267.40  2272.06  2296.32  2314.16  4505.70
                             4531.54  4542.89  4582.20  4591.46  4592.28
                             4688.07  5190.43

 Zero-point correction=                           0.181765 (Hartree/Particle)
 Thermal correction to Energy=                    0.195466
 Thermal correction to Enthalpy=                  0.196410
 Thermal correction to Gibbs Free Energy=         0.141414
 Sum of electronic and zero-point Energies=          -1204.004220
 Sum of electronic and thermal Energies=             -1203.990519
 Sum of electronic and thermal Enthalpies=           -1203.989575
 Sum of electronic and thermal Free Energies=        -1204.044571

                     E (Thermal)             CV                S
                      KCal/Mol        Cal/Mol-Kelvin    Cal/Mol-Kelvin
 Total                  122.657             55.894            115.749
 Electronic               0.000              0.000              0.000
 Translational            0.889              2.981             42.532
 Rotational               0.889              2.981             33.261
 Vibrational            120.879             49.932             39.957
 Vibration     1          0.596              1.977              4.727
 Vibration     2          0.598              1.970              4.218
 Vibration     3          0.603              1.951              3.504
 Vibration     4          0.624              1.884              2.479
 Vibration     5          0.628              1.870              2.351
 Vibration     6          0.641              1.831              2.075
 Vibration     7          0.648              1.809              1.952
 Vibration     8          0.666              1.753              1.691
 Vibration     9          0.679              1.712              1.539
 Vibration    10          0.721              1.591              1.201
 Vibration    11          0.738              1.546              1.105
 Vibration    12          0.751              1.510              1.034
 Vibration    13          0.759              1.487              0.993
 Vibration    14          0.770              1.459              0.944
 Vibration    15          0.784              1.424              0.888
 Vibration    16          0.798              1.388              0.834
 Vibration    17          0.825              1.323              0.745
 Vibration    18          0.849              1.266              0.676
 Vibration    19          0.860              1.238              0.645
 Vibration    20          0.874              1.208              0.613
 Vibration    21          0.919              1.111              0.517
 Vibration    22          0.940              1.068              0.480
 Vibration    23          0.956              1.036              0.453

                           ! Non-Optimized Parameters !
 Normal termination of Gaussian 16 at Sat Feb 10 20:03:03 2024.
