 Gaussian 16, Revision A.03,
 Gaussian 16:  ES64L-G16RevA.03 25-Dec-2016

 ----------------------------------------------------------------------
 #P UB3LYP/6-311++G(d,p) nosym opt freq SCRF=(PCM,Solvent=n,n-DiMethylF
 ormamide)
 ----------------------------------------------------------------------

 -------
 Radical
 -------
 Symbolic Z-matrix:
 Charge = -1 Multiplicity = 2

 SCF Done:  E(UB3LYP) =  -764.346586617     A.U. after   18 cycles
 SCF Done:  E(UB3LYP) =  -764.346960060     A.U. after   14 cycles
 SCF Done:  E(UB3LYP) =  -764.347009123     A.U. after   14 cycles
 SCF Done:  E(UB3LYP) =  -764.347005331     A.U. after   12 cycles
 SCF Done:  E(UB3LYP) =  -764.347013129     A.U. after   10 cycles
 SCF Done:  E(UB3LYP) =  -764.347014274     A.U. after   10 cycles
 Optimization completed.
    -- Stationary point found.
 Normal termination of Gaussian 16 at Sat Feb 10 17:35:25 2024.

 ----------------------------------------------------------------------
 #P Geom=AllCheck Guess=TCheck SCRF=Check GenChk UB3LYP/6-311++G(d,p) F
 req
 ----------------------------------------------------------------------

 Structure from the checkpoint file:  "178-rad.chk"
 -------
 Radical
 -------
 Charge = -1 Multiplicity = 2

                          Input orientation:
 ---------------------------------------------------------------------
 Center     Atomic      Atomic             Coordinates (Angstroms)
 Number     Number       Type             X           Y           Z
 ---------------------------------------------------------------------
      1          8           0       -4.705048   -0.660621    0.985104
      2          6           0       -3.467754   -0.233076    0.572269
      3          6           0       -3.428801    0.975970   -0.156000
      4          6           0       -2.216928    1.459595   -0.597514
      5          6           0       -1.004998    0.778304   -0.341956
      6          6           0        0.253132    1.333257   -0.830875
      7          8           0        0.295188    2.413822   -1.482510
      8          6           0        1.464399    0.572536   -0.525736
      9          6           0        2.718254    1.052169   -0.966960
     10          6           0        3.885445    0.364172   -0.699852
     11          6           0        3.836281   -0.844898    0.027713
     12          6           0        2.623997   -1.335027    0.469813
     13          6           0        1.413729   -0.649211    0.210083
     14          6           0        0.154280   -1.201596    0.696821
     15          8           0        0.107738   -2.285642    1.350517
     16          6           0       -1.054346   -0.441286    0.392956
     17          6           0       -2.304893   -0.926591    0.840011
     18          1           0       -4.618017   -1.487770    1.474233
     19          1           0       -4.354164    1.503973   -0.355390
     20          1           0       -2.171467    2.386262   -1.156745
     21          1           0        2.738379    1.981070   -1.524319
     22          1           0        4.837951    0.749562   -1.047171
     23          1           0        4.751986   -1.386981    0.238448
     24          1           0        2.572183   -2.261654    1.028731
     25          1           0       -2.326529   -1.856338    1.398326
 ---------------------------------------------------------------------

 SCF Done:  E(UB3LYP) =  -764.347014274     A.U. after    1 cycles

 Alpha  occ. eigenvalues --  -19.15866 -19.07504 -19.07372 -10.23850 -10.22512
 Alpha  occ. eigenvalues --  -10.22106 -10.17723 -10.17566 -10.17341 -10.17298
 Alpha  occ. eigenvalues --  -10.17242 -10.17226 -10.17159 -10.17028 -10.17001
 Alpha  occ. eigenvalues --  -10.16946 -10.16915  -1.06741  -0.99929  -0.99534
 Alpha  occ. eigenvalues --   -0.86137  -0.85059  -0.78461  -0.75386  -0.74946
 Alpha  occ. eigenvalues --   -0.73811  -0.66734  -0.65027  -0.61671  -0.60049
 Alpha  occ. eigenvalues --   -0.55791  -0.55570  -0.53367  -0.50156  -0.47743
 Alpha  occ. eigenvalues --   -0.46727  -0.45674  -0.43120  -0.42889  -0.42741
 Alpha  occ. eigenvalues --   -0.42286  -0.41281  -0.40783  -0.40679  -0.39600
 Alpha  occ. eigenvalues --   -0.37820  -0.37801  -0.35674  -0.35485  -0.34631
 Alpha  occ. eigenvalues --   -0.33385  -0.32442  -0.26568  -0.25799  -0.25541
 Alpha  occ. eigenvalues --   -0.24555  -0.23736  -0.23373  -0.14176
 Alpha virt. eigenvalues --   -0.05381  -0.01844  -0.00423  -0.00358   0.00261
 Alpha virt. eigenvalues --    0.01094   0.01922   0.02307   0.04130   0.04253
 Alpha virt. eigenvalues --    0.04455   0.04510   0.05229   0.06405   0.06460

  Beta  occ. eigenvalues --  -19.15851 -19.06993 -19.06779 -10.23816 -10.22352
  Beta  occ. eigenvalues --  -10.21895 -10.17640 -10.17574 -10.17308 -10.17231
  Beta  occ. eigenvalues --  -10.17208 -10.17134 -10.17098 -10.17007 -10.16976
  Beta  occ. eigenvalues --  -10.16928 -10.16875  -1.06704  -0.99020  -0.98482
  Beta  occ. eigenvalues --   -0.85868  -0.84947  -0.78076  -0.75144  -0.74767
  Beta  occ. eigenvalues --   -0.73650  -0.65964  -0.64887  -0.61434  -0.59942
  Beta  occ. eigenvalues --   -0.55562  -0.55471  -0.53168  -0.49999  -0.47493
  Beta  occ. eigenvalues --   -0.46553  -0.45570  -0.43044  -0.42796  -0.42233
  Beta  occ. eigenvalues --   -0.42045  -0.40889  -0.40300  -0.39929  -0.39422
  Beta  occ. eigenvalues --   -0.37690  -0.35559  -0.35392  -0.35121  -0.34525
  Beta  occ. eigenvalues --   -0.33224  -0.31378  -0.25534  -0.24654  -0.24476
  Beta  occ. eigenvalues --   -0.24049  -0.23220  -0.22732
  Beta virt. eigenvalues --   -0.08240  -0.04457  -0.00878  -0.00411  -0.00074
  Beta virt. eigenvalues --    0.00262   0.01097   0.01928   0.02312   0.04141
  Beta virt. eigenvalues --    0.04453   0.04477   0.04512   0.05650   0.06455

 Mulliken charges and spin densities:
               1          2
     1  O   -0.287865   0.004121
     2  C   -0.588223   0.021191
     3  C   -0.157735   0.029071
     4  C    0.120126   0.015327
     5  C    0.178228   0.014396
     6  C   -0.499326   0.091161
     7  O   -0.468886   0.188955
     8  C    0.153135   0.044427
     9  C    0.082279   0.014554
    10  C   -0.457033   0.052264
    11  C   -0.429697   0.024497
    12  C    0.059572   0.041952
    13  C    0.227789   0.027226
    14  C   -0.536296   0.125958
    15  O   -0.478426   0.221341
    16  C    0.394048   0.044692
    17  C    0.165608   0.056019
    18  H    0.303740  -0.000171
    19  H    0.207612  -0.002603
    20  H    0.172956  -0.000936
    21  H    0.165923  -0.000607
    22  H    0.178933  -0.004029
    23  H    0.180286  -0.002306
    24  H    0.164167  -0.002417
    25  H    0.149087  -0.004084
 Sum of Mulliken charges =  -1.00000   1.00000

 Dipole moment (field-independent basis, Debye):
    X=             -0.3983    Y=             -1.3397    Z=              0.8746  Tot=              1.6487
 Quadrupole moment (field-independent basis, Debye-Ang):
   XX=           -103.5818   YY=           -123.1588   ZZ=           -111.0465
   XY=              3.2996   XZ=             -2.2090   YZ=             10.3426

  Exact polarizability: 454.729 -11.201 287.009 -34.103 -94.146 187.796
 Approx polarizability: 471.013  -8.607 342.547 -35.355-116.490 219.929

                      1                      2                      3
                      A                      A                      A
 Frequencies --     52.1315               102.0504               135.0705
 Red. masses --      7.6798                 4.4641                 5.3194
 Frc consts  --      0.0123                 0.0274                 0.0572
 IR Inten    --     11.5918                 0.4475                 1.0057

                      4                      5                      6
                      A                      A                      A
 Frequencies --    160.5976               194.2479               206.5174
 Red. masses --      7.4287                 6.1162                 5.8438
 Frc consts  --      0.1129                 0.1360                 0.1468
 IR Inten    --      7.3242                 6.0992                 0.0674

                      7                      8                      9
                      A                      A                      A
 Frequencies --    284.0736               305.7154               338.0088
 Red. masses --      6.7135                 4.3956                 7.7814
 Frc consts  --      0.3192                 0.2421                 0.5238
 IR Inten    --      5.9681                 9.9941                 2.7642

                     10                     11                     12
                      A                      A                      A
 Frequencies --    347.1748               380.0763               397.8224
 Red. masses --      1.1916                10.7902                 6.6776
 Frc consts  --      0.0846                 0.9184                 0.6227
 IR Inten    --    163.6034                22.6212                11.7389

                     13                     14                     15
                      A                      A                      A
 Frequencies --    417.7031               446.0939               453.0331
 Red. masses --      3.7702                 4.9736                 5.4541
 Frc consts  --      0.3876                 0.5831                 0.6595
 IR Inten    --      4.2422                 1.1284                26.6849

                     16                     17                     18
                      A                      A                      A
 Frequencies --    461.9469               489.9860               550.7366
 Red. masses --      3.0418                12.4022                 4.3902
 Frc consts  --      0.3824                 1.7544                 0.7846
 IR Inten    --      0.8682                 1.1364                 7.6656

                     19                     20                     21
                      A                      A                      A
 Frequencies --    579.3486               642.7739               651.6388
 Red. masses --      6.9673                 6.7529                 3.6320
 Frc consts  --      1.3778                 1.6438                 0.9087
 IR Inten    --     37.2224                 9.3683                16.1333

                     22                     23                     24
                      A                      A                      A
 Frequencies --    669.2266               700.3701               709.2356
 Red. masses --      6.8063                 6.3602                 2.6754
 Frc consts  --      1.7960                 1.8381                 0.7929
 IR Inten    --      4.8358                 1.6309               112.1049

                     25                     26                     27
                      A                      A                      A
 Frequencies --    724.7232               757.2726               787.0850
 Red. masses --      4.4026                 7.1081                 1.8510
 Frc consts  --      1.3624                 2.4016                 0.6756
 IR Inten    --      2.8010                35.2687                25.2658

                     28                     29                     30
                      A                      A                      A
 Frequencies --    791.1540               832.6505               865.0602
 Red. masses --      3.1073                 1.7126                 6.6290
 Frc consts  --      1.1459                 0.6996                 2.9227
 IR Inten    --      0.1864                35.1445                70.3471

                     31                     32                     33
                      A                      A                      A
 Frequencies --    880.2083               884.5740               933.8485
 Red. masses --      1.4780                 1.4820                 6.6486
 Frc consts  --      0.6747                 0.6832                 3.4161
 IR Inten    --     35.2369                 2.6670                34.5512

                     34                     35                     36
                      A                      A                      A
 Frequencies --    985.4302               989.4083               994.5557
 Red. masses --      1.3091                 1.3633                 3.1954
 Frc consts  --      0.7490                 0.7863                 1.8622
 IR Inten    --      0.2477                 4.1510                 1.8381

                     37                     38                     39
                      A                      A                      A
 Frequencies --   1000.8703              1039.5004              1106.0806
 Red. masses --      1.2862                 1.9778                 2.4163
 Frc consts  --      0.7591                 1.2592                 1.7417
 IR Inten    --      0.0961                31.3464                43.2391

                     40                     41                     42
                      A                      A                      A
 Frequencies --   1113.3287              1149.7108              1156.0420
 Red. masses --      1.8378                 1.5059                 1.6271
 Frc consts  --      1.3421                 1.1728                 1.2812
 IR Inten    --      8.7662                26.7441                43.9822

                     43                     44                     45
                      A                      A                      A
 Frequencies --   1175.6375              1193.7437              1218.5886
 Red. masses --      1.6004                 2.1366                 1.6883
 Frc consts  --      1.3033                 1.7939                 1.4771
 IR Inten    --    314.1819                47.1193                82.3170

                     46                     47                     48
                      A                      A                      A
 Frequencies --   1224.8940              1251.1225              1285.5533
 Red. masses --      2.5382                 2.4360                 2.7776
 Frc consts  --      2.2438                 2.2466                 2.7046
 IR Inten    --    291.1095               136.3111               127.9428

                     49                     50                     51
                      A                      A                      A
 Frequencies --   1352.0232              1357.4009              1373.3344
 Red. masses --      2.0946                10.7483                 7.6934
 Frc consts  --      2.2559                11.6683                 8.5491
 IR Inten    --     23.1261                13.2944                17.7292

                     52                     53                     54
                      A                      A                      A
 Frequencies --   1416.2405              1466.1791              1480.3269
 Red. masses --      3.1423                 2.5383                 3.9070
 Frc consts  --      3.7134                 3.2149                 5.0444
 IR Inten    --   1333.8437               235.7308               103.6002

                     55                     56                     57
                      A                      A                      A
 Frequencies --   1491.2262              1503.8552              1529.4626
 Red. masses --      3.8924                 4.4356                 5.2137
 Frc consts  --      5.0998                 5.9104                 7.1857
 IR Inten    --     40.8143              1179.7003                17.1974

                     58                     59                     60
                      A                      A                      A
 Frequencies --   1569.2095              1608.7645              1621.2429
 Red. masses --      5.4460                 7.7184                 5.7014
 Frc consts  --      7.9011                11.7697                 8.8294
 IR Inten    --     56.2093                43.4041               155.5037

                     61                     62                     63
                      A                      A                      A
 Frequencies --   1634.8863              3158.4274              3172.3339
 Red. masses --      6.7295                 1.0859                 1.0898
 Frc consts  --     10.5976                 6.3824                 6.4616
 IR Inten    --    220.6126                12.8858                 1.0477

                     64                     65                     66
                      A                      A                      A
 Frequencies --   3172.3892              3177.7260              3188.0653
 Red. masses --      1.0899                 1.0876                 1.0917
 Frc consts  --      6.4628                 6.4708                 6.5375
 IR Inten    --     44.5858                 3.0816                18.7859

                     67                     68                     69
                      A                      A                      A
 Frequencies --   3191.5386              3194.0125              3808.7831
 Red. masses --      1.0945                 1.0940                 1.0662
 Frc consts  --      6.5688                 6.5760                 9.1133
 IR Inten    --     54.1816                19.8036               132.4557

 - Thermochemistry -
 -------------------
 Temperature   298.150 Kelvin.  Pressure   1.00000 Atm.
 Atom     1 has atomic number  8 and mass  15.99491

 Molecular mass:   224.04734 amu.
 Principal axes and moments of inertia in atomic units:
                           1         2         3
     Eigenvalues --  1733.689465346.541347080.22636
           X            0.99203  -0.06742   0.10648
           Y            0.00368   0.86001   0.51027
           Z           -0.12597  -0.50581   0.85340
 This molecule is an asymmetric top.
 Rotational symmetry number  1.
 Warning -- assumption of classical behavior for rotation
           may cause significant error
 Rotational temperatures (Kelvin)      0.04996     0.01620     0.01223
 Rotational constants (GHZ):           1.04098     0.33755     0.25490
 Zero-point vibrational energy     475420.2 (Joules/Mol)
                                  113.62816 (Kcal/Mol)
 Warning -- explicit consideration of  19 degrees of freedom as
           vibrations may cause significant error
 Vibrational temperatures:     75.01   146.83   194.34   231.06   279.48
          (Kelvin)            297.13   408.72   439.86   486.32   499.51
                              546.84   572.38   600.98   641.83   651.81
                              664.64   704.98   792.39   833.55   924.81
                              937.56   962.87  1007.68  1020.43  1042.72
                             1089.55  1132.44  1138.29  1198.00  1244.63
                             1266.42  1272.70  1343.60  1417.81  1423.54
                             1430.94  1440.03  1495.61  1591.40  1601.83
                             1654.18  1663.29  1691.48  1717.53  1753.28
                             1762.35  1800.09  1849.62  1945.26  1953.00
                             1975.92  2037.65  2109.50  2129.86  2145.54
                             2163.71  2200.56  2257.74  2314.65  2332.61
                             2352.24  4544.27  4564.28  4564.36  4572.04
                             4586.91  4591.91  4595.47  5479.99

 Zero-point correction=                           0.181078 (Hartree/Particle)
 Thermal correction to Energy=                    0.193493
 Thermal correction to Enthalpy=                  0.194437
 Thermal correction to Gibbs Free Energy=         0.141865
 Sum of electronic and zero-point Energies=           -764.165936
 Sum of electronic and thermal Energies=              -764.153522
 Sum of electronic and thermal Enthalpies=            -764.152577
 Sum of electronic and thermal Free Energies=         -764.205150

                     E (Thermal)             CV                S
                      KCal/Mol        Cal/Mol-Kelvin    Cal/Mol-Kelvin
 Total                  121.419             50.866            110.648
 Electronic               0.000              0.000              1.377
 Translational            0.889              2.981             42.123
 Rotational               0.889              2.981             32.551
 Vibrational            119.641             44.905             34.597
 Vibration     1          0.596              1.977              4.735
 Vibration     2          0.604              1.948              3.415
 Vibration     3          0.613              1.918              2.873
 Vibration     4          0.622              1.891              2.543
 Vibration     5          0.635              1.848              2.187
 Vibration     6          0.641              1.831              2.074
 Vibration     7          0.682              1.703              1.509
 Vibration     8          0.696              1.663              1.385
 Vibration     9          0.718              1.600              1.222
 Vibration    10          0.725              1.581              1.179
 Vibration    11          0.750              1.513              1.039
 Vibration    12          0.764              1.475              0.971
 Vibration    13          0.781              1.432              0.900
 Vibration    14          0.805              1.370              0.808
 Vibration    15          0.812              1.354              0.787
 Vibration    16          0.820              1.334              0.760
 Vibration    17          0.846              1.272              0.684
 Vibration    18          0.906              1.138              0.543
 Vibration    19          0.936              1.076              0.487

 Optimization completed.
    -- Stationary point found.
 Normal termination of Gaussian 16 at Sat Feb 10 18:30:18 2024.
