 Gaussian 16, Revision A.03,
 Gaussian 16:  ES64L-G16RevA.03 25-Dec-2016

 ----------------------------------------------------------------------
 #P UB3LYP/6-311++G(d,p) nosym opt freq SCRF=(PCM,Solvent=n,n-DiMethylF
 ormamide)
 ----------------------------------------------------------------------

 --------
 Oxidized
 --------
 Symbolic Z-matrix:
 Charge =  0 Multiplicity = 1

 SCF Done:  E(UB3LYP) =  -1144.85906893     A.U. after   15 cycles
 SCF Done:  E(UB3LYP) =  -1144.85945261     A.U. after   12 cycles
 SCF Done:  E(UB3LYP) =  -1144.85924541     A.U. after   12 cycles
 SCF Done:  E(UB3LYP) =  -1144.85959618     A.U. after   12 cycles
 SCF Done:  E(UB3LYP) =  -1144.85971635     A.U. after   11 cycles
 SCF Done:  E(UB3LYP) =  -1144.85976207     A.U. after   12 cycles
 SCF Done:  E(UB3LYP) =  -1144.85986961     A.U. after   11 cycles
 SCF Done:  E(UB3LYP) =  -1144.85988342     A.U. after   11 cycles
 SCF Done:  E(UB3LYP) =  -1144.85989338     A.U. after   11 cycles
 SCF Done:  E(UB3LYP) =  -1144.85989466     A.U. after   10 cycles
 SCF Done:  E(UB3LYP) =  -1144.85989729     A.U. after    9 cycles
 SCF Done:  E(UB3LYP) =  -1144.85989745     A.U. after    9 cycles
 SCF Done:  E(UB3LYP) =  -1144.85989751     A.U. after    8 cycles
 SCF Done:  E(UB3LYP) =  -1144.85989754     A.U. after    7 cycles
 SCF Done:  E(UB3LYP) =  -1144.85989756     A.U. after    7 cycles
 SCF Done:  E(UB3LYP) =  -1144.85989759     A.U. after    8 cycles
 SCF Done:  E(UB3LYP) =  -1144.85989763     A.U. after    9 cycles
 SCF Done:  E(UB3LYP) =  -1144.85989766     A.U. after    8 cycles
 SCF Done:  E(UB3LYP) =  -1144.85989767     A.U. after    7 cycles
 Optimization completed.
    -- Stationary point found.
 Normal termination of Gaussian 16 at Sat Feb 10 19:40:22 2024.

 ----------------------------------------------------------------------
 #P Geom=AllCheck Guess=TCheck SCRF=Check GenChk UB3LYP/6-311++G(d,p) F
 req
 ----------------------------------------------------------------------

 Structure from the checkpoint file:  "148.chk"
 --------
 Oxidized
 --------
 Charge =  0 Multiplicity = 1

                          Input orientation:
 ---------------------------------------------------------------------
 Center     Atomic      Atomic             Coordinates (Angstroms)
 Number     Number       Type             X           Y           Z
 ---------------------------------------------------------------------
      1          6           0       -3.023318    3.732357    0.342886
      2          6           0       -4.279280    3.155821    0.445339
      3          6           0       -4.452255    1.773528    0.383485
      4          6           0       -1.904418    2.913341    0.177208
      5          6           0       -2.059090    1.516665    0.118902
      6          6           0       -3.338540    0.960918    0.223489
      7          6           0       -0.560468    3.547918    0.063023
      8          6           0        0.613450    2.644832   -0.105615
      9          6           0        0.457604    1.248248   -0.163401
     10          6           0       -0.886258    0.616475   -0.055644
     11          6           0        1.886666    3.209298   -0.208527
     12          6           0        2.986259    2.381675   -0.369396
     13          6           0        2.850304    0.995594   -0.434183
     14          6           0        1.584561    0.436058   -0.327904
     15          8           0       -0.426090    4.762268    0.105945
     16          8           0       -1.021654   -0.598920   -0.107791
     17          1           0       -3.448583   -0.114533    0.172653
     18          1           0        1.454661   -0.637303   -0.375887
     19          1           0       -2.906825    4.807257    0.386671
     20          1           0        2.008585    4.283657   -0.166006
     21          1           0        3.724110    0.371270   -0.571181
     22          8           0        4.234148    2.973116   -0.548724
     23          6           0        5.167571    2.881599    0.455891
     24          6           0        6.445112    3.548577    0.044334
     25          8           0        4.941699    2.336204    1.504972
     26          8           0       -5.382185    4.001258    0.528989
     27          1           0        6.253033    4.593397   -0.208359
     28          1           0        6.843191    3.061088   -0.848373
     29          1           0        7.167728    3.487662    0.854622
     30          6           0       -6.102670    4.051887    1.698505
     31          6           0       -7.259298    4.994692    1.558344
     32          8           0       -5.802627    3.415567    2.675203
     33          1           0       -5.444681    1.346977    0.454323
     34          1           0       -6.893768    5.992044    1.304614
     35          1           0       -7.818532    5.029392    2.490272
     36          1           0       -7.908353    4.664286    0.744495
 ---------------------------------------------------------------------

 SCF Done:  E(UB3LYP) =  -1144.85989767     A.U. after    1 cycles

 Alpha  occ. eigenvalues --  -19.19618 -19.19598 -19.13926 -19.13847 -19.13837
 Alpha  occ. eigenvalues --  -19.13578 -10.33055 -10.33045 -10.29177 -10.28892
 Alpha  occ. eigenvalues --  -10.26950 -10.26936 -10.21995 -10.21989 -10.21588
 Alpha  occ. eigenvalues --  -10.21579 -10.20906 -10.20905 -10.20804 -10.20797
 Alpha  occ. eigenvalues --  -10.20793 -10.20787 -10.18843 -10.18839  -1.13733
 Alpha  occ. eigenvalues --   -1.13727  -1.07272  -1.06855  -1.05457  -1.05437
 Alpha  occ. eigenvalues --   -0.90505  -0.89397  -0.82782  -0.80020  -0.79533
 Alpha  occ. eigenvalues --   -0.78909  -0.76830  -0.75578  -0.70442  -0.68687
 Alpha  occ. eigenvalues --   -0.67364  -0.64025  -0.63073  -0.60894  -0.59629
 Alpha  occ. eigenvalues --   -0.55599  -0.54769  -0.52665  -0.51607  -0.51540
 Alpha  occ. eigenvalues --   -0.50824  -0.50744  -0.50640  -0.48754  -0.48463
 Alpha  occ. eigenvalues --   -0.47028  -0.46591  -0.46304  -0.46232  -0.46017
 Alpha  occ. eigenvalues --   -0.45912  -0.44082  -0.43640  -0.42777  -0.42653
 Alpha  occ. eigenvalues --   -0.42502  -0.41080  -0.40820  -0.40191  -0.40074
 Alpha  occ. eigenvalues --   -0.39182  -0.38693  -0.38357  -0.37007  -0.34406
 Alpha  occ. eigenvalues --   -0.34332  -0.30960  -0.30926  -0.29508  -0.29400
 Alpha  occ. eigenvalues --   -0.28942  -0.28310  -0.28284  -0.27699
 Alpha virt. eigenvalues --   -0.12578  -0.08190  -0.04526  -0.03669  -0.02198
 Alpha virt. eigenvalues --   -0.01864  -0.00922  -0.00507   0.00386   0.01147
 Alpha virt. eigenvalues --    0.01421   0.02112   0.02781   0.02797   0.03042

  Beta  occ. eigenvalues --  -19.19618 -19.19598 -19.13926 -19.13847 -19.13837
  Beta  occ. eigenvalues --  -19.13578 -10.33055 -10.33045 -10.29177 -10.28892
  Beta  occ. eigenvalues --  -10.26950 -10.26936 -10.21995 -10.21989 -10.21588
  Beta  occ. eigenvalues --  -10.21579 -10.20906 -10.20905 -10.20804 -10.20797
  Beta  occ. eigenvalues --  -10.20793 -10.20787 -10.18843 -10.18839  -1.13733
  Beta  occ. eigenvalues --   -1.13727  -1.07272  -1.06855  -1.05457  -1.05437
  Beta  occ. eigenvalues --   -0.90505  -0.89397  -0.82782  -0.80020  -0.79533
  Beta  occ. eigenvalues --   -0.78909  -0.76830  -0.75578  -0.70442  -0.68687
  Beta  occ. eigenvalues --   -0.67364  -0.64025  -0.63073  -0.60894  -0.59629
  Beta  occ. eigenvalues --   -0.55599  -0.54769  -0.52665  -0.51607  -0.51540
  Beta  occ. eigenvalues --   -0.50824  -0.50744  -0.50640  -0.48754  -0.48463
  Beta  occ. eigenvalues --   -0.47028  -0.46591  -0.46304  -0.46232  -0.46017
  Beta  occ. eigenvalues --   -0.45912  -0.44082  -0.43640  -0.42777  -0.42653
  Beta  occ. eigenvalues --   -0.42502  -0.41080  -0.40820  -0.40191  -0.40074
  Beta  occ. eigenvalues --   -0.39182  -0.38693  -0.38357  -0.37007  -0.34406
  Beta  occ. eigenvalues --   -0.34332  -0.30960  -0.30926  -0.29508  -0.29400
  Beta  occ. eigenvalues --   -0.28942  -0.28310  -0.28284  -0.27699
  Beta virt. eigenvalues --   -0.12578  -0.08190  -0.04526  -0.03669  -0.02198
  Beta virt. eigenvalues --   -0.01864  -0.00922  -0.00507   0.00386   0.01147
  Beta virt. eigenvalues --    0.01421   0.02112   0.02781   0.02797   0.03042

 Mulliken charges and spin densities:
               1          2
     1  C    0.153240   0.000000
     2  C   -0.844235   0.000000
     3  C    0.228403   0.000000
     4  C    0.475856  -0.000000
     5  C    0.182525   0.000000
     6  C    0.318655   0.000000
     7  C   -0.977891  -0.000000
     8  C    0.488174  -0.000000
     9  C    0.171641  -0.000000
    10  C   -0.633134  -0.000000
    11  C    0.166122  -0.000000
    12  C   -0.869831  -0.000000
    13  C    0.248087  -0.000000
    14  C    0.328036  -0.000000
    15  O   -0.249990  -0.000000
    16  O   -0.263916   0.000000
    17  H    0.204111   0.000000
    18  H    0.204744   0.000000
    19  H    0.209184   0.000000
    20  H    0.208388  -0.000000
    21  H    0.239468  -0.000000
    22  O    0.003448   0.000000
    23  C    0.124502   0.000000
    24  C   -0.538000   0.000000
    25  O   -0.271172  -0.000000
    26  O    0.000434   0.000000
    27  H    0.192926   0.000000
    28  H    0.194655   0.000000
    29  H    0.181108  -0.000000
    30  C    0.127133  -0.000000
    31  C   -0.538835  -0.000000
    32  O   -0.273184  -0.000000
    33  H    0.239821  -0.000000
    34  H    0.193758   0.000000
    35  H    0.181088  -0.000000
    36  H    0.194682   0.000000
 Sum of Mulliken charges =   0.00000   0.00000

 Dipole moment (field-independent basis, Debye):
    X=             -0.1798    Y=              2.0411    Z=             -3.8228  Tot=              4.3373
 Quadrupole moment (field-independent basis, Debye-Ang):
   XX=            -80.8713   YY=           -129.5070   ZZ=           -152.3969
   XY=             -8.1932   XZ=             -4.9779   YZ=             -5.2452

  Exact polarizability: 440.509 -10.706 337.732 -28.502   6.018 187.398
 Approx polarizability: 447.610  -1.941 433.293 -25.755  -0.747 226.355

                      1                      2                      3
                      A                      A                      A
 Frequencies --     14.4659                18.6352                26.4294
 Red. masses --      8.0655                 7.7977                 7.9332
 Frc consts  --      0.0010                 0.0016                 0.0033
 IR Inten    --      1.5338                 0.3142                 6.3487

                      4                      5                      6
                      A                      A                      A
 Frequencies --     44.5810                49.3245                55.9022
 Red. masses --      1.7898                 2.3828                 1.7892
 Frc consts  --      0.0021                 0.0034                 0.0033
 IR Inten    --      2.6603                 3.2903                 2.6377

                      7                      8                      9
                      A                      A                      A
 Frequencies --     67.9326                75.3541                82.7652
 Red. masses --      8.4509                 1.7043                 2.0218
 Frc consts  --      0.0230                 0.0057                 0.0082
 IR Inten    --      1.4824                 3.1237                 2.4831

                     10                     11                     12
                      A                      A                      A
 Frequencies --    122.5804               124.7676               148.6489
 Red. masses --      4.8662                 5.7683                10.1389
 Frc consts  --      0.0431                 0.0529                 0.1320
 IR Inten    --      3.1801                 2.8215                12.0974

                     13                     14                     15
                      A                      A                      A
 Frequencies --    178.2893               192.2212               235.4984
 Red. masses --      7.8029                 7.9015                 5.1228
 Frc consts  --      0.1461                 0.1720                 0.1674
 IR Inten    --      0.1072                 0.6776                 4.5044

                     16                     17                     18
                      A                      A                      A
 Frequencies --    251.8457               292.1901               293.9813
 Red. masses --      9.3797                 5.8294                 4.9333
 Frc consts  --      0.3505                 0.2932                 0.2512
 IR Inten    --      1.7007                 5.0106                 1.6902

                     19                     20                     21
                      A                      A                      A
 Frequencies --    331.3813               398.5463               402.9583
 Red. masses --      5.7372                10.5771                 4.3001
 Frc consts  --      0.3712                 0.9899                 0.4114
 IR Inten    --      1.0028                63.3914                 3.9697

                     22                     23                     24
                      A                      A                      A
 Frequencies --    406.2232               419.4960               421.0436
 Red. masses --      5.5397                 5.2279                 4.1897
 Frc consts  --      0.5386                 0.5420                 0.4376
 IR Inten    --      8.7843                 2.1589                 2.6695

                     25                     26                     27
                      A                      A                      A
 Frequencies --    449.1869               468.7670               477.8050
 Red. masses --      3.1986                 5.2526                 9.6616
 Frc consts  --      0.3802                 0.6800                 1.2996
 IR Inten    --      0.5866                13.7857                 2.1449

                     28                     29                     30
                      A                      A                      A
 Frequencies --    510.9438               564.2594               574.3590
 Red. masses --      6.1173                 5.1091                 4.7736
 Frc consts  --      0.9409                 0.9584                 0.9278
 IR Inten    --     16.3920                10.8288                14.8732

                     31                     32                     33
                      A                      A                      A
 Frequencies --    580.8080               598.4538               601.4795
 Red. masses --      5.0524                 2.9166                 2.9721
 Frc consts  --      1.0042                 0.6154                 0.6335
 IR Inten    --      0.6469                 6.1387                 7.9803

                     34                     35                     36
                      A                      A                      A
 Frequencies --    655.0760               655.9121               685.8079
 Red. masses --      7.0200                 4.8694                 4.2466
 Frc consts  --      1.7749                 1.2343                 1.1768
 IR Inten    --     26.0924                16.7639                41.5754

                     37                     38                     39
                      A                      A                      A
 Frequencies --    692.9200               712.1016               724.2129
 Red. masses --      6.4582                 6.5705                 4.1328
 Frc consts  --      1.8270                 1.9631                 1.2771
 IR Inten    --      8.2486                 0.7033                 5.4226

                     40                     41                     42
                      A                      A                      A
 Frequencies --    736.6444               774.6669               796.4725
 Red. masses --      4.5398                 7.4080                 4.4172
 Frc consts  --      1.4515                 2.6193                 1.6510
 IR Inten    --     26.0867                17.9823                 0.0705

                     43                     44                     45
                      A                      A                      A
 Frequencies --    802.7197               855.2915               856.7876
 Red. masses --      3.9693                 2.9047                 1.8151
 Frc consts  --      1.5069                 1.2519                 0.7850
 IR Inten    --      5.7569                 4.0702                83.1729

                     46                     47                     48
                      A                      A                      A
 Frequencies --    889.5380               898.0346               937.1108
 Red. masses --      2.1842                 2.5945                 1.9190
 Frc consts  --      1.0183                 1.2328                 0.9929
 IR Inten    --     72.5075               144.0210                26.1302

                     49                     50                     51
                      A                      A                      A
 Frequencies --    939.6439               942.3210               960.8657
 Red. masses --      2.7673                 3.2808                 3.5935
 Frc consts  --      1.4396                 1.7165                 1.9547
 IR Inten    --    245.7376                51.2028               109.9095

                     52                     53                     54
                      A                      A                      A
 Frequencies --    999.5994              1002.4244              1012.4113
 Red. masses --      1.3441                 1.3643                 2.1299
 Frc consts  --      0.7913                 0.8077                 1.2862
 IR Inten    --      0.0471                 1.1185               183.9055

                     55                     56                     57
                      A                      A                      A
 Frequencies --   1018.8587              1030.3626              1062.7923
 Red. masses --      1.9660                 2.1196                 1.7795
 Frc consts  --      1.2024                 1.3258                 1.1843
 IR Inten    --     81.0343               111.0336                14.8712

                     58                     59                     60
                      A                      A                      A
 Frequencies --   1063.2370              1102.0071              1126.0494
 Red. masses --      1.7808                 2.6221                 1.7360
 Frc consts  --      1.1861                 1.8761                 1.2969
 IR Inten    --     15.1553                27.6636                43.8997

                     61                     62                     63
                      A                      A                      A
 Frequencies --   1151.4937              1175.6498              1186.2248
 Red. masses --      1.5075                 3.8235                 2.1729
 Frc consts  --      1.1777                 3.1136                 1.8015
 IR Inten    --     71.8895              1319.8201                48.7414

                     64                     65                     66
                      A                      A                      A
 Frequencies --   1189.0207              1199.5369              1225.8910
 Red. masses --      3.8889                 2.7415                 1.7281
 Frc consts  --      3.2393                 2.3242                 1.5301
 IR Inten    --    503.4575               637.7859                 0.1019

                     67                     68                     69
                      A                      A                      A
 Frequencies --   1237.9995              1272.8367              1293.2628
 Red. masses --      4.3240                 1.5888                 2.5157
 Frc consts  --      3.9046                 1.5166                 2.4791
 IR Inten    --     23.4661                 3.2853               427.6893

                     70                     71                     72
                      A                      A                      A
 Frequencies --   1304.5408              1353.3469              1362.5869
 Red. masses --      4.6624                 8.1339                11.2432
 Frc consts  --      4.6749                 8.7775                12.2990
 IR Inten    --    917.5880                37.2540                 6.1900

                     73                     74                     75
                      A                      A                      A
 Frequencies --   1396.3629              1396.4375              1438.0582
 Red. masses --      1.2885                 1.2888                 3.9489
 Frc consts  --      1.4803                 1.4807                 4.8115
 IR Inten    --     56.8520                62.2696                18.9532

                     76                     77                     78
                      A                      A                      A
 Frequencies --   1454.1336              1458.1181              1458.5537
 Red. masses --      4.2269                 1.0620                 1.0661
 Frc consts  --      5.2661                 1.3303                 1.3363
 IR Inten    --     54.3126                35.7736                24.3637

                     79                     80                     81
                      A                      A                      A
 Frequencies --   1462.1056              1462.2816              1507.8566
 Red. masses --      1.0483                 1.0522                 3.0382
 Frc consts  --      1.3204                 1.3256                 4.0699
 IR Inten    --     21.6133                15.5434                 9.9721

                     82                     83                     84
                      A                      A                      A
 Frequencies --   1513.8078              1604.4178              1615.3196
 Red. masses --      2.8786                 7.6271                 8.9013
 Frc consts  --      3.8866                11.5677                13.6842
 IR Inten    --      6.3231                17.4045                57.2377

                     85                     86                     87
                      A                      A                      A
 Frequencies --   1620.0827              1629.4510              1697.9139
 Red. masses --      6.6619                 6.4418                12.4816
 Frc consts  --     10.3020                10.0772                21.2008
 IR Inten    --    470.3957                82.7067                34.5983

                     88                     89                     90
                      A                      A                      A
 Frequencies --   1706.5294              1785.1999              1785.6489
 Red. masses --     11.8442                11.4890                11.4893
 Frc consts  --     20.3229                21.5729                21.5842
 IR Inten    --    711.0390                61.2755               847.0829

                     91                     92                     93
                      A                      A                      A
 Frequencies --   3054.4834              3054.7070              3115.9788
 Red. masses --      1.0367                 1.0367                 1.1002
 Frc consts  --      5.6985                 5.6993                 6.2936
 IR Inten    --      0.2396                 0.2515                 2.4240

                     94                     95                     96
                      A                      A                      A
 Frequencies --   3116.2500              3161.9510              3162.0655
 Red. masses --      1.1001                 1.1035                 1.1035
 Frc consts  --      6.2941                 6.5005                 6.5006
 IR Inten    --      2.4918                 8.9503                 8.9726

                     97                     98                     99
                      A                      A                      A
 Frequencies --   3199.4432              3199.8627              3211.0731
 Red. masses --      1.0893                 1.0894                 1.0944
 Frc consts  --      6.5695                 6.5720                 6.6487
 IR Inten    --      0.8076                 0.6811                 2.5328

                    100                    101                    102
                      A                      A                      A
 Frequencies --   3211.6376              3212.0564              3212.6225
 Red. masses --      1.0938                 1.0926                 1.0931
 Frc consts  --      6.6471                 6.6414                 6.6468
 IR Inten    --      0.2689                18.2447                 3.0688

 - Thermochemistry -
 -------------------
 Temperature   298.150 Kelvin.  Pressure   1.00000 Atm.
 Atom     1 has atomic number  6 and mass  12.00000

 Molecular mass:   324.06339 amu.
 Principal axes and moments of inertia in atomic units:
                           1         2         3
     Eigenvalues --  2858.30657********************
           X            0.98856   0.12308   0.08718
           Y           -0.10346   0.97394  -0.20184
           Z           -0.10975   0.19051   0.97553
 This molecule is an asymmetric top.
 Rotational symmetry number  1.
 Warning -- assumption of classical behavior for rotation
           may cause significant error
 Rotational temperatures (Kelvin)      0.03030     0.00469     0.00424
 Rotational constants (GHZ):           0.63140     0.09765     0.08840
 Zero-point vibrational energy     683497.1 (Joules/Mol)
                                  163.35973 (Kcal/Mol)
 Warning -- explicit consideration of  33 degrees of freedom as
           vibrations may cause significant error
 Vibrational temperatures:     20.81    26.81    38.03    64.14    70.97
          (Kelvin)             80.43    97.74   108.42   119.08   176.37
                              179.51   213.87   256.52   276.56   338.83
                              362.35   420.40   422.97   476.78   573.42
                              579.77   584.46   603.56   605.79   646.28
                              674.45   687.45   735.13   811.84   826.37
                              835.65   861.04   865.39   942.51   943.71
                              986.72   996.96  1024.56  1041.98  1059.87
                             1114.57  1145.95  1154.93  1230.57  1232.73
                             1279.85  1292.07  1348.29  1351.94  1355.79
                             1382.47  1438.20  1442.27  1456.63  1465.91
                             1482.46  1529.12  1529.76  1585.54  1620.13
                             1656.74  1691.50  1706.71  1710.74  1725.87
                             1763.78  1781.21  1831.33  1860.72  1876.94
                             1947.16  1960.46  2009.05  2009.16  2069.05
                             2092.17  2097.91  2098.53  2103.64  2103.90
                             2169.47  2178.03  2308.40  2324.08  2330.94
                             2344.42  2442.92  2455.32  2568.50  2569.15
                             4394.72  4395.04  4483.20  4483.59  4549.34
                             4549.51  4603.29  4603.89  4620.02  4620.83
                             4621.43  4622.25

 Zero-point correction=                           0.260330 (Hartree/Particle)
 Thermal correction to Energy=                    0.281463
 Thermal correction to Enthalpy=                  0.282407
 Thermal correction to Gibbs Free Energy=         0.205701
 Sum of electronic and zero-point Energies=          -1144.599567
 Sum of electronic and thermal Energies=             -1144.578435
 Sum of electronic and thermal Enthalpies=           -1144.577491
 Sum of electronic and thermal Free Energies=        -1144.654197

                     E (Thermal)             CV                S
                      KCal/Mol        Cal/Mol-Kelvin    Cal/Mol-Kelvin
 Total                  176.620             77.689            161.442
 Electronic               0.000              0.000              0.000
 Translational            0.889              2.981             43.223
 Rotational               0.889              2.981             35.332
 Vibrational            174.843             71.728             82.887
 Vibration     1          0.593              1.986              7.278
 Vibration     2          0.593              1.986              6.775
 Vibration     3          0.593              1.985              6.081
 Vibration     4          0.595              1.980              5.044
 Vibration     5          0.595              1.978              4.844
 Vibration     6          0.596              1.975              4.597
 Vibration     7          0.598              1.970              4.212
 Vibration     8          0.599              1.965              4.008
 Vibration     9          0.600              1.961              3.824
 Vibration    10          0.610              1.930              3.059
 Vibration    11          0.610              1.928              3.025
 Vibration    12          0.618              1.904              2.689
 Vibration    13          0.629              1.869              2.346
 Vibration    14          0.634              1.851              2.206
 Vibration    15          0.655              1.786              1.837
 Vibration    16          0.664              1.760              1.718
 Vibration    17          0.688              1.688              1.461
 Vibration    18          0.689              1.685              1.451
 Vibration    19          0.714              1.613              1.253
 Vibration    20          0.765              1.473              0.968
 Vibration    21          0.768              1.464              0.952
 Vibration    22          0.771              1.457              0.940
 Vibration    23          0.782              1.428              0.894
 Vibration    24          0.784              1.424              0.888
 Vibration    25          0.808              1.363              0.798
 Vibration    26          0.826              1.319              0.741
 Vibration    27          0.834              1.299              0.716
 Vibration    28          0.866              1.226              0.631
 Vibration    29          0.920              1.109              0.515
 Vibration    30          0.931              1.087              0.496
 Vibration    31          0.938              1.073              0.484
 Vibration    32          0.956              1.035              0.452
 Vibration    33          0.960              1.029              0.447

                           ! Non-Optimized Parameters !
 Normal termination of Gaussian 16 at Sat Feb 10 21:53:41 2024.
