 Gaussian 16, Revision A.03,
 Gaussian 16:  ES64L-G16RevA.03 25-Dec-2016

 ----------------------------------------------------------------
 #P UB3LYP/6-311++G(d,p) SCRF=(PCM,Solvent=n,n-DiMethylFormamide)
 ----------------------------------------------------------------

 -------
 Reduced
 -------
 Symbolic Z-matrix:
 Charge = -2 Multiplicity = 1

                         Standard orientation:
 ---------------------------------------------------------------------
 Center     Atomic      Atomic             Coordinates (Angstroms)
 Number     Number       Type             X           Y           Z
 ---------------------------------------------------------------------
      1          6           0       -4.491323    0.432701    0.379136
      2          6           0       -5.210186   -0.716516    0.619793
      3          6           0       -4.630358   -1.991739    0.414807
      4          6           0       -3.144970    0.361807   -0.082520
      5          6           0       -2.543674   -0.928557   -0.292751
      6          6           0       -3.321462   -2.070030   -0.031762
      7          6           0       -2.405845    1.557426   -0.334164
      8          6           0       -1.064272    1.375503   -0.792857
      9          6           0       -0.442773    0.149182   -1.013433
     10          6           0       -1.160265   -1.074748   -0.764675
     11          8           0       -2.843812    2.775066   -0.185497
     12          8           0       -0.634290   -2.221746   -0.948877
     13          8           0       -0.412642    2.566374   -1.018207
     14          8           0       -6.532620   -0.736095    1.072802
     15          6           0       -7.150158    0.509333    1.296581
     16          6           0        0.972894    0.069930   -1.524603
     17          6           0        2.041681   -0.064574   -0.417087
     18          6           0        3.464023   -0.188010   -0.981163
     19          6           0        4.588567   -0.413138    0.047432
     20          6           0        4.793124    0.789931    0.987891
     21          6           0        5.919538   -0.765026   -0.646790
     22          6           0        7.070310   -0.988325    0.344160
     23          6           0        7.253583    0.214442    1.276639
     24          6           0        5.941489    0.571430    1.985285
     25          1           0       -4.898728    1.425382    0.523245
     26          1           0       -5.222535   -2.879187    0.613863
     27          1           0       -2.848111   -3.032887   -0.196221
     28          1           0       -1.131178    3.200510   -0.773858
     29          1           0       -8.163913    0.293037    1.644083
     30          1           0       -7.201664    1.111430    0.379344
     31          1           0       -6.622231    1.096556    2.059992
     32          1           0        1.199367    0.960738   -2.122633
     33          1           0        1.048254   -0.810753   -2.173257
     34          1           0        1.804168   -0.951967    0.180163
     35          1           0        1.966119    0.802780    0.246976
     36          1           0        3.701589    0.710639   -1.570304
     37          1           0        3.478924   -1.025502   -1.692101
     38          1           0        4.302775   -1.275420    0.669341
     39          1           0        3.865673    1.005571    1.526634
     40          1           0        5.009188    1.678620    0.377272
     41          1           0        6.187049    0.051335   -1.333315
     42          1           0        5.782016   -1.657607   -1.270103
     43          1           0        8.006296   -1.202084   -0.189178
     44          1           0        6.854054   -1.879159    0.950162
     45          1           0        7.587434    1.078031    0.684041
     46          1           0        8.051615    0.020587    2.004884
     47          1           0        6.079375    1.465900    2.606440
     48          1           0        5.671832   -0.241492    2.673243
 ---------------------------------------------------------------------

 SCF Done:  E(UB3LYP) =  -1078.03583106     A.U. after   17 cycles

 The electronic state is 1-A.
 Alpha  occ. eigenvalues --  -19.13844 -19.10824 -19.02066 -19.01505 -10.20858
 Alpha  occ. eigenvalues --  -10.20646 -10.17248 -10.16989 -10.15939 -10.15608
 Alpha  occ. eigenvalues --  -10.15587 -10.15567 -10.15467 -10.15368 -10.15253
 Alpha  occ. eigenvalues --  -10.14927 -10.14630 -10.14385 -10.14165 -10.13840
 Alpha  occ. eigenvalues --  -10.13811 -10.13336 -10.12611 -10.11740  -1.04741
 Alpha  occ. eigenvalues --   -1.02213  -0.93761  -0.92512  -0.82719  -0.82310
 Alpha  occ. eigenvalues --   -0.78243  -0.76193  -0.73752  -0.73213  -0.72212
 Alpha  occ. eigenvalues --   -0.70959  -0.67785  -0.65134  -0.62528  -0.60351
 Alpha  occ. eigenvalues --   -0.59129  -0.58350  -0.56247  -0.55004  -0.54296
 Alpha  occ. eigenvalues --   -0.53644  -0.51458  -0.48278  -0.46773  -0.45724
 Alpha  occ. eigenvalues --   -0.45509  -0.45477  -0.44348  -0.44163  -0.43227
 Alpha  occ. eigenvalues --   -0.42794  -0.41696  -0.41147  -0.39984  -0.39525
 Alpha  occ. eigenvalues --   -0.38750  -0.38259  -0.37480  -0.36984  -0.36487
 Alpha  occ. eigenvalues --   -0.35848  -0.35552  -0.35160  -0.34559  -0.34233
 Alpha  occ. eigenvalues --   -0.33523  -0.33406  -0.32755  -0.32540  -0.31981
 Alpha  occ. eigenvalues --   -0.31160  -0.30601  -0.30423  -0.30303  -0.30100
 Alpha  occ. eigenvalues --   -0.28770  -0.28307  -0.27726  -0.22638  -0.21033
 Alpha  occ. eigenvalues --   -0.20917  -0.19247  -0.18383  -0.10284
 Alpha virt. eigenvalues --   -0.00271   0.00078   0.00160   0.00777   0.00993
 Alpha virt. eigenvalues --    0.01164   0.01577   0.02258   0.02755   0.02849
 Alpha virt. eigenvalues --    0.02889   0.03795   0.03909   0.04008   0.04108

  Beta  occ. eigenvalues --  -19.13844 -19.10824 -19.02066 -19.01505 -10.20858
  Beta  occ. eigenvalues --  -10.20646 -10.17248 -10.16989 -10.15939 -10.15608
  Beta  occ. eigenvalues --  -10.15587 -10.15567 -10.15467 -10.15368 -10.15253
  Beta  occ. eigenvalues --  -10.14927 -10.14630 -10.14385 -10.14165 -10.13840
  Beta  occ. eigenvalues --  -10.13811 -10.13336 -10.12611 -10.11740  -1.04741
  Beta  occ. eigenvalues --   -1.02213  -0.93761  -0.92512  -0.82719  -0.82310
  Beta  occ. eigenvalues --   -0.78243  -0.76193  -0.73752  -0.73213  -0.72212
  Beta  occ. eigenvalues --   -0.70959  -0.67785  -0.65134  -0.62528  -0.60351
  Beta  occ. eigenvalues --   -0.59129  -0.58350  -0.56247  -0.55004  -0.54296
  Beta  occ. eigenvalues --   -0.53644  -0.51458  -0.48278  -0.46773  -0.45724
  Beta  occ. eigenvalues --   -0.45509  -0.45477  -0.44348  -0.44163  -0.43227
  Beta  occ. eigenvalues --   -0.42794  -0.41696  -0.41147  -0.39984  -0.39525
  Beta  occ. eigenvalues --   -0.38750  -0.38259  -0.37480  -0.36984  -0.36487
  Beta  occ. eigenvalues --   -0.35848  -0.35552  -0.35160  -0.34559  -0.34233
  Beta  occ. eigenvalues --   -0.33523  -0.33406  -0.32755  -0.32540  -0.31981
  Beta  occ. eigenvalues --   -0.31160  -0.30601  -0.30423  -0.30303  -0.30100
  Beta  occ. eigenvalues --   -0.28770  -0.28307  -0.27726  -0.22638  -0.21033
  Beta  occ. eigenvalues --   -0.20917  -0.19247  -0.18383  -0.10284
  Beta virt. eigenvalues --   -0.00271   0.00078   0.00160   0.00777   0.00993
  Beta virt. eigenvalues --    0.01164   0.01577   0.02258   0.02755   0.02849
  Beta virt. eigenvalues --    0.02889   0.03795   0.03909   0.04008   0.04108

 Mulliken charges and spin densities:
               1          2
     1  C    0.789666  -0.000000
     2  C   -0.936539  -0.000000
     3  C   -0.471999   0.000000
     4  C    0.810431  -0.000000
     5  C   -0.571177   0.000000
     6  C    0.105908  -0.000000
     7  C   -0.909966   0.000000
     8  C   -0.515403  -0.000000
     9  C    1.533509   0.000000
    10  C   -1.129950  -0.000000
    11  O   -0.729810  -0.000000
    12  O   -0.632132   0.000000
    13  O   -0.329431  -0.000000
    14  O   -0.234147   0.000000
    15  C   -0.329700  -0.000000
    16  C    0.124536  -0.000000
    17  C   -0.600954   0.000000
    18  C   -0.706426  -0.000000
    19  C    0.963324  -0.000000
    20  C   -0.488518   0.000000
    21  C   -0.452433   0.000000
    22  C   -0.317045  -0.000000
    23  C   -0.385996   0.000000
    24  C   -0.351801  -0.000000
    25  H    0.136391  -0.000000
    26  H    0.174064  -0.000000
    27  H    0.154470   0.000000
    28  H    0.281759   0.000000
    29  H    0.177710  -0.000000
    30  H    0.154359   0.000000
    31  H    0.153288   0.000000
    32  H    0.196683   0.000000
    33  H    0.170175   0.000000
    34  H    0.174145   0.000000
    35  H    0.153127   0.000000
    36  H    0.101034  -0.000000
    37  H    0.127690   0.000000
    38  H    0.141695  -0.000000
    39  H    0.138831  -0.000000
    40  H    0.154333  -0.000000
    41  H    0.150697  -0.000000
    42  H    0.137768  -0.000000
    43  H    0.175482  -0.000000
    44  H    0.125829   0.000000
    45  H    0.118803  -0.000000
    46  H    0.169212   0.000000
    47  H    0.163761  -0.000000
    48  H    0.134747  -0.000000
 Sum of Mulliken charges =  -2.00000  -0.00000

 Dipole moment (field-independent basis, Debye):
    X=             17.9016    Y=             -0.7243    Z=              4.9876  Tot=             18.5975
 Quadrupole moment (field-independent basis, Debye-Ang):
   XX=           -216.3010   YY=           -202.6550   ZZ=           -162.9864
   XY=              4.3465   XZ=             -2.1280   YZ=             -1.0760

 Normal termination of Gaussian 16 at Thu Jan 25 05:59:01 2024.
