 Q-Chem 5.4, Q-Chem, Inc., Pleasanton, CA (2021)
 Q-Chem 5.4.0 for Intel X86 EM64T Linux

User input:
--------------------------------------------------------------
$molecule
-1 2
C                  5.7605270000     -5.7373100000      0.4403700000
C                  5.8406390000     -5.9356710000     -0.9266300000
C                  5.1043590000     -5.1111980000     -1.8005910000
C                  4.9501990000     -4.7185340000      0.9802950000
C                  4.2095100000     -3.8893080000      0.1005400000
C                  4.3032400000     -4.1060280000     -1.2886870000
C                  4.8854840000     -4.5317630000      2.4377660000
C                  4.0296900000     -3.4654360000      2.9213050000
C                  3.3105300000     -2.6472620000      2.0560170000
C                  3.3508840000     -2.8151990000      0.6184050000
O                  5.5498320000     -5.2738730000      3.2147000000
O                  2.6836560000     -2.0781590000     -0.1617920000
H                  6.4698950000     -6.7255830000     -1.3268790000
C                  2.4174260000     -1.5362490000      2.5610150000
H                  5.1664820000     -5.2658140000     -2.8740810000
C                  3.9710830000     -3.2831490000      4.4207720000
C                  0.9384980000     -1.9532780000      2.6827880000
C                  0.0251480000     -0.8124720000      3.1447390000
C                 -1.4505110000     -1.2121810000      3.2593770000
H                  6.3154650000     -6.3554850000      1.1368290000
H                  3.7245010000     -3.4564910000     -1.9355970000
H                  2.4739050000     -0.7068760000      1.8490040000
H                  2.7690150000     -1.1689880000      3.5308280000
H                  4.5088160000     -4.1023990000      4.8986760000
H                  2.9414950000     -3.2672290000      4.7947430000
H                  4.4407720000     -2.3417510000      4.7348250000
H                  0.8523070000     -2.7960680000      3.3805170000
H                  0.6066160000     -2.3166650000      1.7050830000
H                  0.1181330000      0.0261870000      2.4422200000
H                  0.3729520000     -0.4357590000      4.1169680000
H                 -1.5440910000     -2.0529530000      3.9596780000
H                 -1.7966290000     -1.5878210000      2.2878140000
C                 -2.3681250000     -0.0718720000      3.7159180000
C                 -3.8435310000     -0.4727930000      3.8291010000
C                 -4.7612180000      0.6676070000      4.2847370000
C                 -6.2363640000      0.2657050000      4.3972610000
C                 -7.1540040000      1.4056330000      4.8533110000
H                 -2.2751960000      0.7682390000      3.0150210000
H                 -2.0210560000      0.3048910000      4.6874310000
H                 -3.9366910000     -1.3131260000      4.5296870000
H                 -4.1903370000     -0.8493620000      2.8578930000
H                 -4.6683240000      1.5077550000      3.5840000000
H                 -4.4144980000      1.0443170000      5.2561180000
H                 -6.3292920000     -0.5748230000      5.0975300000
H                 -6.5831490000     -0.1104060000      3.4258480000
H                 -7.0620220000      2.2467070000      4.1533640000
H                 -6.8083480000      1.7821750000      5.8252200000
C                 -8.6292440000      1.0042850000      4.9656010000
C                 -9.5378100000      2.1499310000      5.4220150000
H                 -8.7219190000      0.1644670000      5.6652280000
H                 -8.9753730000      0.6290120000      3.9946930000
H                 -9.2381440000      2.5236770000      6.4065250000
H                -10.5820870000      1.8311680000      5.4917330000
H                 -9.4934140000      2.9917210000      4.7233550000
$end
$rem
MAX_SCF_CYCLES=200
BASIS  =  6-311++G(d,p)
GUI  =  2
JOB_TYPE  =  SP
METHOD  =  B3LYP
SCF_CONVERGENCE  = 8
SOLVENT_METHOD = COSMO
$end
$solvent
dielectric 37.219
opticaldielectric 1.43
$end

--------------------------------------------------------------

             Standard Nuclear Orientation (Angstroms)
    I     Atom           X                Y                Z
 ----------------------------------------------------------------
    1      C       6.7701108680     0.1943787648    -1.0099080584
    2      C       7.3205673174     1.4638036960    -1.0064352769
    3      C       6.6051118561     2.5383388048    -0.4414843247
    4      C       5.4973505005    -0.0469964115    -0.4550440368
    5      C       4.7778496498     1.0345023247     0.1131846347
    6      C       5.3540527434     2.3204510832     0.1076787874
    7      C       4.9384031699    -1.4073414512    -0.4732760987
    8      C       3.6235332805    -1.5801241057     0.1136735875
    9      C       2.9229131232    -0.5192967567     0.6785628275
   10      C       3.4473122736     0.8301483868     0.7022879099
   11      O       5.5866390867    -2.3658120856    -0.9800661902
   12      O       2.7995929629     1.7925340521     1.2036879995
   13      H       8.3028537855     1.6331977738    -1.4383406882
   14      C       1.5513384019    -0.7000017756     1.2894115003
   15      H       7.0362289404     3.5354707593    -0.4380087427
   16      C       3.0593816173    -2.9823327035     0.0890044948
   17      C       0.4038809721    -0.3590784541     0.3182870927
   18      C      -0.9846786220    -0.4920618729     0.9533169680
   19      C      -2.1342309275    -0.1450958403     0.0000999365
   20      H       7.2969769834    -0.6512908610    -1.4369989547
   21      H       4.7793444728     3.1270682044     0.5485970519
   22      H       1.4729384799    -0.0276523258     2.1495328780
   23      H       1.4227250073    -1.7247849168     1.6531570573
   24      H       3.7168808892    -3.6185057012    -0.5040369872
   25      H       2.0517048040    -3.0143849309    -0.3396203990
   26      H       2.9926518363    -3.4118098213     1.0972523708
   27      H       0.4661733794    -1.0087811735    -0.5640709199
   28      H       0.5503040893     0.6670857544    -0.0333521097
   29      H      -1.0380097524     0.1599890746     1.8350841857
   30      H      -1.1211074855    -1.5177924270     1.3239563222
   31      H      -2.0799087928    -0.7948901607    -0.8835814030
   32      H      -1.9969719790     0.8794920327    -0.3689764974
   33      C      -3.5246958459    -0.2716145267     0.6336219062
   34      C      -4.6731115011     0.0766331317    -0.3204409617
   35      C      -6.0634112188    -0.0490018813     0.3132374212
   36      C      -7.2110110872     0.2997733580    -0.6415468288
   37      C      -8.6012002283     0.1737225523    -0.0083280961
   38      H      -3.5791392189     0.3789385458     1.5165123383
   39      H      -3.6615715788    -1.2964340302     1.0041010244
   40      H      -4.6186870606    -0.5735560084    -1.2035893876
   41      H      -4.5361760211     1.1010838947    -0.6906745382
   42      H      -6.1179467933     0.6014108772     1.1961300619
   43      H      -6.2005290121    -1.0735875540     0.6835469401
   44      H      -7.1562138105    -0.3501908324    -1.5247474934
   45      H      -7.0741828899     1.3244199263    -1.0113305380
   46      H      -8.6571323260     0.8236868033     0.8749668928
   47      H      -8.7393261336    -0.8510337408     0.3613539654
   48      C      -9.7490373611     0.5227588046    -0.9626162758
   49      C     -11.1337919696     0.3936147549    -0.3206761215
   50      H      -9.6941204591    -0.1266631318    -1.8449972311
   51      H      -9.6121286328     1.5467344489    -1.3314351115
   52      H     -11.3143052879    -0.6287363970     0.0271151785
   53      H     -11.9294039324     0.6493749592    -1.0267732996
   54      H     -11.2315999701     1.0572859324     0.5445876346
 ----------------------------------------------------------------

   20   -1007.2295673941      7.27e-09  Convergence criterion met
 Total energy in the final basis set =    -1007.2295673941
   13   -1007.3118450382      4.82e-09  Convergence criterion met
 Total energy in the final basis set =    -1007.3118450382

                    Orbital Energies (a.u.)
 --------------------------------------------------------------

 Alpha MOs
 -- Occupied --
-19.0748 -19.0738 -10.2187 -10.2175 -10.1703 -10.1699 -10.1699 -10.1694
-10.1673 -10.1673 -10.1673 -10.1637 -10.1577 -10.1554 -10.1552 -10.1550
-10.1549 -10.1547 -10.1544 -10.1542 -10.1539 -10.1537 -10.1512 -10.1498
 -0.9998  -0.9968  -0.8556  -0.8184  -0.8072  -0.7932  -0.7733  -0.7549
 -0.7476  -0.7413  -0.7157  -0.6901  -0.6649  -0.6526  -0.6280  -0.5998
 -0.5907  -0.5759  -0.5730  -0.5671  -0.5661  -0.5484  -0.5129  -0.4872
 -0.4808  -0.4689  -0.4634  -0.4521  -0.4431  -0.4310  -0.4289  -0.4235
 -0.4224  -0.4173  -0.4151  -0.4125  -0.4044  -0.3977  -0.3947  -0.3924
 -0.3786  -0.3780  -0.3749  -0.3682  -0.3674  -0.3608  -0.3505  -0.3491
 -0.3425  -0.3386  -0.3342  -0.3327  -0.3247  -0.3235  -0.3213  -0.3174
 -0.3166  -0.3149  -0.3139  -0.2940  -0.2668  -0.2553  -0.2461  -0.2379
 -0.2336  -0.1501

 Beta MOs
 -- Occupied --
-19.0689 -19.0679 -10.2168 -10.2156 -10.1700 -10.1695 -10.1694 -10.1689
-10.1673 -10.1672 -10.1660 -10.1624 -10.1577 -10.1554 -10.1552 -10.1550
-10.1549 -10.1547 -10.1544 -10.1541 -10.1539 -10.1537 -10.1512 -10.1499
 -0.9894  -0.9862  -0.8535  -0.8153  -0.8068  -0.7926  -0.7726  -0.7535
 -0.7457  -0.7403  -0.7142  -0.6883  -0.6637  -0.6466  -0.6271  -0.5992
 -0.5891  -0.5745  -0.5726  -0.5670  -0.5656  -0.5457  -0.5109  -0.4849
 -0.4807  -0.4684  -0.4610  -0.4516  -0.4425  -0.4294  -0.4256  -0.4226
 -0.4212  -0.4137  -0.4129  -0.4078  -0.4030  -0.3955  -0.3924  -0.3879
 -0.3767  -0.3750  -0.3734  -0.3676  -0.3602  -0.3509  -0.3497  -0.3424
 -0.3389  -0.3362  -0.3330  -0.3305  -0.3242  -0.3225  -0.3211  -0.3173
 -0.3163  -0.3149  -0.3135  -0.2933  -0.2487  -0.2457  -0.2407  -0.2294
 -0.2276

          Ground-State Mulliken Net Atomic Charges

     Atom                 Charge (a.u.)    Spin (a.u.)
  --------------------------------------------------------
      1 C                     0.201038       0.036003
      2 C                    -0.468019       0.025633
      3 C                    -0.473257       0.028184
      4 C                     0.171263       0.008004
      5 C                    -0.239753       0.017295
      6 C                     0.092495       0.036988
      7 C                    -0.746102       0.110423
      8 C                     0.954609       0.088117
      9 C                     1.002508       0.084580
     10 C                    -0.833487       0.111460
     11 O                    -0.517759       0.217833
     12 O                    -0.493171       0.219073
     13 H                     0.199068      -0.002263
     14 C                    -0.491803       0.015081
     15 H                     0.197412      -0.002214
     16 C                    -0.555262      -0.002613
     17 C                    -1.018158       0.000677
     18 C                    -0.341083       0.005341
     19 C                    -0.031583      -0.003780
     20 H                     0.180253      -0.002279
     21 H                     0.179914      -0.002525
     22 H                     0.207694       0.003181
     23 H                     0.186927       0.000675
     24 H                     0.179870      -0.001537
     25 H                     0.169454       0.004379
     26 H                     0.187131       0.005997
     27 H                     0.135324      -0.000570
     28 H                     0.192366      -0.000426
     29 H                     0.125996       0.000214
     30 H                     0.117106      -0.000510
     31 H                     0.134092       0.000119
     32 H                     0.130323      -0.000185
     33 C                     0.029732      -0.000472
     34 C                     0.045889      -0.000106
     35 C                    -0.062355       0.000175
     36 C                    -0.301114       0.000030
     37 C                    -0.490706       0.000012
     38 H                     0.136674       0.000001
     39 H                     0.137394       0.000001
     40 H                     0.134053      -0.000005
     41 H                     0.134606       0.000005
     42 H                     0.133639       0.000004
     43 H                     0.133859      -0.000003
     44 H                     0.132052       0.000001
     45 H                     0.132058      -0.000001
     46 H                     0.128960      -0.000001
     47 H                     0.128747       0.000001
     48 C                    -0.296442      -0.000005
     49 C                    -0.710595       0.000002
     50 H                     0.136166       0.000000
     51 H                     0.136365      -0.000000
     52 H                     0.145479       0.000000
     53 H                     0.154653       0.000000
     54 H                     0.145478      -0.000000
  --------------------------------------------------------
  Sum of atomic charges =    -1.000000

                    Cartesian Multipole Moments
 -----------------------------------------------------------------
    Charge (ESU x 10^10)
                -4.8032
    Dipole Moment (Debye)
         X     -20.8726      Y       0.9268      Z      -0.3764
       Tot      20.8965
    Quadrupole Moments (Debye-Ang)
        XX    -254.5066     XY      21.5757     YY    -172.1961
        XZ       5.0908     YZ     -11.2066     ZZ    -162.4043

 Total job time:  657.84s(wall), 4832.41s(cpu)
        *  Thank you very much for using Q-Chem.  Have a nice day.  *
