 Gaussian 16, Revision A.03,
 Gaussian 16:  ES64L-G16RevA.03 25-Dec-2016

 ----------------------------------------------------------------------
 #P UB3LYP/6-311++G(d,p) nosym opt freq SCRF=(PCM,Solvent=n,n-DiMethylF
 ormamide)
 ----------------------------------------------------------------------

 -------
 Radical
 -------
 Symbolic Z-matrix:
 Charge = -1 Multiplicity = 2

 SCF Done:  E(UB3LYP) =  -2019.87869650     A.U. after   23 cycles
 SCF Done:  E(UB3LYP) =  -2019.87800600     A.U. after   23 cycles
 SCF Done:  E(UB3LYP) =  -2019.87997462     A.U. after   20 cycles
 SCF Done:  E(UB3LYP) =  -2019.88060182     A.U. after   17 cycles
 SCF Done:  E(UB3LYP) =  -2019.88071285     A.U. after   20 cycles
 SCF Done:  E(UB3LYP) =  -2019.88074783     A.U. after   17 cycles
 SCF Done:  E(UB3LYP) =  -2019.88077011     A.U. after   16 cycles
 SCF Done:  E(UB3LYP) =  -2019.88077642     A.U. after   17 cycles
 SCF Done:  E(UB3LYP) =  -2019.88077944     A.U. after   15 cycles
 SCF Done:  E(UB3LYP) =  -2019.88078045     A.U. after   16 cycles
 SCF Done:  E(UB3LYP) =  -2019.88078060     A.U. after   13 cycles
 SCF Done:  E(UB3LYP) =  -2019.88078061     A.U. after   14 cycles
 SCF Done:  E(UB3LYP) =  -2019.88078064     A.U. after   14 cycles
 SCF Done:  E(UB3LYP) =  -2019.88078068     A.U. after   14 cycles
 SCF Done:  E(UB3LYP) =  -2019.88078078     A.U. after   14 cycles
 SCF Done:  E(UB3LYP) =  -2019.88078088     A.U. after   13 cycles
 SCF Done:  E(UB3LYP) =  -2019.88078098     A.U. after   14 cycles
 SCF Done:  E(UB3LYP) =  -2019.88078100     A.U. after   12 cycles
 Optimization completed.
    -- Stationary point found.
 Normal termination of Gaussian 16 at Sat Feb 10 15:45:51 2024.

 ----------------------------------------------------------------------
 #P Geom=AllCheck Guess=TCheck SCRF=Check GenChk UB3LYP/6-311++G(d,p) F
 req
 ----------------------------------------------------------------------

 Structure from the checkpoint file:  "074-rad.chk"
 -------
 Radical
 -------
 Charge = -1 Multiplicity = 2

                          Input orientation:
 ---------------------------------------------------------------------
 Center     Atomic      Atomic             Coordinates (Angstroms)
 Number     Number       Type             X           Y           Z
 ---------------------------------------------------------------------
      1          6           0        0.604072    1.291788   -0.922011
      2          6           0       -0.734589    0.831144   -0.589485
      3          6           0       -1.021129   -0.460350   -0.199359
      4          6           0        0.090001   -1.404304   -0.034849
      5          6           0        1.462067   -0.976374   -0.328727
      6          6           0        1.675446    0.331567   -0.710141
      7          8           0        0.820357    2.441458   -1.366383
      8          8           0       -0.133482   -2.581265    0.361745
      9         16           0        3.326625    0.976952   -1.098496
     10          6           0        3.500301    2.535606   -0.200395
     11          6           0        3.765345    3.702217   -0.909444
     12          6           0        3.472823    2.513464    1.192588
     13          6           0        3.701148    3.698876    1.888549
     14          6           0        4.007091    4.878598   -0.202050
     15          6           0        3.971290    4.878110    1.192660
     16          8           0        3.431404    1.253101   -2.545589
     17          8           0        4.342052    0.071847   -0.519715
     18          1           0        3.774868    3.686207   -1.991277
     19          1           0        3.276724    1.592831    1.729045
     20          1           0        4.218118    5.794557   -0.741425
     21          1           0        3.675882    3.698072    2.971865
     22          1           0        4.154427    5.796598    1.738251
     23         16           0       -2.023280    2.085072   -0.837604
     24          6           0       -1.488684    3.564433    0.052224
     25          6           0       -1.328111    4.757279   -0.644535
     26          6           0       -1.357045    3.500504    1.437958
     27          6           0       -1.040137    4.662995    2.137843
     28          6           0       -1.026000    5.916498    0.067979
     29          6           0       -0.878673    5.869158    1.454531
     30          8           0       -2.135847    2.413274   -2.273095
     31          8           0       -3.259271    1.641420   -0.158790
     32          1           0       -1.432942    4.772342   -1.721338
     33          1           0       -1.498454    2.564987    1.965803
     34          1           0       -0.928361    4.626835    3.215066
     35          1           0       -0.901491    6.853824   -0.461512
     36          1           0       -0.638586    6.772304    2.003628
     37          6           0       -2.393960   -1.017964    0.072586
     38          6           0        2.519896   -2.039656   -0.187834
     39          1           0       -2.814976   -0.597925    0.989201
     40          1           0       -2.314956   -2.096471    0.187692
     41          1           0       -3.093317   -0.782502   -0.728696
     42          1           0        2.031236   -3.005445   -0.081668
     43          1           0        3.137800   -1.864226    0.696599
     44          1           0        3.194661   -2.058189   -1.042276
 ---------------------------------------------------------------------

 SCF Done:  E(UB3LYP) =  -2019.88078100     A.U. after    2 cycles

 Alpha  occ. eigenvalues --  -89.05538 -89.05532 -19.11979 -19.11966 -19.11696
 Alpha  occ. eigenvalues --  -19.11689 -19.09778 -19.09580 -10.25661 -10.24088
 Alpha  occ. eigenvalues --  -10.21688 -10.21684 -10.21159 -10.21157 -10.21071
 Alpha  occ. eigenvalues --  -10.21070 -10.19774 -10.19773 -10.19504 -10.19501
 Alpha  occ. eigenvalues --  -10.19097 -10.19097 -10.19036 -10.19036 -10.18966
 Alpha  occ. eigenvalues --  -10.18965 -10.16086 -10.16063  -8.11909  -8.11901
 Alpha  occ. eigenvalues --   -6.08183  -6.08176  -6.08083  -6.08075  -6.08011
 Alpha  occ. eigenvalues --   -6.08003  -1.11105  -1.11054  -1.02998  -1.02246
 Alpha  occ. eigenvalues --   -1.00444  -1.00401  -0.88015  -0.88006  -0.85905
 Alpha  occ. eigenvalues --   -0.81461  -0.78461  -0.78304  -0.76731  -0.76716
 Alpha  occ. eigenvalues --   -0.74364  -0.73124  -0.69888  -0.66324  -0.66216
 Alpha  occ. eigenvalues --   -0.62664  -0.62647  -0.61482  -0.61256  -0.57653
 Alpha  occ. eigenvalues --   -0.57598  -0.54211  -0.54124  -0.52383  -0.50951
 Alpha  occ. eigenvalues --   -0.49248  -0.48735  -0.48364  -0.47835  -0.46675
 Alpha  occ. eigenvalues --   -0.46079  -0.45909  -0.45738  -0.45230  -0.45044
 Alpha  occ. eigenvalues --   -0.44649  -0.44123  -0.44109  -0.42901  -0.41737
 Alpha  occ. eigenvalues --   -0.41615  -0.41193  -0.39995  -0.39131  -0.38902
 Alpha  occ. eigenvalues --   -0.38286  -0.38247  -0.38113  -0.37666  -0.37093
 Alpha  occ. eigenvalues --   -0.36535  -0.36528  -0.34436  -0.34406  -0.33171
 Alpha  occ. eigenvalues --   -0.32940  -0.31671  -0.31225  -0.30515  -0.30018
 Alpha  occ. eigenvalues --   -0.29822  -0.28281  -0.27504  -0.27469  -0.27460
 Alpha  occ. eigenvalues --   -0.26857  -0.26413  -0.24922  -0.18388
 Alpha virt. eigenvalues --   -0.05727  -0.04881  -0.03664  -0.03118  -0.02512
 Alpha virt. eigenvalues --   -0.00896  -0.00454   0.00070   0.00498   0.01010
 Alpha virt. eigenvalues --    0.01595   0.01887   0.02603   0.02779   0.02933

  Beta  occ. eigenvalues --  -89.05540 -89.05534 -19.11971 -19.11959 -19.11694
  Beta  occ. eigenvalues --  -19.11688 -19.09038 -19.08934 -10.25576 -10.23964
  Beta  occ. eigenvalues --  -10.21687 -10.21683 -10.21030 -10.21028 -10.20950
  Beta  occ. eigenvalues --  -10.20949 -10.19774 -10.19774 -10.19504 -10.19501
  Beta  occ. eigenvalues --  -10.19098 -10.19097 -10.19035 -10.19035 -10.18965
  Beta  occ. eigenvalues --  -10.18964 -10.16098 -10.16076  -8.11910  -8.11903
  Beta  occ. eigenvalues --   -6.08184  -6.08177  -6.08085  -6.08077  -6.08013
  Beta  occ. eigenvalues --   -6.08006  -1.11088  -1.11043  -1.02105  -1.00789
  Beta  occ. eigenvalues --   -1.00433  -1.00362  -0.88013  -0.88001  -0.85317
  Beta  occ. eigenvalues --   -0.81219  -0.78418  -0.78254  -0.76729  -0.76715
  Beta  occ. eigenvalues --   -0.73900  -0.72993  -0.69723  -0.66174  -0.65803
  Beta  occ. eigenvalues --   -0.62651  -0.62641  -0.61356  -0.61110  -0.57501
  Beta  occ. eigenvalues --   -0.57400  -0.54074  -0.54036  -0.52207  -0.50774
  Beta  occ. eigenvalues --   -0.49202  -0.48687  -0.48345  -0.47824  -0.46627
  Beta  occ. eigenvalues --   -0.45990  -0.45900  -0.45560  -0.45215  -0.44739
  Beta  occ. eigenvalues --   -0.44172  -0.44121  -0.43566  -0.42260  -0.41394
  Beta  occ. eigenvalues --   -0.41390  -0.40250  -0.39893  -0.39118  -0.38561
  Beta  occ. eigenvalues --   -0.38240  -0.38122  -0.37555  -0.36978  -0.36536
  Beta  occ. eigenvalues --   -0.36527  -0.35667  -0.34367  -0.34331  -0.33131
  Beta  occ. eigenvalues --   -0.32786  -0.31618  -0.31119  -0.30455  -0.29911
  Beta  occ. eigenvalues --   -0.28040  -0.27575  -0.27440  -0.27338  -0.26832
  Beta  occ. eigenvalues --   -0.26432  -0.25799  -0.24436
  Beta virt. eigenvalues --   -0.11225  -0.04861  -0.04829  -0.03145  -0.03106
  Beta virt. eigenvalues --   -0.02379  -0.00886   0.00062   0.00501   0.00787
  Beta virt. eigenvalues --    0.01331   0.01601   0.01989   0.02612   0.02926

 Mulliken charges and spin densities:
               1          2
     1  C   -0.133369   0.028668
     2  C   -0.270026   0.078049
     3  C    0.465940   0.128195
     4  C   -1.172151   0.038790
     5  C    0.473710   0.128874
     6  C   -0.255462   0.078587
     7  O   -0.190765   0.208473
     8  O   -0.381932   0.309826
     9  S    0.718949  -0.011388
    10  C    0.073488   0.003294
    11  C   -0.101678   0.003895
    12  C   -0.055064  -0.002132
    13  C   -0.431562   0.000767
    14  C   -0.433138  -0.000979
    15  C   -0.324744   0.000123
    16  O   -0.225464   0.003213
    17  O   -0.160367  -0.001151
    18  H    0.249273   0.000153
    19  H    0.241373  -0.000038
    20  H    0.220100  -0.000037
    21  H    0.224042  -0.000002
    22  H    0.200657   0.000018
    23  S    0.723753  -0.011444
    24  C    0.102019   0.003029
    25  C   -0.107882   0.004058
    26  C   -0.068470  -0.001809
    27  C   -0.434921   0.000800
    28  C   -0.434233  -0.000988
    29  C   -0.325694   0.000044
    30  O   -0.227184   0.003306
    31  O   -0.159173  -0.001104
    32  H    0.249313   0.000184
    33  H    0.241177  -0.000023
    34  H    0.224441  -0.000003
    35  H    0.220155  -0.000039
    36  H    0.200598   0.000019
    37  C   -0.544571  -0.004950
    38  C   -0.540267  -0.004964
    39  H    0.201084   0.006934
    40  H    0.178939  -0.002120
    41  H    0.194043   0.004406
    42  H    0.177705  -0.001802
    43  H    0.203036   0.007156
    44  H    0.194323   0.004114
 Sum of Mulliken charges =  -1.00000   1.00000

 Dipole moment (field-independent basis, Debye):
    X=             -0.9232    Y=              2.0906    Z=             10.5154  Tot=             10.7609
 Quadrupole moment (field-independent basis, Debye-Ang):
   XX=           -234.1068   YY=           -168.8459   ZZ=           -191.8599
   XY=             16.2561   XZ=             11.6286   YZ=             27.0312

  Exact polarizability: 388.064  33.522 549.397  -5.116 -18.271 369.092
 Approx polarizability: 402.529  41.814 609.939  -8.324 -51.936 460.915

                      1                      2                      3
                      A                      A                      A
 Frequencies --     16.8513                18.2827                31.3170
 Red. masses --      5.8541                 6.2150                 3.8919
 Frc consts  --      0.0010                 0.0012                 0.0022
 IR Inten    --      0.5004                 1.3600                 1.1342

                      4                      5                      6
                      A                      A                      A
 Frequencies --     34.0246                37.2944                40.4554
 Red. masses --      5.8602                 3.7561                 3.6788
 Frc consts  --      0.0040                 0.0031                 0.0035
 IR Inten    --      2.1370                 1.2311                 0.9955

                      7                      8                      9
                      A                      A                      A
 Frequencies --     61.2166                76.0506                87.8865
 Red. masses --      4.4027                 3.3808                 7.7156
 Frc consts  --      0.0097                 0.0115                 0.0351
 IR Inten    --      1.3155                10.4657                 2.9893

                     10                     11                     12
                      A                      A                      A
 Frequencies --    124.6687               124.9411               136.3033
 Red. masses --      2.1769                 1.1503                 2.0464
 Frc consts  --      0.0199                 0.0106                 0.0224
 IR Inten    --      2.0385                 0.1705                 3.9564

                     13                     14                     15
                      A                      A                      A
 Frequencies --    155.7473               171.7886               192.6312
 Red. masses --      5.9766                 7.0670                 7.1597
 Frc consts  --      0.0854                 0.1229                 0.1565
 IR Inten    --      1.3000                 3.3697                14.8365

                     16                     17                     18
                      A                      A                      A
 Frequencies --    205.9829               209.5719               219.6072
 Red. masses --      6.4917                 6.8768                 7.7649
 Frc consts  --      0.1623                 0.1780                 0.2206
 IR Inten    --      5.7873                 1.0750                 3.4205

                     19                     20                     21
                      A                      A                      A
 Frequencies --    232.7418               250.0899               271.4486
 Red. masses --      6.2129                12.4777                10.8089
 Frc consts  --      0.1983                 0.4598                 0.4693
 IR Inten    --      1.3203                 2.7401                 9.5289

                     22                     23                     24
                      A                      A                      A
 Frequencies --    275.5742               304.1394               308.2586
 Red. masses --      7.7759                 7.5037                 8.4391
 Frc consts  --      0.3479                 0.4089                 0.4725
 IR Inten    --      0.2148                 9.4822                 1.2896

                     25                     26                     27
                      A                      A                      A
 Frequencies --    332.1813               356.5339               374.4964
 Red. masses --      6.1597                 3.9952                 4.3994
 Frc consts  --      0.4005                 0.2992                 0.3635
 IR Inten    --      1.4669                 0.6387                15.2719

                     28                     29                     30
                      A                      A                      A
 Frequencies --    375.4031               408.3200               409.2488
 Red. masses --      4.9425                 2.9102                 2.8992
 Frc consts  --      0.4104                 0.2859                 0.2861
 IR Inten    --     19.1655                 1.4056                 0.9922

                     31                     32                     33
                      A                      A                      A
 Frequencies --    418.0752               420.2066               432.9933
 Red. masses --      5.5826                 8.0801                 6.0341
 Frc consts  --      0.5749                 0.8406                 0.6665
 IR Inten    --     18.4414                 2.5729                 8.4631

                     34                     35                     36
                      A                      A                      A
 Frequencies --    469.0981               471.8110               489.2223
 Red. masses --      6.8683                 5.9810                 6.3222
 Frc consts  --      0.8905                 0.7844                 0.8915
 IR Inten    --     20.5677                42.5541                11.2650

                     37                     38                     39
                      A                      A                      A
 Frequencies --    505.6473               529.5774               542.8844
 Red. masses --      6.9471                11.4032                 6.5225
 Frc consts  --      1.0465                 1.8842                 1.1326
 IR Inten    --     37.7194               161.2103               264.1548

                     40                     41                     42
                      A                      A                      A
 Frequencies --    572.0715               581.2791               591.5362
 Red. masses --      5.8429                 7.6415                 8.3641
 Frc consts  --      1.1266                 1.5212                 1.7244
 IR Inten    --     23.4017                12.0934               417.4440

                     43                     44                     45
                      A                      A                      A
 Frequencies --    625.8107               626.1016               679.1446
 Red. masses --      6.4602                 6.4701                 8.4999
 Frc consts  --      1.4907                 1.4943                 2.3099
 IR Inten    --      0.2746                 1.7511               100.0989

                     46                     47                     48
                      A                      A                      A
 Frequencies --    699.8899               700.2023               701.8937
 Red. masses --      2.2001                 2.6148                 3.2864
 Frc consts  --      0.6350                 0.7553                 0.9539
 IR Inten    --     22.3304               157.4281                20.5841

                     49                     50                     51
                      A                      A                      A
 Frequencies --    703.9217               717.8797               729.8841
 Red. masses --      5.8966                 6.4710                 5.7024
 Frc consts  --      1.7215                 1.9648                 1.7899
 IR Inten    --     15.3077               138.2383                32.4960

                     52                     53                     54
                      A                      A                      A
 Frequencies --    759.0262               761.2516               763.4432
 Red. masses --      1.9397                 1.7029                 4.5660
 Frc consts  --      0.6584                 0.5814                 1.5680
 IR Inten    --     17.7321                62.1150                24.5841

                     55                     56                     57
                      A                      A                      A
 Frequencies --    851.2364               851.8713               867.1327
 Red. masses --      1.2488                 1.2489                 3.7897
 Frc consts  --      0.5331                 0.5340                 1.6789
 IR Inten    --      0.0822                 0.2030                12.5498

                     58                     59                     60
                      A                      A                      A
 Frequencies --    937.8695               938.1558               979.8493
 Red. masses --      1.3405                 1.3416                 6.4502
 Frc consts  --      0.6947                 0.6957                 3.6487
 IR Inten    --      1.7670                 0.4960                 0.4908

                     61                     62                     63
                      A                      A                      A
 Frequencies --    983.9142               993.5262               994.0447
 Red. masses --      2.9063                 1.3823                 1.3838
 Frc consts  --      1.6577                 0.8039                 0.8056
 IR Inten    --     20.7933                 0.4543                 0.1098

                     64                     65                     66
                      A                      A                      A
 Frequencies --   1012.0698              1012.3529              1014.0856
 Red. masses --      5.2242                 4.9271                 1.3646
 Frc consts  --      3.1528                 2.9752                 0.8268
 IR Inten    --     23.6949                14.4307                 0.7297

                     67                     68                     69
                      A                      A                      A
 Frequencies --   1014.5182              1033.3122              1034.8982
 Red. masses --      1.3743                 5.0224                 3.5899
 Frc consts  --      0.8334                 3.1596                 2.2653
 IR Inten    --      0.2408               203.2004                61.6123

                     70                     71                     72
                      A                      A                      A
 Frequencies --   1040.1757              1041.2045              1047.2738
 Red. masses --      1.5104                 1.6338                 2.3022
 Frc consts  --      0.9629                 1.0435                 1.4877
 IR Inten    --     11.2438                 7.7179               171.9243

                     73                     74                     75
                      A                      A                      A
 Frequencies --   1053.0563              1054.8624              1092.7126
 Red. masses --      2.1977                 3.6790                 3.8669
 Frc consts  --      1.4359                 2.4120                 2.7203
 IR Inten    --    132.6521                82.4938                39.9659

                     76                     77                     78
                      A                      A                      A
 Frequencies --   1095.6413              1096.6945              1101.1985
 Red. masses --      1.6951                 1.6180                 3.2436
 Frc consts  --      1.1989                 1.1466                 2.3175
 IR Inten    --     37.8131                24.5971                74.0102

                     79                     80                     81
                      A                      A                      A
 Frequencies --   1101.5491              1167.4427              1178.0635
 Red. masses --      3.4192                 7.2571                 1.1143
 Frc consts  --      2.4445                 5.8276                 0.9111
 IR Inten    --    194.1087                27.2135                 0.0680

                     82                     83                     84
                      A                      A                      A
 Frequencies --   1178.5324              1191.3938              1192.0938
 Red. masses --      1.1137                 1.1646                 1.1687
 Frc consts  --      0.9114                 0.9740                 0.9785
 IR Inten    --      0.0774                 4.3561                 9.2565

                     85                     86                     87
                      A                      A                      A
 Frequencies --   1197.5322              1201.2984              1240.1282
 Red. masses --     12.7248                15.3353                 4.7674
 Frc consts  --     10.7517                13.0390                 4.3198
 IR Inten    --    523.1332               142.2226               187.6447

                     88                     89                     90
                      A                      A                      A
 Frequencies --   1327.2611              1327.5112              1341.0710
 Red. masses --      3.0107                 3.0694                 1.8097
 Frc consts  --      3.1249                 3.1870                 1.9176
 IR Inten    --      1.3059                 0.5210                 4.2488

                     91                     92                     93
                      A                      A                      A
 Frequencies --   1341.6118              1362.6622              1392.5059
 Red. masses --      1.7790                 4.8645                 1.2714
 Frc consts  --      1.8866                 5.3219                 1.4525
 IR Inten    --      8.1531               175.2165                52.3482

                     94                     95                     96
                      A                      A                      A
 Frequencies --   1397.3033              1454.3871              1465.3000
 Red. masses --      1.2128                 1.1928                 1.3294
 Frc consts  --      1.3952                 1.4865                 1.6817
 IR Inten    --     24.4127               258.5349                 0.5836

                     97                     98                     99
                      A                      A                      A
 Frequencies --   1472.5400              1473.4880              1474.4349
 Red. masses --      1.8173                 2.1180                 1.7085
 Frc consts  --      2.3217                 2.7093                 2.1884
 IR Inten    --     29.0680                50.9342                13.4575

                    100                    101                    102
                      A                      A                      A
 Frequencies --   1479.4156              1491.8392              1492.4873
 Red. masses --      1.0840                 2.0325                 4.2930
 Frc consts  --      1.3978                 2.6652                 5.6342
 IR Inten    --     20.5218                56.3709               441.0362

                    103                    104                    105
                      A                      A                      A
 Frequencies --   1505.2738              1505.6300              1536.1515
 Red. masses --      2.0419                 2.0408                 9.7948
 Frc consts  --      2.7259                 2.7258                13.6180
 IR Inten    --      6.9775                 6.9935               234.3790

                    106                    107                    108
                      A                      A                      A
 Frequencies --   1598.2428              1618.0772              1618.2819
 Red. masses --      9.5272                 5.4372                 5.4311
 Frc consts  --     14.3384                 8.3873                 8.3801
 IR Inten    --    285.3004                 0.7398                 0.5232

                    109                    110                    111
                      A                      A                      A
 Frequencies --   1623.7001              1623.9046              3048.8083
 Red. masses --      5.9147                 5.9119                 1.0433
 Frc consts  --      9.1874                 9.1854                 5.7138
 IR Inten    --      0.5191                 0.6583                21.1316

                    112                    113                    114
                      A                      A                      A
 Frequencies --   3051.1889              3108.3170              3109.6692
 Red. masses --      1.0410                 1.0939                 1.0909
 Frc consts  --      5.7100                 6.2272                 6.2153
 IR Inten    --     18.4929                18.0743                21.4610

                    115                    116                    117
                      A                      A                      A
 Frequencies --   3148.6353              3149.6200              3172.8036
 Red. masses --      1.1020                 1.1024                 1.0864
 Frc consts  --      6.4369                 6.4431                 6.4433
 IR Inten    --      6.6112                14.0546                 0.1847

                    118                    119                    120
                      A                      A                      A
 Frequencies --   3172.8841              3181.4607              3181.5052
 Red. masses --      1.0864                 1.0889                 1.0889
 Frc consts  --      6.4436                 6.4938                 6.4939
 IR Inten    --      0.3834                 0.9626                16.9420

                    121                    122                    123
                      A                      A                      A
 Frequencies --   3189.0013              3189.0539              3196.9568
 Red. masses --      1.0930                 1.0930                 1.0970
 Frc consts  --      6.5490                 6.5492                 6.6060
 IR Inten    --      1.4187                28.3740                 0.0137

                    124                    125                    126
                      A                      A                      A
 Frequencies --   3197.0113              3209.1021              3209.3241
 Red. masses --      1.0970                 1.0937                 1.0936
 Frc consts  --      6.6061                 6.6361                 6.6367
 IR Inten    --     29.8413                 6.2546                 7.7708

 - Thermochemistry -
 -------------------
 Temperature   298.150 Kelvin.  Pressure   1.00000 Atm.
 Atom     1 has atomic number  6 and mass  12.00000

 Molecular mass:   416.03883 amu.
 Principal axes and moments of inertia in atomic units:
                           1         2         3
     Eigenvalues --  9591.58310********************
           X            0.97566   0.21876   0.01557
           Y           -0.21298   0.96203  -0.17067
           Z           -0.05231   0.16320   0.98520
 This molecule is an asymmetric top.
 Rotational symmetry number  1.
 Warning -- assumption of classical behavior for rotation
           may cause significant error
 Rotational temperatures (Kelvin)      0.00903     0.00824     0.00518
 Rotational constants (GHZ):           0.18816     0.17167     0.10785
 Zero-point vibrational energy     834778.2 (Joules/Mol)
                                  199.51679 (Kcal/Mol)
 Warning -- explicit consideration of  42 degrees of freedom as
           vibrations may cause significant error
 Vibrational temperatures:     24.25    26.30    45.06    48.95    53.66
          (Kelvin)             58.21    88.08   109.42   126.45   179.37
                              179.76   196.11   224.09   247.17   277.15
                              296.36   301.53   315.97   334.86   359.82
                              390.55   396.49   437.59   443.52   477.93
                              512.97   538.82   540.12   587.48   588.82
                              601.52   604.58   622.98   674.93   678.83
                              703.88   727.51   761.94   781.09   823.08
                              836.33   851.09   900.40   900.82   977.14
                             1006.99  1007.43  1009.87  1012.79  1032.87
                             1050.14  1092.07  1095.27  1098.42  1224.74
                             1225.65  1247.61  1349.39  1349.80  1409.78
                             1415.63  1429.46  1430.21  1456.14  1456.55
                             1459.04  1459.67  1486.71  1488.99  1496.58
                             1498.06  1506.79  1515.11  1517.71  1572.17
                             1576.38  1577.90  1584.38  1584.88  1679.69
                             1694.97  1695.65  1714.15  1715.16  1722.98
                             1728.40  1784.27  1909.63  1909.99  1929.50
                             1930.28  1960.57  2003.51  2010.41  2092.54
                             2108.24  2118.66  2120.02  2121.38  2128.55
                             2146.42  2147.36  2165.75  2166.27  2210.18
                             2299.51  2328.05  2328.35  2336.14  2336.44
                             4386.56  4389.98  4472.17  4474.12  4530.18
                             4531.60  4564.96  4565.07  4577.41  4577.48
                             4588.26  4588.34  4599.71  4599.79  4617.18
                             4617.50

 Zero-point correction=                           0.317950 (Hartree/Particle)
 Thermal correction to Energy=                    0.343877
 Thermal correction to Enthalpy=                  0.344821
 Thermal correction to Gibbs Free Energy=         0.258460
 Sum of electronic and zero-point Energies=          -2019.562831
 Sum of electronic and thermal Energies=             -2019.536904
 Sum of electronic and thermal Enthalpies=           -2019.535960
 Sum of electronic and thermal Free Energies=        -2019.622321

                     E (Thermal)             CV                S
                      KCal/Mol        Cal/Mol-Kelvin    Cal/Mol-Kelvin
 Total                  215.786             97.860            181.761
 Electronic               0.000              0.000              1.377
 Translational            0.889              2.981             43.967
 Rotational               0.889              2.981             35.777
 Vibrational            214.008             91.898            100.639
 Vibration     1          0.593              1.986              6.974
 Vibration     2          0.593              1.986              6.812
 Vibration     3          0.594              1.983              5.744
 Vibration     4          0.594              1.983              5.580
 Vibration     5          0.594              1.982              5.398
 Vibration     6          0.594              1.981              5.237
 Vibration     7          0.597              1.973              4.418
 Vibration     8          0.599              1.965              3.990
 Vibration     9          0.601              1.958              3.707
 Vibration    10          0.610              1.928              3.027
 Vibration    11          0.610              1.928              3.022
 Vibration    12          0.614              1.917              2.855
 Vibration    13          0.620              1.896              2.601
 Vibration    14          0.626              1.877              2.416
 Vibration    15          0.635              1.850              2.202
 Vibration    16          0.640              1.831              2.079
 Vibration    17          0.642              1.826              2.047
 Vibration    18          0.647              1.811              1.962
 Vibration    19          0.653              1.791              1.858
 Vibration    20          0.663              1.763              1.730
 Vibration    21          0.675              1.726              1.587
 Vibration    22          0.677              1.719              1.561
 Vibration    23          0.695              1.666              1.394
 Vibration    24          0.698              1.658              1.372
 Vibration    25          0.714              1.611              1.249
 Vibration    26          0.732              1.562              1.137
 Vibration    27          0.746              1.524              1.061
 Vibration    28          0.746              1.523              1.058
 Vibration    29          0.773              1.452              0.933
 Vibration    30          0.774              1.450              0.929
 Vibration    31          0.781              1.431              0.899
 Vibration    32          0.783              1.426              0.891
 Vibration    33          0.794              1.398              0.849
 Vibration    34          0.826              1.319              0.740
 Vibration    35          0.829              1.313              0.732
 Vibration    36          0.845              1.274              0.686
 Vibration    37          0.861              1.237              0.644
 Vibration    38          0.885              1.185              0.588
 Vibration    39          0.898              1.155              0.559
 Vibration    40          0.928              1.092              0.500
 Vibration    41          0.938              1.072              0.483
 Vibration    42          0.949              1.050              0.464

                           ! Non-Optimized Parameters !
 Normal termination of Gaussian 16 at Sat Feb 10 20:09:28 2024.
