 Q-Chem 5.4, Q-Chem, Inc., Pleasanton, CA (2021)
 Q-Chem 5.4.0 for Intel X86 EM64T Linux

User input:
--------------------------------------------------------------
$molecule
-1 2
C                 -1.0894580000      0.7787010000     -3.0714360000
C                 -1.9200780000      1.0754730000     -1.9162290000
C                  0.3170340000      0.6433310000     -2.7308980000
C                  0.7607990000      0.4796370000     -1.4454480000
C                 -0.2073770000      0.2485320000     -0.3680110000
C                 -1.4886930000      0.9142270000     -0.6262470000
C                  0.0591110000     -0.5496940000      0.7872880000
C                 -0.9090770000     -0.7809580000      1.8646830000
C                  1.3404600000     -1.2153260000      1.0455020000
C                 -0.4653240000     -0.9447410000      3.1501270000
C                  1.7718260000     -1.3766530000      2.3354800000
C                  0.9411690000     -1.0800160000      3.4906890000
O                 -1.5131650000      0.8044650000     -4.2486160000
O                  1.3648440000     -1.1058920000      4.6678810000
C                  2.2264150000      0.7965990000     -1.1640310000
C                  2.4982240000      2.3124590000     -1.2563620000
C                  3.9558310000      2.6750570000     -0.9494920000
C                  4.2354020000      4.1788790000     -1.0398840000
C                  2.1002600000     -1.9624460000     -0.0463920000
C                  1.8477060000     -3.4821160000      0.0370150000
C                  2.5706150000     -4.2664600000     -1.0641090000
C                  2.3260000000     -5.7771800000     -0.9888350000
C                 -2.3746640000     -1.0980330000      1.5832130000
C                 -2.6463880000     -2.6139020000      1.6755540000
C                 -4.1039570000     -2.9765880000      1.3685960000
C                 -4.3834500000     -4.4804240000      1.4590080000
C                 -2.2483520000      1.6615860000      0.4655740000
C                 -1.9956070000      3.1812160000      0.3819260000
C                 -2.7183640000      3.9658190000      1.4829630000
C                 -2.4735490000      5.4764950000      1.4074540000
H                 -2.8799670000      1.5429750000     -2.1204200000
H                  1.0253210000      0.7884920000     -3.5426170000
H                 -1.1736150000     -1.0900360000      3.9618170000
H                  2.7317490000     -1.8440920000      2.5396520000
H                  2.8754780000      0.2802020000     -1.8813630000
H                  2.5220350000      0.4699090000     -0.1690310000
H                  1.8374340000      2.8353810000     -0.5546550000
H                  2.2308860000      2.6732980000     -2.2556440000
H                  4.6156440000      2.1398380000     -1.6445200000
H                  4.2154400000      2.3155950000      0.0535860000
H                  4.0153300000      4.5618220000     -2.0419120000
H                  5.2825540000      4.4082500000     -0.8176610000
H                  3.6152330000      4.7376200000     -0.3314730000
H                  3.1780400000     -1.7810830000      0.0430910000
H                  1.7996530000     -1.6336560000     -1.0391980000
H                  0.7691010000     -3.6672710000     -0.0321730000
H                  2.1596990000     -3.8528510000      1.0195850000
H                  3.6484740000     -4.0687400000     -1.0007930000
H                  2.2504600000     -3.8937020000     -2.0445940000
H                  2.6658240000     -6.1849740000     -0.0310400000
H                  2.8545270000     -6.3112040000     -1.7850810000
H                  1.2601350000     -6.0083800000     -1.0843620000
H                 -2.6702310000     -0.7713730000      0.5881830000
H                 -3.0238160000     -0.5816600000      2.3004790000
H                 -2.3790990000     -2.9747170000      2.6748570000
H                 -1.9855220000     -3.1368050000      0.9739020000
H                 -4.3635230000     -2.6171640000      0.3654940000
H                 -4.7638440000     -2.4413900000      2.0635700000
H                 -3.7632030000     -5.0391480000      0.7506510000
H                 -5.4305750000     -4.7098590000      1.2367210000
H                 -4.1634230000     -4.8633300000      2.4610590000
H                 -1.9477490000      1.3329140000      1.4584170000
H                 -3.3261580000      1.4803480000      0.3761500000
H                 -2.3075970000      3.5518380000     -0.6006870000
H                 -0.9169750000      3.3662390000      0.4510400000
H                 -2.3982150000      3.5931640000      2.4634900000
H                 -3.7962530000      3.7682350000      1.4197240000
H                 -1.4076490000      5.7075660000      1.5029010000
H                 -3.0019700000      6.0107080000      2.2036450000
H                 -2.8133610000      5.8841920000      0.4496140000
$end
$rem
MAX_SCF_CYCLES=200
BASIS  =  6-311++G(d,p)
GUI  =  2
JOB_TYPE  =  SP
METHOD  =  B3LYP
SCF_CONVERGENCE  = 6
SOLVENT_METHOD = COSMO
$end
$solvent
dielectric 37.219
opticaldielectric 1.43
$end

--------------------------------------------------------------

             Standard Nuclear Orientation (Angstroms)
    I     Atom           X                Y                Z
 ----------------------------------------------------------------
    1      C      -1.5814446814    -0.0009000198    -3.1872544389
    2      C      -1.5073268848    -1.2110466318    -2.3856571916
    3      C      -1.5109224436     1.2086822936    -2.3844791568
    4      C      -1.0894627637     1.2153999533    -1.0812403396
    5      C      -0.5104035988    -0.0006060898    -0.5001512212
    6      C      -1.0858962437    -1.2177377239    -1.0823927154
    7      C       0.5104312682     0.0003924404     0.5002444795
    8      C       1.0896351040    -1.2155819104     1.0812611073
    9      C       1.0858544794     1.2175506346     1.0824899151
   10      C       1.5111804933    -1.2088572900     2.3844733454
   11      C       1.5073642905     1.2108579192     2.3857285556
   12      C       1.5816166523     0.0007007541     3.1872886703
   13      O      -1.8457885789    -0.0006980270    -4.4103923792
   14      O       1.8460747994     0.0004853188     4.4104047400
   15      C      -1.4758427661     2.4180618155    -0.2256670606
   16      C      -2.9890861411     2.4273292832     0.0747414737
   17      C      -3.4126227875     3.6057977148     0.9591019986
   18      C      -4.9145602308     3.6237540933     1.2618770802
   19      C       1.4689074442     2.4220391738     0.2279756516
   20      C       2.9817489181     2.4342587298    -0.0741807926
   21      C       3.4022523716     3.6144655989    -0.9576713628
   22      C       4.9037016497     3.6351492452    -1.2626301203
   23      C       1.4761085891    -2.4181787689     0.2256290530
   24      C       2.9893544807    -2.4273694262    -0.0747407538
   25      C       3.4129511723    -3.6057572525    -0.9591839186
   26      C       4.9148990632    -3.6236457570    -1.2619146835
   27      C      -1.4692117020    -2.4221144150    -0.2278481510
   28      C      -2.9820915835    -2.4340690836     0.0741516997
   29      C      -3.4028813076    -3.6141528260     0.9576676266
   30      C      -4.9043646002    -3.6345645672     1.2624778188
   31      H      -1.9109013406    -2.1136176500    -2.8374670991
   32      H      -1.9170917432     2.1104942037    -2.8354688507
   33      H       1.9174726338    -2.1106389951     2.8354100225
   34      H       1.9108699310     2.1134554114     2.8375455047
   35      H      -1.2146189108     3.3525106100    -0.7366282976
   36      H      -0.9516832788     2.4150354904     0.7279524724
   37      H      -3.2591735844     1.4861290721     0.5683794905
   38      H      -3.5500979007     2.4517850610    -0.8659532834
   39      H      -3.1289618707     4.5460606303     0.4688789598
   40      H      -2.8512513308     3.5726724077     1.9006645499
   41      H      -5.5023397424     3.6888365937     0.3402390530
   42      H      -5.1883573068     4.4753822825     1.8929761351
   43      H      -5.2217231450     2.7113865543     1.7833017214
   44      H       1.2065580493     3.3553230256     0.7404827446
   45      H       0.9437490154     2.4193394010    -0.7250891532
   46      H       3.2527080931     1.4940607733    -0.5692232427
   47      H       3.5438072541     2.4584835954     0.8658891304
   48      H       3.1178281343     4.5536884123    -0.4658934677
   49      H       2.8395634649     3.5816308741    -1.8984697796
   50      H       5.4927985346     3.7001138585    -0.3418195976
   51      H       5.1751831113     4.4879489581    -1.8931541726
   52      H       5.2115229582     2.7238891550    -1.7856006128
   53      H       0.9519655338    -2.4150879547    -0.7280039017
   54      H       1.2149010610    -3.3526832680     0.7364929072
   55      H       3.5503530411    -2.4518818847     0.8659595780
   56      H       3.2594290988    -1.4861209201    -0.5682971305
   57      H       2.8516063190    -3.5725772780    -1.9007596126
   58      H       3.1293050500    -4.5460665911    -0.4690412478
   59      H       5.2220506420    -2.7112273776    -1.7832582336
   60      H       5.1887398727    -4.4752159123    -1.8930740746
   61      H       5.5026528990    -3.6887842564    -0.3402653486
   62      H      -0.9441579401    -2.4194520531     0.7252710068
   63      H      -1.2069662411    -3.3554646798    -0.7402876493
   64      H      -3.5440514179    -2.4582563425    -0.8659774700
   65      H      -3.2529437620    -1.4937974776     0.5691119518
   66      H      -2.8402811838    -3.5813563426     1.8985213986
   67      H      -3.1185669076    -4.5534537923     0.4659743063
   68      H      -5.2120840539    -2.7232219537     1.7853641596
   69      H      -5.1760524316    -4.4872818349     1.8930262901
   70      H      -5.4933798199    -3.6994854643     0.3416125448
 ----------------------------------------------------------------

   12   -1241.8803169577      5.47e-07  Convergence criterion met
 Total energy in the final basis set =    -1241.8803169577
    7   -1241.9623854164      7.85e-07  Convergence criterion met
 Total energy in the final basis set =    -1241.9623854164

                    Orbital Energies (a.u.)
 --------------------------------------------------------------

 Alpha MOs
 -- Occupied --
-19.0802 -19.0802 -10.2255 -10.2255 -10.1862 -10.1858 -10.1832 -10.1832
-10.1832 -10.1832 -10.1630 -10.1630 -10.1629 -10.1629 -10.1586 -10.1586
-10.1586 -10.1586 -10.1583 -10.1583 -10.1583 -10.1583 -10.1514 -10.1514
-10.1514 -10.1514 -10.1508 -10.1508 -10.1508 -10.1508  -1.0055  -1.0055
 -0.8658  -0.8372  -0.8099  -0.8012  -0.7885  -0.7862  -0.7643  -0.7582
 -0.7454  -0.7258  -0.7239  -0.6979  -0.6976  -0.6744  -0.6435  -0.6425
 -0.6271  -0.6234  -0.5825  -0.5785  -0.5773  -0.5751  -0.5731  -0.5626
 -0.5500  -0.5464  -0.5065  -0.4923  -0.4745  -0.4669  -0.4653  -0.4565
 -0.4537  -0.4455  -0.4403  -0.4309  -0.4297  -0.4291  -0.4283  -0.4216
 -0.4144  -0.4131  -0.4131  -0.4128  -0.4034  -0.3993  -0.3982  -0.3975
 -0.3971  -0.3841  -0.3801  -0.3788  -0.3696  -0.3678  -0.3665  -0.3645
 -0.3531  -0.3517  -0.3497  -0.3488  -0.3422  -0.3363  -0.3339  -0.3323
 -0.3278  -0.3270  -0.3237  -0.3224  -0.3210  -0.3205  -0.3193  -0.3167
 -0.3155  -0.3050  -0.2792  -0.2442  -0.2428  -0.2299  -0.2286  -0.2257
 -0.1512

 Beta MOs
 -- Occupied --
-19.0765 -19.0765 -10.2247 -10.2247 -10.1842 -10.1838 -10.1826 -10.1826
-10.1825 -10.1825 -10.1630 -10.1630 -10.1630 -10.1630 -10.1586 -10.1586
-10.1586 -10.1586 -10.1582 -10.1582 -10.1582 -10.1582 -10.1514 -10.1514
-10.1514 -10.1514 -10.1501 -10.1501 -10.1501 -10.1501  -0.9989  -0.9989
 -0.8619  -0.8342  -0.8093  -0.8008  -0.7880  -0.7856  -0.7636  -0.7574
 -0.7407  -0.7250  -0.7228  -0.6970  -0.6968  -0.6690  -0.6429  -0.6415
 -0.6263  -0.6220  -0.5819  -0.5784  -0.5747  -0.5744  -0.5729  -0.5609
 -0.5478  -0.5447  -0.5051  -0.4911  -0.4741  -0.4663  -0.4650  -0.4561
 -0.4509  -0.4432  -0.4392  -0.4297  -0.4288  -0.4278  -0.4260  -0.4213
 -0.4128  -0.4125  -0.4124  -0.4122  -0.4018  -0.3971  -0.3962  -0.3957
 -0.3912  -0.3791  -0.3790  -0.3785  -0.3686  -0.3675  -0.3601  -0.3586
 -0.3528  -0.3509  -0.3485  -0.3467  -0.3420  -0.3361  -0.3337  -0.3309
 -0.3267  -0.3266  -0.3235  -0.3222  -0.3207  -0.3203  -0.3191  -0.3164
 -0.3068  -0.3038  -0.2658  -0.2408  -0.2395  -0.2260  -0.2243  -0.2067

          Ground-State Mulliken Net Atomic Charges

     Atom                 Charge (a.u.)    Spin (a.u.)
  --------------------------------------------------------
      1 C                    -0.448290       0.074112
      2 C                    -0.354241       0.061841
      3 C                    -0.353907       0.061841
      4 C                     1.182766       0.036625
      5 C                    -0.037947       0.116953
      6 C                     1.185128       0.036608
      7 C                    -0.037804       0.116583
      8 C                     1.183204       0.036783
      9 C                     1.187523       0.036859
     10 C                    -0.354609       0.061712
     11 C                    -0.355822       0.061674
     12 C                    -0.448693       0.074139
     13 O                    -0.546110       0.129456
     14 O                    -0.545985       0.129446
     15 C                    -0.432277      -0.017678
     16 C                    -0.716489       0.009411
     17 C                    -0.191565      -0.001806
     18 C                    -0.709246       0.000298
     19 C                    -0.435628      -0.017658
     20 C                    -0.714637       0.009386
     21 C                    -0.192452      -0.001811
     22 C                    -0.708524       0.000306
     23 C                    -0.432726      -0.017666
     24 C                    -0.716315       0.009349
     25 C                    -0.191746      -0.001798
     26 C                    -0.709055       0.000294
     27 C                    -0.434639      -0.017622
     28 C                    -0.715141       0.009340
     29 C                    -0.192013      -0.001806
     30 C                    -0.708635       0.000295
     31 H                     0.203521      -0.004957
     32 H                     0.203588      -0.004963
     33 H                     0.203620      -0.004957
     34 H                     0.203583      -0.004947
     35 H                     0.220193       0.000823
     36 H                     0.102205       0.004607
     37 H                     0.046929       0.001214
     38 H                     0.173061      -0.000469
     39 H                     0.145931       0.000274
     40 H                     0.142450      -0.000381
     41 H                     0.144402       0.000017
     42 H                     0.157409       0.000066
     43 H                     0.150664      -0.000072
     44 H                     0.220009       0.000807
     45 H                     0.102317       0.004655
     46 H                     0.046431       0.001192
     47 H                     0.173348      -0.000462
     48 H                     0.145950       0.000274
     49 H                     0.142372      -0.000385
     50 H                     0.144373       0.000016
     51 H                     0.157410       0.000066
     52 H                     0.150650      -0.000072
     53 H                     0.102385       0.004614
     54 H                     0.220045       0.000830
     55 H                     0.173036      -0.000470
     56 H                     0.046709       0.001225
     57 H                     0.142458      -0.000380
     58 H                     0.145914       0.000274
     59 H                     0.150616      -0.000072
     60 H                     0.157398       0.000066
     61 H                     0.144454       0.000016
     62 H                     0.102448       0.004634
     63 H                     0.219769       0.000811
     64 H                     0.173233      -0.000463
     65 H                     0.046196       0.001204
     66 H                     0.142391      -0.000383
     67 H                     0.145920       0.000274
     68 H                     0.150630      -0.000072
     69 H                     0.157431       0.000065
     70 H                     0.144423       0.000016
  --------------------------------------------------------
  Sum of atomic charges =    -1.000000

                    Cartesian Multipole Moments
 -----------------------------------------------------------------
    Charge (ESU x 10^10)
                -4.8032
    Dipole Moment (Debye)
         X      -0.0033      Y       0.0010      Z      -0.0078
       Tot       0.0085
    Quadrupole Moments (Debye-Ang)
        XX    -209.8645     XY      -0.0212     YY    -180.6505
        XZ     -41.5535     YZ      -0.0027     ZZ    -302.0940

 Total job time:  1026.67s(wall), 7480.87s(cpu)
        *  Thank you very much for using Q-Chem.  Have a nice day.  *
