 Gaussian 16, Revision A.03,
 Gaussian 16:  ES64L-G16RevA.03 25-Dec-2016

 ----------------------------------------------------------------------
 #P UB3LYP/6-311++G(d,p) nosym opt freq SCRF=(PCM,Solvent=n,n-DiMethylF
 ormamide)
 ----------------------------------------------------------------------

 --------
 Oxidized
 --------
 Symbolic Z-matrix:
 Charge =  0 Multiplicity = 1

 SCF Done:  E(UB3LYP) =  -925.128361573     A.U. after   16 cycles
 SCF Done:  E(UB3LYP) =  -925.128437784     A.U. after   11 cycles
 SCF Done:  E(UB3LYP) =  -925.128441836     A.U. after   11 cycles
 SCF Done:  E(UB3LYP) =  -925.128448260     A.U. after   10 cycles
 SCF Done:  E(UB3LYP) =  -925.128449146     A.U. after   11 cycles
 SCF Done:  E(UB3LYP) =  -925.128449439     A.U. after   10 cycles
 SCF Done:  E(UB3LYP) =  -925.128449634     A.U. after   10 cycles
 SCF Done:  E(UB3LYP) =  -925.128449732     A.U. after   10 cycles
 SCF Done:  E(UB3LYP) =  -925.128449758     A.U. after    9 cycles
 Optimization completed.
    -- Stationary point found.
 Normal termination of Gaussian 16 at Sun Feb 11 02:37:02 2024.

 ----------------------------------------------------------------------
 #P Geom=AllCheck Guess=TCheck SCRF=Check GenChk UB3LYP/6-311++G(d,p) F
 req
 ----------------------------------------------------------------------

 Structure from the checkpoint file:  "286.chk"
 --------
 Oxidized
 --------
 Charge =  0 Multiplicity = 1

                          Input orientation:
 ---------------------------------------------------------------------
 Center     Atomic      Atomic             Coordinates (Angstroms)
 Number     Number       Type             X           Y           Z
 ---------------------------------------------------------------------
      1          6           0       -0.269645    3.847291   -0.219302
      2          6           0       -1.499229    3.246072   -0.475446
      3          6           0       -1.554921    1.896204   -0.824709
      4          6           0        0.904144    3.096089   -0.313252
      5          6           0        0.851673    1.735680   -0.664857
      6          6           0       -0.384203    1.143687   -0.918732
      7          6           0        2.211144    3.718251   -0.044132
      8          6           0        3.433249    2.870337   -0.163391
      9          6           0        3.407188    1.555842   -0.495354
     10          6           0        2.105280    0.917762   -0.768277
     11          8           0        2.362521    4.894085    0.273117
     12          8           0        2.041000   -0.269758   -1.073532
     13          1           0       -0.208198    4.893406    0.053379
     14          1           0       -2.410775    3.827084   -0.403280
     15          1           0       -2.511771    1.428252   -1.024227
     16          1           0       -0.419101    0.096065   -1.188991
     17          8           0        4.579933    3.519899    0.092167
     18          6           0        4.661238    0.736619   -0.625326
     19          6           0        5.237819    0.746363   -2.057778
     20          6           0        6.515407   -0.089869   -2.184286
     21          6           0        7.106557   -0.082100   -3.598615
     22          6           0        8.388279   -0.912571   -3.731522
     23          1           0        4.336632    4.438033    0.317462
     24          1           0        4.437837   -0.293390   -0.337483
     25          1           0        5.414153    1.121222    0.067375
     26          1           0        5.446045    1.780656   -2.353835
     27          1           0        4.480480    0.367047   -2.752487
     28          1           0        6.302025   -1.124096   -1.885510
     29          1           0        7.264973    0.286259   -1.476275
     30          1           0        7.314931    0.953536   -3.896782
     31          1           0        6.356551   -0.459262   -4.305750
     32          1           0        8.179856   -1.948740   -3.434857
     33          1           0        9.137289   -0.536330   -3.022616
     34          6           0        8.981703   -0.902080   -5.144714
     35          1           0        9.189252    0.134243   -5.442214
     36          1           0        8.233514   -1.279171   -5.854315
     37          6           0       10.264739   -1.729982   -5.280307
     38          6           0       10.850227   -1.711715   -6.695593
     39          1           0       10.057911   -2.765809   -4.984523
     40          1           0       11.012541   -1.353710   -4.571487
     41          1           0       10.137476   -2.114312   -7.422617
     42          1           0       11.763328   -2.310620   -6.758521
     43          1           0       11.099162   -0.691837   -7.006323
 ---------------------------------------------------------------------

 SCF Done:  E(UB3LYP) =  -925.128449758     A.U. after    2 cycles

 Alpha  occ. eigenvalues --  -19.18102 -19.15111 -19.13028 -10.29533 -10.28229
 Alpha  occ. eigenvalues --  -10.26924 -10.21327 -10.21215 -10.20548 -10.20382
 Alpha  occ. eigenvalues --  -10.20193 -10.20024 -10.20006 -10.17799 -10.16909
 Alpha  occ. eigenvalues --  -10.16291 -10.16172 -10.16096 -10.15996 -10.15946
 Alpha  occ. eigenvalues --  -10.15533  -1.11023  -1.06872  -1.06155  -0.89495
 Alpha  occ. eigenvalues --   -0.84625  -0.81237  -0.79734  -0.78274  -0.77784
 Alpha  occ. eigenvalues --   -0.74897  -0.71460  -0.69147  -0.66383  -0.65260
 Alpha  occ. eigenvalues --   -0.62557  -0.60778  -0.59566  -0.57806  -0.57608
 Alpha  occ. eigenvalues --   -0.57389  -0.54494  -0.52078  -0.49995  -0.48486
 Alpha  occ. eigenvalues --   -0.48027  -0.47352  -0.46898  -0.46451  -0.45531
 Alpha  occ. eigenvalues --   -0.44961  -0.44003  -0.42998  -0.42787  -0.42356
 Alpha  occ. eigenvalues --   -0.42138  -0.40901  -0.40811  -0.39469  -0.38961
 Alpha  occ. eigenvalues --   -0.38347  -0.37871  -0.37400  -0.36406  -0.35913
 Alpha  occ. eigenvalues --   -0.35837  -0.33636  -0.33632  -0.32499  -0.32458
 Alpha  occ. eigenvalues --   -0.32076  -0.31146  -0.30373  -0.29176  -0.28237
 Alpha  occ. eigenvalues --   -0.28056  -0.25853
 Alpha virt. eigenvalues --   -0.12792  -0.05860  -0.02811  -0.00974  -0.00298
 Alpha virt. eigenvalues --    0.00190   0.00635   0.00850   0.01329   0.01596
 Alpha virt. eigenvalues --    0.02137   0.02331   0.02464   0.03140   0.03461

  Beta  occ. eigenvalues --  -19.18102 -19.15111 -19.13028 -10.29533 -10.28229
  Beta  occ. eigenvalues --  -10.26924 -10.21327 -10.21215 -10.20548 -10.20382
  Beta  occ. eigenvalues --  -10.20193 -10.20024 -10.20006 -10.17799 -10.16909
  Beta  occ. eigenvalues --  -10.16291 -10.16172 -10.16096 -10.15996 -10.15946
  Beta  occ. eigenvalues --  -10.15533  -1.11023  -1.06872  -1.06155  -0.89495
  Beta  occ. eigenvalues --   -0.84625  -0.81237  -0.79734  -0.78274  -0.77784
  Beta  occ. eigenvalues --   -0.74897  -0.71460  -0.69147  -0.66383  -0.65260
  Beta  occ. eigenvalues --   -0.62557  -0.60778  -0.59566  -0.57806  -0.57608
  Beta  occ. eigenvalues --   -0.57389  -0.54494  -0.52078  -0.49995  -0.48486
  Beta  occ. eigenvalues --   -0.48027  -0.47352  -0.46898  -0.46451  -0.45531
  Beta  occ. eigenvalues --   -0.44961  -0.44003  -0.42998  -0.42787  -0.42356
  Beta  occ. eigenvalues --   -0.42138  -0.40901  -0.40811  -0.39469  -0.38961
  Beta  occ. eigenvalues --   -0.38347  -0.37871  -0.37400  -0.36406  -0.35913
  Beta  occ. eigenvalues --   -0.35837  -0.33636  -0.33632  -0.32499  -0.32458
  Beta  occ. eigenvalues --   -0.32076  -0.31146  -0.30373  -0.29176  -0.28237
  Beta  occ. eigenvalues --   -0.28056  -0.25853
  Beta virt. eigenvalues --   -0.12792  -0.05860  -0.02811  -0.00974  -0.00298
  Beta virt. eigenvalues --    0.00190   0.00635   0.00850   0.01329   0.01596
  Beta virt. eigenvalues --    0.02137   0.02331   0.02464   0.03140   0.03461

 Mulliken charges and spin densities:
               1          2
     1  C    0.164392  -0.000000
     2  C   -0.378808  -0.000000
     3  C   -0.394994  -0.000000
     4  C    0.547889  -0.000000
     5  C   -0.131659   0.000000
     6  C    0.154879  -0.000000
     7  C   -0.817386   0.000000
     8  C   -0.450740   0.000000
     9  C    1.905905  -0.000000
    10  C   -0.786096   0.000000
    11  O   -0.314744  -0.000000
    12  O   -0.281303  -0.000000
    13  H    0.191436   0.000000
    14  H    0.211474  -0.000000
    15  H    0.207676  -0.000000
    16  H    0.192240   0.000000
    17  O   -0.219934  -0.000000
    18  C   -0.376449   0.000000
    19  C   -0.725205  -0.000000
    20  C   -0.112401   0.000000
    21  C    0.020849   0.000000
    22  C   -0.129715  -0.000000
    23  H    0.307820   0.000000
    24  H    0.219718  -0.000000
    25  H    0.233179  -0.000000
    26  H    0.177460   0.000000
    27  H    0.179317   0.000000
    28  H    0.120416   0.000000
    29  H    0.117257   0.000000
    30  H    0.126526   0.000000
    31  H    0.126887  -0.000000
    32  H    0.129884   0.000000
    33  H    0.129090   0.000000
    34  C   -0.342550  -0.000000
    35  H    0.124010  -0.000000
    36  H    0.124050  -0.000000
    37  C   -0.251913  -0.000000
    38  C   -0.686445   0.000000
    39  H    0.131061   0.000000
    40  H    0.130981   0.000000
    41  H    0.139978  -0.000000
    42  H    0.145990  -0.000000
    43  H    0.139977  -0.000000
 Sum of Mulliken charges =  -0.00000  -0.00000

 Dipole moment (field-independent basis, Debye):
    X=             -2.5489    Y=              1.5251    Z=              0.0218  Tot=              2.9704
 Quadrupole moment (field-independent basis, Debye-Ang):
   XX=           -121.4826   YY=           -130.4863   ZZ=           -130.9670
   XY=             -4.1665   XZ=              2.2356   YZ=             -2.3630

  Exact polarizability: 361.807 -11.370 350.347  -2.226  44.353 222.672
 Approx polarizability: 378.738   9.189 444.108  14.084  57.738 244.391

                      1                      2                      3
                      A                      A                      A
 Frequencies --     14.1903                22.8496                29.5217
 Red. masses --      5.2377                 5.2940                 1.5846
 Frc consts  --      0.0006                 0.0016                 0.0008
 IR Inten    --      0.2332                 1.1692                 0.0206

                      4                      5                      6
                      A                      A                      A
 Frequencies --     43.2881                56.6409                78.8134
 Red. masses --      3.6107                 5.5880                 5.9291
 Frc consts  --      0.0040                 0.0106                 0.0217
 IR Inten    --      0.3627                 5.0142                 2.2384

                      7                      8                      9
                      A                      A                      A
 Frequencies --     92.5871               102.5105               111.3345
 Red. masses --      1.6826                 2.5857                 4.6594
 Frc consts  --      0.0085                 0.0160                 0.0340
 IR Inten    --      0.1551                 0.1414                 0.2381

                     10                     11                     12
                      A                      A                      A
 Frequencies --    123.2674               147.4190               155.6972
 Red. masses --      6.3863                 1.7830                 2.1613
 Frc consts  --      0.0572                 0.0228                 0.0309
 IR Inten    --      0.0433                 0.0072                 0.0570

                     13                     14                     15
                      A                      A                      A
 Frequencies --    162.9796               174.7874               242.6863
 Red. masses --      3.7524                 6.5790                 1.1213
 Frc consts  --      0.0587                 0.1184                 0.0389
 IR Inten    --      0.0839                 1.1921                 0.0017

                     16                     17                     18
                      A                      A                      A
 Frequencies --    249.0575               253.2910               306.0709
 Red. masses --      4.3382                 4.3657                 2.9065
 Frc consts  --      0.1585                 0.1650                 0.1604
 IR Inten    --      0.1198                 0.4417                 6.6953

                     19                     20                     21
                      A                      A                      A
 Frequencies --    310.0708               335.1483               362.1037
 Red. masses --      3.6083                 4.8713                 5.1134
 Frc consts  --      0.2044                 0.3224                 0.3950
 IR Inten    --      0.5840                 8.6463                14.8343

                     22                     23                     24
                      A                      A                      A
 Frequencies --    387.1365               414.2046               419.4187
 Red. masses --      9.8043                 4.0914                 8.4830
 Frc consts  --      0.8658                 0.4136                 0.8792
 IR Inten    --     33.6348                14.5603                10.3043

                     25                     26                     27
                      A                      A                      A
 Frequencies --    441.1921               449.8231               466.9491
 Red. masses --      3.8653                 4.1013                 4.3960
 Frc consts  --      0.4433                 0.4889                 0.5647
 IR Inten    --      6.5156                 1.6685                 7.1372

                     28                     29                     30
                      A                      A                      A
 Frequencies --    488.2558               526.5722               582.4671
 Red. masses --      4.2432                 6.7889                 2.5867
 Frc consts  --      0.5960                 1.1091                 0.5170
 IR Inten    --      4.6860                 6.3357                69.3525

                     31                     32                     33
                      A                      A                      A
 Frequencies --    606.7542               653.4310               676.1312
 Red. masses --      1.4402                 6.3587                 5.9863
 Frc consts  --      0.3124                 1.5996                 1.6124
 IR Inten    --     73.3664                 8.9214                 5.2811

                     34                     35                     36
                      A                      A                      A
 Frequencies --    705.7975               711.5614               728.7944
 Red. masses --      3.0699                 4.6763                 1.0681
 Frc consts  --      0.9010                 1.3950                 0.3343
 IR Inten    --      3.0337                 8.9603                15.0793

                     37                     38                     39
                      A                      A                      A
 Frequencies --    732.8849               734.3304               750.2149
 Red. masses --      1.1607                 2.3433                 1.2312
 Frc consts  --      0.3673                 0.7445                 0.4083
 IR Inten    --      1.5714               113.0864                 4.1478

                     40                     41                     42
                      A                      A                      A
 Frequencies --    773.4239               790.2964               806.1627
 Red. masses --      7.4595                 1.3208                 1.9859
 Frc consts  --      2.6290                 0.4861                 0.7604
 IR Inten    --      1.7467                 0.8800                16.0099

                     43                     44                     45
                      A                      A                      A
 Frequencies --    842.6085               887.9230               893.9081
 Red. masses --      1.7505                 1.7800                 1.9728
 Frc consts  --      0.7322                 0.8269                 0.9288
 IR Inten    --      7.7524                22.9135                 3.9582

                     46                     47                     48
                      A                      A                      A
 Frequencies --    910.6799               946.3594               952.4356
 Red. masses --      1.3434                 4.3857                 1.4906
 Frc consts  --      0.6564                 2.3142                 0.7967
 IR Inten    --      0.0221                52.8804                14.7670

                     49                     50                     51
                      A                      A                      A
 Frequencies --    985.6737               997.7603              1002.4411
 Red. masses --      4.5539                 1.3906                 3.9861
 Frc consts  --      2.6067                 0.8157                 2.3600
 IR Inten    --     18.0798                 1.7155                34.7111

                     52                     53                     54
                      A                      A                      A
 Frequencies --   1018.7198              1021.7149              1038.6021
 Red. masses --      1.8247                 1.3340                 2.2848
 Frc consts  --      1.1157                 0.8205                 1.4521
 IR Inten    --      6.7530                 0.0944                30.6634

                     55                     56                     57
                      A                      A                      A
 Frequencies --   1044.5141              1050.3123              1056.6538
 Red. masses --      2.3563                 2.9502                 1.9006
 Frc consts  --      1.5147                 1.9175                 1.2503
 IR Inten    --     21.8447                 6.6574                 7.5438

                     58                     59                     60
                      A                      A                      A
 Frequencies --   1062.9632              1066.7358              1109.6383
 Red. masses --      2.3740                 2.3092                 2.1602
 Frc consts  --      1.5804                 1.5482                 1.5671
 IR Inten    --      0.1158                 0.4202                 4.8647

                     61                     62                     63
                      A                      A                      A
 Frequencies --   1130.4557              1133.9400              1179.0081
 Red. masses --      1.6799                 2.4800                 1.1861
 Frc consts  --      1.2649                 1.8788                 0.9714
 IR Inten    --     59.6780                22.2540                46.1146

                     64                     65                     66
                      A                      A                      A
 Frequencies --   1192.2472              1209.6687              1227.3293
 Red. masses --      2.2124                 1.7286                 2.5623
 Frc consts  --      1.8529                 1.4903                 2.2741
 IR Inten    --     52.8988                26.3347               154.4240

                     67                     68                     69
                      A                      A                      A
 Frequencies --   1237.7306              1254.4161              1276.5110
 Red. masses --      1.2588                 1.4774                 1.6368
 Frc consts  --      1.1362                 1.3697                 1.5714
 IR Inten    --      0.3072               156.1802                82.5101

                     70                     71                     72
                      A                      A                      A
 Frequencies --   1286.8446              1290.9610              1303.7521
 Red. masses --      1.4104                 1.6053                 1.7414
 Frc consts  --      1.3761                 1.5763                 1.7440
 IR Inten    --     66.8353               262.0851               118.3415

                     73                     74                     75
                      A                      A                      A
 Frequencies --   1314.7018              1325.0770              1327.1830
 Red. masses --      1.5976                 1.0525                 1.3578
 Frc consts  --      1.6270                 1.0888                 1.4091
 IR Inten    --     92.8988                 4.9684                 2.9462

                     76                     77                     78
                      A                      A                      A
 Frequencies --   1329.9915              1333.0625              1338.5605
 Red. masses --      1.4094                 1.0718                 1.6380
 Frc consts  --      1.4689                 1.1222                 1.7292
 IR Inten    --     53.7162                 0.4319                80.6337

                     79                     80                     81
                      A                      A                      A
 Frequencies --   1358.1143              1367.3267              1377.8867
 Red. masses --      1.4001                 6.4262                 1.6871
 Frc consts  --      1.5215                 7.0786                 1.8872
 IR Inten    --      4.7828               120.3934               260.5077

                     82                     83                     84
                      A                      A                      A
 Frequencies --   1379.6824              1393.3165              1396.3936
 Red. masses --      1.8431                 1.5739                 1.6000
 Frc consts  --      2.0671                 1.8002                 1.8382
 IR Inten    --    343.7155                 4.1469                 1.3294

                     85                     86                     87
                      A                      A                      A
 Frequencies --   1403.5209              1470.2740              1470.7046
 Red. masses --      1.2673                 1.1067                 1.0696
 Frc consts  --      1.4708                 1.4096                 1.3631
 IR Inten    --      2.2434                 8.7930                 0.5186

                     88                     89                     90
                      A                      A                      A
 Frequencies --   1473.3229              1479.0279              1483.9917
 Red. masses --      1.0782                 1.0859                 2.2231
 Frc consts  --      1.3790                 1.3996                 2.8846
 IR Inten    --      1.6323                 3.0826                 6.3008

                     91                     92                     93
                      A                      A                      A
 Frequencies --   1486.5190              1487.7040              1494.5524
 Red. masses --      1.1005                 1.0412                 1.0917
 Frc consts  --      1.4327                 1.3577                 1.4368
 IR Inten    --      1.3976                11.1184                 5.0487

                     94                     95                     96
                      A                      A                      A
 Frequencies --   1502.0250              1504.7708              1507.2455
 Red. masses --      1.0988                 2.6716                 1.0996
 Frc consts  --      1.4605                 3.5642                 1.4718
 IR Inten    --      0.5944                 7.8520                26.0456

                     97                     98                     99
                      A                      A                      A
 Frequencies --   1610.1822              1618.9787              1673.3323
 Red. masses --      6.6152                 6.0638                10.4943
 Frc consts  --     10.1052                 9.3644                17.3128
 IR Inten    --     28.9776               308.3512               603.3956

                    100                    101                    102
                      A                      A                      A
 Frequencies --   1686.2947              1688.1227              2988.8386
 Red. masses --     11.9964                 7.5681                 1.0573
 Frc consts  --     20.0987                12.7071                 5.5648
 IR Inten    --    366.1317               138.8682                 4.5602

                    103                    104                    105
                      A                      A                      A
 Frequencies --   2990.7987              2994.0756              2999.1051
 Red. masses --      1.0575                 1.0581                 1.0590
 Frc consts  --      5.5733                 5.5887                 5.6122
 IR Inten    --      0.9570                 2.8125                75.8129

                    106                    107                    108
                      A                      A                      A
 Frequencies --   3003.2882              3005.3316              3011.5606
 Red. masses --      1.0595                 1.0986                 1.1004
 Frc consts  --      5.6304                 5.8461                 5.8800
 IR Inten    --    218.9968                 0.2847                 0.7958

                    109                    110                    111
                      A                      A                      A
 Frequencies --   3013.1507              3016.1237              3021.8061
 Red. masses --      1.0355                 1.0590                 1.1028
 Frc consts  --      5.5391                 5.6759                 5.9330
 IR Inten    --     54.0913                68.2797                 1.4709

                    112                    113                    114
                      A                      A                      A
 Frequencies --   3033.4530              3042.8720              3047.0837
 Red. masses --      1.1049                 1.1051                 1.0599
 Frc consts  --      5.9903                 6.0288                 5.7983
 IR Inten    --      0.0226               167.2740                62.8513

                    115                    116                    117
                      A                      A                      A
 Frequencies --   3054.2833              3071.8320              3076.8718
 Red. masses --      1.1038                 1.1026                 1.1011
 Frc consts  --      6.0670                 6.1302                 6.1419
 IR Inten    --    147.0872               118.2525                72.5728

                    118                    119                    120
                      A                      A                      A
 Frequencies --   3093.0336              3180.1341              3192.0278
 Red. masses --      1.1049                 1.0875                 1.0911
 Frc consts  --      6.2279                 6.4799                 6.5498
 IR Inten    --     34.8263                 3.1108                 8.1415

                    121                    122                    123
                      A                      A                      A
 Frequencies --   3202.8329              3206.7526              3618.0523
 Red. masses --      1.0935                 1.0953                 1.0646
 Frc consts  --      6.6088                 6.6360                 8.2105
 IR Inten    --      5.1842                14.2399               280.6288

 - Thermochemistry -
 -------------------
 Temperature   298.150 Kelvin.  Pressure   1.00000 Atm.
 Atom     1 has atomic number  6 and mass  12.00000

 Molecular mass:   286.15689 amu.
 Principal axes and moments of inertia in atomic units:
                           1         2         3
     Eigenvalues --  2490.17487********************
           X            0.82438   0.53803   0.17584
           Y           -0.37145   0.74863  -0.54916
           Z           -0.42710   0.38740   0.81701
 This molecule is an asymmetric top.
 Rotational symmetry number  1.
 Warning -- assumption of classical behavior for rotation
           may cause significant error
 Rotational temperatures (Kelvin)      0.03478     0.00431     0.00404
 Rotational constants (GHZ):           0.72474     0.08985     0.08409
 Zero-point vibrational energy     950898.4 (Joules/Mol)
                                  227.27017 (Kcal/Mol)
 Warning -- explicit consideration of  31 degrees of freedom as
           vibrations may cause significant error
 Vibrational temperatures:     20.42    32.88    42.48    62.28    81.49
          (Kelvin)            113.39   133.21   147.49   160.19   177.35
                              212.10   224.01   234.49   251.48   349.17
                              358.34   364.43   440.37   446.12   482.20
                              520.99   557.00   595.95   603.45   634.78
                              647.20   671.84   702.49   757.62   838.04
                              872.98   940.14   972.80  1015.49  1023.78
                             1048.57  1054.46  1056.54  1079.39  1112.78
                             1137.06  1159.89  1212.33  1277.52  1286.13
                             1310.27  1361.60  1370.34  1418.16  1435.55
                             1442.29  1465.71  1470.02  1494.32  1502.82
                             1511.17  1520.29  1529.37  1534.79  1596.52
                             1626.47  1631.49  1696.33  1715.38  1740.44
                             1765.85  1780.82  1804.82  1836.61  1851.48
                             1857.41  1875.81  1891.56  1906.49  1909.52
                             1913.56  1917.98  1925.89  1954.02  1967.28
                             1982.47  1985.06  2004.67  2009.10  2019.35
                             2115.40  2116.02  2119.78  2127.99  2135.13
                             2138.77  2140.47  2150.33  2161.08  2165.03
                             2168.59  2316.69  2329.35  2407.55  2426.20
                             2428.83  4300.27  4303.09  4307.81  4315.04
                             4321.06  4324.00  4332.96  4335.25  4339.53
                             4347.71  4364.46  4378.01  4384.07  4394.43
                             4419.68  4426.93  4450.19  4575.50  4592.62
                             4608.16  4613.80  5205.57

 Zero-point correction=                           0.362178 (Hartree/Particle)
 Thermal correction to Energy=                    0.383188
 Thermal correction to Enthalpy=                  0.384132
 Thermal correction to Gibbs Free Energy=         0.308945
 Sum of electronic and zero-point Energies=           -924.766272
 Sum of electronic and thermal Energies=              -924.745262
 Sum of electronic and thermal Enthalpies=            -924.744318
 Sum of electronic and thermal Free Energies=         -924.819505

                     E (Thermal)             CV                S
                      KCal/Mol        Cal/Mol-Kelvin    Cal/Mol-Kelvin
 Total                  240.454             78.392            158.245
 Electronic               0.000              0.000              0.000
 Translational            0.889              2.981             42.852
 Rotational               0.889              2.981             35.328
 Vibrational            238.676             72.430             80.066
 Vibration     1          0.593              1.986              7.316
 Vibration     2          0.593              1.985              6.370
 Vibration     3          0.593              1.984              5.861
 Vibration     4          0.595              1.980              5.103
 Vibration     5          0.596              1.975              4.571
 Vibration     6          0.600              1.963              3.920
 Vibration     7          0.602              1.954              3.605
 Vibration     8          0.605              1.947              3.406
 Vibration     9          0.607              1.940              3.246
 Vibration    10          0.610              1.930              3.048
 Vibration    11          0.617              1.905              2.705
 Vibration    12          0.620              1.896              2.601
 Vibration    13          0.623              1.888              2.515
 Vibration    14          0.627              1.873              2.383
 Vibration    15          0.659              1.775              1.783
 Vibration    16          0.662              1.764              1.737
 Vibration    17          0.664              1.757              1.708
 Vibration    18          0.696              1.662              1.383
 Vibration    19          0.699              1.655              1.362
 Vibration    20          0.716              1.605              1.235
 Vibration    21          0.736              1.550              1.113
 Vibration    22          0.756              1.498              1.011
 Vibration    23          0.778              1.439              0.912
 Vibration    24          0.782              1.428              0.894
 Vibration    25          0.801              1.380              0.823
 Vibration    26          0.809              1.361              0.796
 Vibration    27          0.824              1.323              0.746
 Vibration    28          0.844              1.276              0.688
 Vibration    29          0.882              1.191              0.595
 Vibration    30          0.939              1.069              0.481
 Vibration    31          0.965              1.017              0.438

 Optimization completed.
    -- Stationary point found.
 Normal termination of Gaussian 16 at Sun Feb 11 05:30:53 2024.
