 Q-Chem 5.4, Q-Chem, Inc., Pleasanton, CA (2021)
 Q-Chem 5.4.0 for Intel X86 EM64T Linux

User input:
--------------------------------------------------------------
$molecule
-2 1
C                 -3.4363880000      1.7603730000      0.5269850000
C                 -4.0063980000      1.4909060000     -0.7642990000
C                 -3.5934690000      0.4452350000     -1.5674620000
C                 -2.5527780000     -0.4643710000     -1.1825750000
C                 -1.9638120000     -0.2076600000      0.1173650000
C                 -2.3764700000      0.8529860000      0.9299780000
O                 -3.8446960000      2.7313650000      1.2657160000
O                 -2.1727790000     -1.4399990000     -1.9338780000
C                 -1.7493180000      1.1086070000      2.2813050000
C                 -0.9148990000     -1.2066250000      0.5813220000
C                  0.5277160000     -0.8895080000      0.2208080000
C                  0.9127070000     -0.7206260000     -1.1170170000
C                  1.5282130000     -0.7973950000      1.1950520000
C                  2.8608340000     -0.5522130000      0.8580500000
C                  2.2447990000     -0.4797020000     -1.4494570000
C                  3.2489570000     -0.3908770000     -0.4753490000
C                  4.6985660000     -0.1289570000     -0.8666370000
C                  5.2133150000      1.2217090000     -0.3334150000
C                  5.6371070000     -1.2753110000     -0.4450370000
H                 -4.7986460000      2.1621580000     -1.0927670000
H                 -4.0548310000      0.2744130000     -2.5389860000
H                 -0.6577060000      1.2028050000      2.2235360000
H                 -1.9614120000      0.3029220000      3.0012500000
H                 -2.1666020000      2.0351150000      2.6818010000
H                 -1.1657570000     -2.1594720000      0.0987360000
H                 -0.9735960000     -1.3484020000      1.6660980000
H                  0.1458060000     -0.8030660000     -1.8813300000
H                  1.2589780000     -0.9181530000      2.2412540000
H                  3.6027560000     -0.4877690000      1.6501860000
H                  2.5158110000     -0.3590110000     -2.4961370000
H                  4.7238990000     -0.0754320000     -1.9620520000
H                  4.5682000000      2.0433100000     -0.6597750000
H                  6.2324710000      1.4219670000     -0.6852510000
H                  5.2353430000      1.2319560000      0.7613050000
H                  5.2928020000     -2.2328010000     -0.8494550000
H                  5.6825150000     -1.3725250000      0.6450350000
H                  6.6590110000     -1.1022820000     -0.8004420000
$end

$rem
BASIS  =  6-311++G(d,p)
GUI  =  2
JOB_TYPE  =  SP
METHOD  =  B3LYP
SCF_CONVERGENCE  = 8
SOLVENT_METHOD = sm12
$end

$smx
solvent dimethylformamide
charges CM5
$end

--------------------------------------------------------------

             Standard Nuclear Orientation (Angstroms)
    I     Atom           X                Y                Z
 ----------------------------------------------------------------
    1      C      -3.4363880000     1.7603730000     0.5269850000
    2      C      -4.0063980000     1.4909060000    -0.7642990000
    3      C      -3.5934690000     0.4452350000    -1.5674620000
    4      C      -2.5527780000    -0.4643710000    -1.1825750000
    5      C      -1.9638120000    -0.2076600000     0.1173650000
    6      C      -2.3764700000     0.8529860000     0.9299780000
    7      O      -3.8446960000     2.7313650000     1.2657160000
    8      O      -2.1727790000    -1.4399990000    -1.9338780000
    9      C      -1.7493180000     1.1086070000     2.2813050000
   10      C      -0.9148990000    -1.2066250000     0.5813220000
   11      C       0.5277160000    -0.8895080000     0.2208080000
   12      C       0.9127070000    -0.7206260000    -1.1170170000
   13      C       1.5282130000    -0.7973950000     1.1950520000
   14      C       2.8608340000    -0.5522130000     0.8580500000
   15      C       2.2447990000    -0.4797020000    -1.4494570000
   16      C       3.2489570000    -0.3908770000    -0.4753490000
   17      C       4.6985660000    -0.1289570000    -0.8666370000
   18      C       5.2133150000     1.2217090000    -0.3334150000
   19      C       5.6371070000    -1.2753110000    -0.4450370000
   20      H      -4.7986460000     2.1621580000    -1.0927670000
   21      H      -4.0548310000     0.2744130000    -2.5389860000
   22      H      -0.6577060000     1.2028050000     2.2235360000
   23      H      -1.9614120000     0.3029220000     3.0012500000
   24      H      -2.1666020000     2.0351150000     2.6818010000
   25      H      -1.1657570000    -2.1594720000     0.0987360000
   26      H      -0.9735960000    -1.3484020000     1.6660980000
   27      H       0.1458060000    -0.8030660000    -1.8813300000
   28      H       1.2589780000    -0.9181530000     2.2412540000
   29      H       3.6027560000    -0.4877690000     1.6501860000
   30      H       2.5158110000    -0.3590110000    -2.4961370000
   31      H       4.7238990000    -0.0754320000    -1.9620520000
   32      H       4.5682000000     2.0433100000    -0.6597750000
   33      H       6.2324710000     1.4219670000    -0.6852510000
   34      H       5.2353430000     1.2319560000     0.7613050000
   35      H       5.2928020000    -2.2328010000    -0.8494550000
   36      H       5.6825150000    -1.3725250000     0.6450350000
   37      H       6.6590110000    -1.1022820000    -0.8004420000
 ----------------------------------------------------------------

   32    -809.2588925907      3.19e-09  Convergence criterion met
 Total energy in the final basis set =     -809.5630111455

                    Orbital Energies (a.u.)
 --------------------------------------------------------------

 Alpha MOs
 -- Occupied --
-19.0196 -19.0196 -10.1877 -10.1867 -10.1855 -10.1818 -10.1813 -10.1799
-10.1790 -10.1778 -10.1727 -10.1714 -10.1655 -10.1650 -10.1644 -10.1457
-10.1445 -10.1395 -10.1390  -0.9385  -0.9356  -0.8696  -0.8175  -0.7987
 -0.7648  -0.7527  -0.7444  -0.7069  -0.6889  -0.6584  -0.6391  -0.6198
 -0.6067  -0.5701  -0.5521  -0.5327  -0.5015  -0.4834  -0.4648  -0.4569
 -0.4405  -0.4366  -0.4347  -0.4244  -0.4223  -0.4189  -0.4123  -0.3998
 -0.3898  -0.3858  -0.3823  -0.3750  -0.3635  -0.3579  -0.3538  -0.3499
 -0.3442  -0.3352  -0.3328  -0.3248  -0.3200  -0.3128  -0.2639  -0.2466
 -0.2336  -0.2211  -0.1989  -0.1950  -0.1207

          Ground-State Mulliken Net Atomic Charges

     Atom                 Charge (a.u.)
  ----------------------------------------
      1 C                    -1.514041
      2 C                    -0.894749
      3 C                    -1.400106
      4 C                    -0.906577
      5 C                    -0.884857
      6 C                    -0.561462
      7 O                    -0.367666
      8 O                    -0.265916
      9 C                     0.300295
     10 C                    -0.193064
     11 C                    -1.675591
     12 C                    -3.514486
     13 C                    -0.164561
     14 C                     1.622015
     15 C                     0.188457
     16 C                     2.093882
     17 C                     3.206615
     18 C                    -0.243111
     19 C                     0.035966
     20 H                    -0.047826
     21 H                    -0.015565
     22 H                     0.143346
     23 H                     0.216849
     24 H                     0.167105
     25 H                     0.052116
     26 H                     0.074215
     27 H                    -0.017369
     28 H                     0.434479
     29 H                     0.328602
     30 H                     0.239176
     31 H                     0.309568
     32 H                     0.073992
     33 H                     0.332698
     34 H                     0.198244
     35 H                     0.106289
     36 H                     0.213745
     37 H                     0.329293
  ----------------------------------------
  Sum of atomic charges =    -2.000000

                    Cartesian Multipole Moments
 -----------------------------------------------------------------
    Charge (ESU x 10^10)
                -9.6064
    Dipole Moment (Debye)
         X      27.4943      Y      -5.8735      Z       2.5941
       Tot      28.2341
    Quadrupole Moments (Debye-Ang)
        XX    -222.1667     XY      35.5990     YY    -167.9871
        XZ      -4.2129     YZ     -21.3022     ZZ    -148.6823

 Total job time:  2440.63s(wall), 19177.51s(cpu)
        *  Thank you very much for using Q-Chem.  Have a nice day.  *
