 Q-Chem 5.4, Q-Chem, Inc., Pleasanton, CA (2021)
 Q-Chem 5.4.0 for Intel X86 EM64T Linux

User input:
--------------------------------------------------------------
$molecule
-2 1
N                 -2.9383260000     -1.8691260000     -0.2485970000
C                 -2.5475880000     -0.5257520000     -0.1053160000
C                 -3.5047510000      0.4749300000     -0.0038190000
C                 -3.1212970000      1.8225890000      0.2152850000
C                 -1.7907440000      2.1482970000      0.3398470000
C                 -0.7702140000      1.1650880000      0.2264390000
C                  0.6081750000      1.6260360000      0.3465550000
O                  0.8680000000      2.8574630000      0.5641410000
C                  1.6181410000      0.5954150000      0.1922920000
C                  3.0244550000      0.8116870000      0.2914510000
Cl                 3.7199980000      2.4245740000      0.6943630000
C                  3.9818860000     -0.1622920000      0.1101680000
C                  3.5763220000     -1.4904630000     -0.1972710000
C                  2.2377860000     -1.7771870000     -0.2968170000
C                  1.2312560000     -0.7926440000     -0.1073590000
C                 -0.1328810000     -1.2220850000     -0.2287260000
O                 -0.4169430000     -2.4676810000     -0.5274730000
C                 -1.1384920000     -0.2110890000     -0.0221520000
H                 -3.7401230000     -1.9865930000     -0.8540540000
H                 -2.0992940000     -2.4336230000     -0.4962930000
H                 -4.5581610000      0.2008310000     -0.0528580000
H                 -3.8877340000      2.5923480000      0.2968140000
H                 -1.4610590000      3.1651610000      0.5198380000
H                  5.0305520000      0.0937920000      0.2095710000
H                  4.3285010000     -2.2631270000     -0.3431600000
H                  1.8825350000     -2.7765500000     -0.5228700000
$end
$rem
MAX_SCF_CYCLES=200
BASIS  =  6-311++G(d,p)
GUI  =  2
JOB_TYPE  =  SP
METHOD  =  B3LYP
SOLVENT_METHOD = COSMO
$end
$solvent
dielectric 37.219
opticaldielectric 1.43
$end

--------------------------------------------------------------

             Standard Nuclear Orientation (Angstroms)
    I     Atom           X                Y                Z
 ----------------------------------------------------------------
    1      N       3.7474444820    -1.5600340825    -0.1895663804
    2      C       3.1213448933    -0.3076447450    -0.0577347234
    3      C       3.8818486509     0.8523382056     0.0047208914
    4      C       3.2570903541     2.1241611082     0.0627888534
    5      C       1.8849340244     2.2185797035     0.0471423021
    6      C       1.0599365201     1.0617013199     0.0018177304
    7      C      -0.3823395518     1.2771720952     0.0182258024
    8      O      -0.8653935156     2.4590483974     0.0512777122
    9      C      -1.1860145911     0.0689103724     0.0034582560
   10      C      -2.6119701878     0.0391199794    -0.0059396376
   11      Cl     -3.6016116169     1.5439276916    -0.0666538083
   12      C      -3.3720204967    -1.1098174896     0.0150116990
   13      C      -2.7229984002    -2.3750491471     0.0466071631
   14      C      -1.3514207562    -2.4257526230     0.0449929420
   15      C      -0.5455004675    -1.2561372394     0.0164581153
   16      C       0.8774005362    -1.4440137320     0.0078306502
   17      O       1.3921548577    -2.6500937424     0.0508350911
   18      C       1.6766928470    -0.2458665263    -0.0323475549
   19      H       4.5961649989    -1.6385073295     0.3552001180
   20      H       3.0372919536    -2.3041087079    -0.0282554792
   21      H       4.9676887015     0.7710395776    -0.0346444616
   22      H       3.8714952112     3.0226049352     0.1064572867
   23      H       1.3728945426     3.1735515387     0.0778948100
   24      H      -4.4534507923    -1.0357747739     0.0013536227
   25      H      -3.3185828919    -3.2855470784     0.0650227987
   26      H      -0.8142065941    -3.3676352729     0.0619533453
 ----------------------------------------------------------------

   11   -1203.9282065594      8.09e-06  Convergence criterion met
 Total energy in the final basis set =    -1203.9282065594
    6   -1204.1962272170      3.25e-06  Convergence criterion met
 Total energy in the final basis set =    -1204.1962272170

                    Orbital Energies (a.u.)
 --------------------------------------------------------------

 Alpha MOs
 -- Occupied --
******** -19.0335 -19.0250 -14.2799 -10.2175 -10.1920 -10.1874 -10.1849
-10.1583 -10.1577 -10.1550 -10.1502 -10.1500 -10.1487 -10.1474 -10.1423
-10.1403 -10.1369  -9.4457  -7.2099  -7.2011  -7.1999  -0.9521  -0.9486
 -0.8839  -0.8602  -0.8163  -0.8044  -0.7584  -0.7164  -0.7140  -0.7033
 -0.6434  -0.6115  -0.6020  -0.5536  -0.5267  -0.5231  -0.5016  -0.4710
 -0.4511  -0.4475  -0.4428  -0.4232  -0.4133  -0.4058  -0.3951  -0.3866
 -0.3781  -0.3686  -0.3654  -0.3583  -0.3382  -0.3355  -0.3296  -0.3253
 -0.3156  -0.3039  -0.2976  -0.2843  -0.2365  -0.2301  -0.2233  -0.2148
 -0.1994  -0.1925  -0.1141

          Ground-State Mulliken Net Atomic Charges

     Atom                 Charge (a.u.)
  ----------------------------------------
      1 N                    -0.486227
      2 C                    -0.056163
      3 C                    -0.290480
      4 C                    -0.506499
      5 C                    -0.071507
      6 C                     0.312113
      7 C                    -1.428339
      8 O                    -0.560257
      9 C                    -0.226149
     10 C                     0.891077
     11 Cl                    0.292441
     12 C                    -0.142844
     13 C                    -0.721951
     14 C                     0.353364
     15 C                     0.244355
     16 C                    -0.804301
     17 O                    -0.658757
     18 C                     0.222398
     19 H                     0.261802
     20 H                     0.323549
     21 H                     0.167327
     22 H                     0.181915
     23 H                     0.151075
     24 H                     0.197292
     25 H                     0.184015
     26 H                     0.170750
  ----------------------------------------
  Sum of atomic charges =    -2.000000

                    Cartesian Multipole Moments
 -----------------------------------------------------------------
    Charge (ESU x 10^10)
                -9.6064
    Dipole Moment (Debye)
         X      -0.3614      Y      -1.9766      Z       1.0920
       Tot       2.2869
    Quadrupole Moments (Debye-Ang)
        XX    -147.9937     XY      18.9672     YY    -165.3770
        XZ       5.8092     YZ      -2.3724     ZZ    -124.8092

 Total job time:  71.52s(wall), 553.79s(cpu)
        *  Thank you very much for using Q-Chem.  Have a nice day.  *
