 Gaussian 16, Revision A.03,
 Gaussian 16:  ES64L-G16RevA.03 25-Dec-2016

 --------------------------------------
 #P UB3LYP/6-311++G(d,p) nosym opt freq
 --------------------------------------

 -------
 Reduced
 -------
 Symbolic Z-matrix:
 Charge = -2 Multiplicity = 1

 SCF Done:  E(UB3LYP) =  -805.884098420     A.U. after   41 cycles
 Optimization completed.
    -- Stationary point found.
 Normal termination of Gaussian 16 at Mon Jan  8 01:38:35 2024.

 ----------------------------------------------------------------------
 #P Geom=AllCheck Guess=TCheck SCRF=Check GenChk UB3LYP/6-311++G(d,p) F
 req
 ----------------------------------------------------------------------

 Structure from the checkpoint file:  "290-an.chk"
 -------
 Reduced
 -------
 Charge = -2 Multiplicity = 1

                          Input orientation:
 ---------------------------------------------------------------------
 Center     Atomic      Atomic             Coordinates (Angstroms)
 Number     Number       Type             X           Y           Z
 ---------------------------------------------------------------------
      1          8           0       -0.308000    2.159290    0.371026
      2          6           0       -0.525748    0.916378    0.147091
      3          6           0        0.523116   -0.015667   -0.166980
      4          6           0        0.264912   -1.372535   -0.426759
      5          8           0        1.318577   -2.229973   -0.722409
      6          6           0       -1.038073   -1.970156   -0.428538
      7          8           0       -1.251807   -3.206713   -0.671773
      8          6           0       -2.112658   -1.034530   -0.117556
      9          6           0       -3.446768   -1.504831   -0.075460
     10          6           0       -4.507991   -0.668932    0.219617
     11          6           0       -4.271273    0.701799    0.490789
     12          6           0       -2.974253    1.186512    0.461385
     13          6           0       -1.873416    0.354996    0.167970
     14          6           0        1.924200    0.555237   -0.293484
     15          1           0       -3.596904   -2.558608   -0.288296
     16          1           0       -5.523032   -1.061778    0.242871
     17          1           0       -5.101526    1.366191    0.721932
     18          1           0       -2.755832    2.230183    0.665269
     19          6           0        2.923102    0.053435    0.723311
     20          6           0        4.195816   -0.342708    0.546441
     21          6           0        4.911868   -0.381102   -0.783026
     22          6           0        5.046846   -0.801746    1.708638
     23          1           0        2.128318   -1.831896   -0.380152
     24          1           0        1.795301    1.635681   -0.148845
     25          1           0        2.308958    0.406647   -1.312254
     26          1           0        2.535574    0.029418    1.741457
     27          1           0        4.275245   -0.090721   -1.619882
     28          1           0        5.306167   -1.387799   -0.983498
     29          1           0        5.782298    0.288621   -0.773160
     30          1           0        4.508206   -0.748623    2.658665
     31          1           0        5.958082   -0.194879    1.800956
     32          1           0        5.389685   -1.837649    1.569030
 ---------------------------------------------------------------------

 SCF Done:  E(UB3LYP) =  -805.884098420     A.U. after    6 cycles

 Alpha  occ. eigenvalues --  -18.90388 -18.80906 -18.79911  -9.98482  -9.98088
 Alpha  occ. eigenvalues --   -9.97981  -9.97039  -9.96807  -9.96609  -9.95750
 Alpha  occ. eigenvalues --   -9.95081  -9.94797  -9.94628  -9.93942  -9.93748
 Alpha  occ. eigenvalues --   -9.92643  -9.92600  -9.92218  -0.80947  -0.72645
 Alpha  occ. eigenvalues --   -0.71393  -0.62332  -0.61684  -0.56604  -0.53427
 Alpha  occ. eigenvalues --   -0.51379  -0.50878  -0.49032  -0.44836  -0.41692
 Alpha  occ. eigenvalues --   -0.37702  -0.36423  -0.32332  -0.31567  -0.30372
 Alpha  occ. eigenvalues --   -0.27905  -0.27032  -0.25150  -0.24818  -0.22753
 Alpha  occ. eigenvalues --   -0.22174  -0.20274  -0.19691  -0.18980  -0.18660
 Alpha  occ. eigenvalues --   -0.18484  -0.17918  -0.17118  -0.15710  -0.15386
 Alpha  occ. eigenvalues --   -0.13889  -0.13697  -0.13673  -0.11903  -0.11188
 Alpha  occ. eigenvalues --   -0.10183  -0.09293  -0.08173  -0.04448  -0.01806
 Alpha  occ. eigenvalues --   -0.00705   0.01559   0.01684   0.02795   0.11679
 Alpha virt. eigenvalues --    0.13110   0.14916   0.15201   0.16239   0.16999
 Alpha virt. eigenvalues --    0.17552   0.19060   0.19175   0.19326   0.19980
 Alpha virt. eigenvalues --    0.20331   0.20681   0.21430   0.21848   0.22334

  Beta  occ. eigenvalues --  -18.90388 -18.80906 -18.79911  -9.98482  -9.98088
  Beta  occ. eigenvalues --   -9.97981  -9.97039  -9.96807  -9.96609  -9.95750
  Beta  occ. eigenvalues --   -9.95081  -9.94797  -9.94628  -9.93942  -9.93748
  Beta  occ. eigenvalues --   -9.92643  -9.92600  -9.92218  -0.80947  -0.72645
  Beta  occ. eigenvalues --   -0.71393  -0.62332  -0.61684  -0.56604  -0.53427
  Beta  occ. eigenvalues --   -0.51379  -0.50878  -0.49032  -0.44836  -0.41692
  Beta  occ. eigenvalues --   -0.37702  -0.36423  -0.32332  -0.31567  -0.30372
  Beta  occ. eigenvalues --   -0.27905  -0.27032  -0.25150  -0.24818  -0.22753
  Beta  occ. eigenvalues --   -0.22174  -0.20274  -0.19691  -0.18980  -0.18660
  Beta  occ. eigenvalues --   -0.18484  -0.17918  -0.17118  -0.15710  -0.15386
  Beta  occ. eigenvalues --   -0.13889  -0.13697  -0.13673  -0.11903  -0.11188
  Beta  occ. eigenvalues --   -0.10183  -0.09293  -0.08173  -0.04448  -0.01806
  Beta  occ. eigenvalues --   -0.00705   0.01559   0.01684   0.02795   0.11679
  Beta virt. eigenvalues --    0.13110   0.14916   0.15201   0.16239   0.16999
  Beta virt. eigenvalues --    0.17552   0.19060   0.19175   0.19326   0.19980
  Beta virt. eigenvalues --    0.20331   0.20681   0.21430   0.21848   0.22334

 Mulliken charges and spin densities:
               1          2
     1  O   -0.472889  -0.000000
     2  C   -1.215996   0.000000
     3  C    1.492601  -0.000000
     4  C   -0.374597  -0.000000
     5  O   -0.288944  -0.000000
     6  C   -0.567083  -0.000000
     7  O   -0.492811  -0.000000
     8  C    0.680146  -0.000000
     9  C   -0.033047   0.000000
    10  C   -0.395810   0.000000
    11  C   -0.411550  -0.000000
    12  C    0.013069  -0.000000
    13  C   -0.012230  -0.000000
    14  C   -0.377454   0.000000
    15  H    0.133852  -0.000000
    16  H    0.082561   0.000000
    17  H    0.082205  -0.000000
    18  H    0.138059   0.000000
    19  C    1.225149  -0.000000
    20  C   -1.832421   0.000000
    21  C   -0.155023   0.000000
    22  C    1.331413  -0.000000
    23  H    0.413032  -0.000000
    24  H    0.153383   0.000000
    25  H    0.218780  -0.000000
    26  H    0.262687  -0.000000
    27  H   -0.163865   0.000000
    28  H   -0.089817   0.000000
    29  H   -0.233966   0.000000
    30  H   -0.379833   0.000000
    31  H   -0.421277   0.000000
    32  H   -0.308326   0.000000
 Sum of Mulliken charges =  -2.00000   0.00000

 Dipole moment (field-independent basis, Debye):
    X=             -5.1301    Y=              6.3936    Z=             -1.3025  Tot=              8.3001
 Quadrupole moment (field-independent basis, Debye-Ang):
   XX=           -248.5934   YY=           -176.9077   ZZ=           -136.1040
   XY=              1.5324   XZ=            -15.4318   YZ=             -7.5949

  Exact polarizability:1959.948  44.166 678.426 184.495-162.9331090.884
 Approx polarizability:******** 104.784 762.3561667.813 -28.9381126.937

                      1                      2                      3
                      A                      A                      A
 Frequencies --     24.7253                47.5148                51.8731
 Red. masses --      3.5372                 3.4542                 4.1748
 Frc consts  --      0.0013                 0.0046                 0.0066
 IR Inten    --      4.9462                 2.4018                 5.9912

                      4                      5                      6
                      A                      A                      A
 Frequencies --     90.4358               125.3641               135.5998
 Red. masses --      7.1859                 3.7940                 1.0660
 Frc consts  --      0.0346                 0.0351                 0.0115
 IR Inten    --      0.7617                 1.1662                 3.7778

                      7                      8                      9
                      A                      A                      A
 Frequencies --    151.2103               180.2262               185.7756
 Red. masses --      4.3158                 2.2714                 3.7038
 Frc consts  --      0.0581                 0.0435                 0.0753
 IR Inten    --      2.4571                 1.6264                 8.2397

                     10                     11                     12
                      A                      A                      A
 Frequencies --    196.3678               252.3876               272.7157
 Red. masses --      2.4532                 3.0710                 3.3150
 Frc consts  --      0.0557                 0.1153                 0.1453
 IR Inten    --     13.8749                21.4325                 2.8152

                     13                     14                     15
                      A                      A                      A
 Frequencies --    301.2175               311.2014               339.2464
 Red. masses --      2.2457                 4.8728                 5.6965
 Frc consts  --      0.1201                 0.2780                 0.3863
 IR Inten    --      4.5995                44.6954                20.0437

                     16                     17                     18
                      A                      A                      A
 Frequencies --    371.4194               383.8548               402.4085
 Red. masses --      8.0486                 3.3374                 2.6580
 Frc consts  --      0.6542                 0.2897                 0.2536
 IR Inten    --      3.7207                 8.1871                22.9441

                     19                     20                     21
                      A                      A                      A
 Frequencies --    413.5872               431.5126               433.1825
 Red. masses --      2.8137                 1.8730                 3.2562
 Frc consts  --      0.2836                 0.2055                 0.3600
 IR Inten    --    135.6069                80.4481                35.5668

                     22                     23                     24
                      A                      A                      A
 Frequencies --    447.5611               484.8877               505.6519
 Red. masses --      3.5933                 6.0529                 3.1581
 Frc consts  --      0.4241                 0.8385                 0.4758
 IR Inten    --     28.1293               366.8832                71.8158

                     25                     26                     27
                      A                      A                      A
 Frequencies --    533.0292               564.3690               636.0493
 Red. masses --      5.0310                 4.9184                 6.1198
 Frc consts  --      0.8422                 0.9230                 1.4587
 IR Inten    --     67.2533                 5.9048                25.9699

                     28                     29                     30
                      A                      A                      A
 Frequencies --    667.9236               687.8216               696.7458
 Red. masses --      5.5431                 4.0817                 2.3340
 Frc consts  --      1.4570                 1.1377                 0.6676
 IR Inten    --      2.3098                10.1240                41.1619

                     31                     32                     33
                      A                      A                      A
 Frequencies --    704.0958               756.1634               773.9012
 Red. masses --      4.0292                 2.7929                 2.8072
 Frc consts  --      1.1769                 0.9409                 0.9906
 IR Inten    --      6.8974                12.7855                 4.6581

                     34                     35                     36
                      A                      A                      A
 Frequencies --    782.0406               821.9421               849.6039
 Red. masses --      2.3415                 1.9757                 3.0956
 Frc consts  --      0.8437                 0.7864                 1.3165
 IR Inten    --      1.4375                 4.5397                 6.8882

                     37                     38                     39
                      A                      A                      A
 Frequencies --    870.4241               924.4422               954.5816
 Red. masses --      1.8326                 4.1723                 1.2282
 Frc consts  --      0.8181                 2.1008                 0.6594
 IR Inten    --     27.3835                 4.2258                 0.6445

                     40                     41                     42
                      A                      A                      A
 Frequencies --    957.0704               957.7955               961.7292
 Red. masses --      1.5638                 1.5360                 1.9817
 Frc consts  --      0.8439                 0.8302                 1.0799
 IR Inten    --     12.0694                 2.3669                45.5554

                     43                     44                     45
                      A                      A                      A
 Frequencies --   1014.4258              1020.3098              1023.1203
 Red. masses --      2.5124                 1.6048                 1.7205
 Frc consts  --      1.5233                 0.9843                 1.0611
 IR Inten    --    127.3780               208.2337                76.3202

                     46                     47                     48
                      A                      A                      A
 Frequencies --   1054.5347              1091.0555              1096.7480
 Red. masses --      2.9896                 1.6274                 2.0172
 Frc consts  --      1.9588                 1.1414                 1.4296
 IR Inten    --     59.6646               113.4677                17.2962

                     49                     50                     51
                      A                      A                      A
 Frequencies --   1114.9812              1128.3544              1149.3238
 Red. masses --      2.0576                 1.3740                 2.7882
 Frc consts  --      1.5071                 1.0307                 2.1700
 IR Inten    --     40.9821               121.5639               486.8642

                     52                     53                     54
                      A                      A                      A
 Frequencies --   1179.6436              1193.7104              1211.2697
 Red. masses --      2.1428                 1.9995                 2.2724
 Frc consts  --      1.7569                 1.6787                 1.9644
 IR Inten    --    227.4938                22.3693               136.9472

                     55                     56                     57
                      A                      A                      A
 Frequencies --   1246.2136              1263.0594              1294.0825
 Red. masses --      1.7333                 1.7806                 1.6913
 Frc consts  --      1.5860                 1.6737                 1.6688
 IR Inten    --    207.4442                31.5691                46.6334

                     58                     59                     60
                      A                      A                      A
 Frequencies --   1311.3699              1345.0223              1367.8028
 Red. masses --      1.7430                 7.3692                 1.3337
 Frc consts  --      1.7660                 7.8547                 1.4701
 IR Inten    --     55.0334               350.8151                26.6483

                     61                     62                     63
                      A                      A                      A
 Frequencies --   1390.4776              1408.5539              1421.9837
 Red. masses --      1.3725                 1.2578                 3.8070
 Frc consts  --      1.5634                 1.4703                 4.5354
 IR Inten    --    795.5851               275.1085                70.7123

                     64                     65                     66
                      A                      A                      A
 Frequencies --   1427.3578              1446.1264              1454.7938
 Red. masses --      2.9277                 6.2563                 2.7993
 Frc consts  --      3.5143                 7.7086                 3.4906
 IR Inten    --    636.4614              2152.8553                52.8529

                     67                     68                     69
                      A                      A                      A
 Frequencies --   1465.8126              1470.3108              1476.9757
 Red. masses --      1.2449                 1.0494                 1.0572
 Frc consts  --      1.5759                 1.3366                 1.3588
 IR Inten    --     92.7430               131.1019                20.7785

                     70                     71                     72
                      A                      A                      A
 Frequencies --   1480.9965              1488.1904              1496.4765
 Red. masses --      1.0855                 1.0516                 4.7827
 Frc consts  --      1.4027                 1.3722                 6.3104
 IR Inten    --     86.4874                51.4235               650.2878

                     73                     74                     75
                      A                      A                      A
 Frequencies --   1517.0125              1574.8231              1590.6282
 Red. masses --      4.4443                 6.8985                 5.4891
 Frc consts  --      6.0261                10.0803                 8.1825
 IR Inten    --    413.9351              3278.6552                22.4930

                     76                     77                     78
                      A                      A                      A
 Frequencies --   1697.3605              2962.7643              2970.5767
 Red. masses --      6.2249                 1.0427                 1.0602
 Frc consts  --     10.5665                 5.3924                 5.5124
 IR Inten    --      5.0240                25.1650               104.0220

                     79                     80                     81
                      A                      A                      A
 Frequencies --   2973.8208              2997.6551              3004.9342
 Red. masses --      1.0455                 1.0959                 1.0958
 Frc consts  --      5.4475                 5.8020                 5.8296
 IR Inten    --    122.0618                32.4071                31.2334

                     82                     83                     84
                      A                      A                      A
 Frequencies --   3014.6960              3073.2281              3096.7625
 Red. masses --      1.0969                 1.0961                 1.0829
 Frc consts  --      5.8737                 6.0996                 6.1186
 IR Inten    --     44.5503                29.3135                43.5840

                     85                     86                     87
                      A                      A                      A
 Frequencies --   3100.4860              3108.9517              3120.4611
 Red. masses --      1.0932                 1.0873                 1.0907
 Frc consts  --      6.1917                 6.1920                 6.2572
 IR Inten    --     14.0582                 6.5434               303.8483

                     88                     89                     90
                      A                      A                      A
 Frequencies --   3160.0279              3162.5505              3764.9525
 Red. masses --      1.0904                 1.0914                 1.0656
 Frc consts  --      6.4154                 6.4314                 8.8995
 IR Inten    --     43.1887               175.4108               153.6452

 - Thermochemistry -
 -------------------
 Temperature   298.150 Kelvin.  Pressure   1.00000 Atm.
 Atom     1 has atomic number  8 and mass  15.99491

 Molecular mass:   242.09429 amu.
 Principal axes and moments of inertia in atomic units:
                           1         2         3
     Eigenvalues --  2012.801017787.994109227.89360
           X            0.99945   0.00898  -0.03203
           Y           -0.01638   0.97086  -0.23910
           Z            0.02895   0.23949   0.97047
 This molecule is an asymmetric top.
 Rotational symmetry number  1.
 Warning -- assumption of classical behavior for rotation
           may cause significant error
 Rotational temperatures (Kelvin)      0.04303     0.01112     0.00939
 Rotational constants (GHZ):           0.89663     0.23173     0.19557
 Zero-point vibrational energy     652350.2 (Joules/Mol)
                                  155.91543 (Kcal/Mol)
 Warning -- explicit consideration of  26 degrees of freedom as
           vibrations may cause significant error
 Vibrational temperatures:     35.57    68.36    74.63   130.12   180.37
          (Kelvin)            195.10   217.56   259.31   267.29   282.53
                              363.13   392.38   433.38   447.75   488.10
                              534.39   552.28   578.98   595.06   620.85
                              623.25   643.94   697.65   727.52   766.91
                              812.00   915.13   960.99   989.62  1002.46
                             1013.04  1087.95  1113.47  1125.18  1182.59
                             1222.39  1252.35  1330.07  1373.43  1377.01
                             1378.05  1383.71  1459.53  1468.00  1472.04
                             1517.24  1569.79  1577.98  1604.21  1623.45
                             1653.62  1697.24  1717.48  1742.75  1793.02
                             1817.26  1861.90  1886.77  1935.19  1967.96
                             2000.59  2026.59  2045.92  2053.65  2080.65
                             2093.12  2108.98  2115.45  2125.04  2130.82
                             2141.17  2153.10  2182.64  2265.82  2288.56
                             2442.12  4262.76  4274.00  4278.66  4312.96
                             4323.43  4337.48  4421.69  4455.55  4460.91
                             4473.09  4489.65  4546.58  4550.20  5416.93

 Zero-point correction=                           0.248467 (Hartree/Particle)
 Thermal correction to Energy=                    0.265164
 Thermal correction to Enthalpy=                  0.266108
 Thermal correction to Gibbs Free Energy=         0.203733
 Sum of electronic and zero-point Energies=           -805.635631
 Sum of electronic and thermal Energies=              -805.618934
 Sum of electronic and thermal Enthalpies=            -805.617990
 Sum of electronic and thermal Free Energies=         -805.680366

                     E (Thermal)             CV                S
                      KCal/Mol        Cal/Mol-Kelvin    Cal/Mol-Kelvin
 Total                  166.393             64.374            131.280
 Electronic               0.000              0.000              0.000
 Translational            0.889              2.981             42.354
 Rotational               0.889              2.981             33.336
 Vibrational            164.615             58.412             55.590
 Vibration     1          0.593              1.985              6.213
 Vibration     2          0.595              1.979              4.918
 Vibration     3          0.596              1.977              4.745
 Vibration     4          0.602              1.956              3.651
 Vibration     5          0.610              1.928              3.016
 Vibration     6          0.613              1.918              2.865
 Vibration     7          0.619              1.901              2.657
 Vibration     8          0.629              1.867              2.326
 Vibration     9          0.632              1.859              2.270
 Vibration    10          0.636              1.845              2.167
 Vibration    11          0.664              1.759              1.714
 Vibration    12          0.676              1.724              1.579
 Vibration    13          0.693              1.671              1.410
 Vibration    14          0.700              1.652              1.356
 Vibration    15          0.719              1.597              1.216
 Vibration    16          0.743              1.531              1.074
 Vibration    17          0.753              1.505              1.024
 Vibration    18          0.768              1.465              0.954
 Vibration    19          0.777              1.441              0.914
 Vibration    20          0.793              1.402              0.854
 Vibration    21          0.794              1.398              0.848
 Vibration    22          0.807              1.366              0.803
 Vibration    23          0.841              1.284              0.697
 Vibration    24          0.861              1.237              0.644
 Vibration    25          0.888              1.177              0.580
 Vibration    26          0.920              1.108              0.515

                           ! Non-Optimized Parameters !
 Normal termination of Gaussian 16 at Mon Jan  8 03:32:16 2024.
