 Gaussian 16, Revision A.03,
 Gaussian 16:  ES64L-G16RevA.03 25-Dec-2016

 ----------------------------------------------------------------
 #P UB3LYP/6-311++G(d,p) SCRF=(PCM,Solvent=n,n-DiMethylFormamide)
 ----------------------------------------------------------------

 -------
 Reduced
 -------
 Symbolic Z-matrix:
 Charge = -2 Multiplicity = 1

                         Standard orientation:
 ---------------------------------------------------------------------
 Center     Atomic      Atomic             Coordinates (Angstroms)
 Number     Number       Type             X           Y           Z
 ---------------------------------------------------------------------
      1          8           0        0.467625   -2.588107   -0.312275
      2          6           0        0.668293   -1.325326   -0.225634
      3          6           0       -0.388400   -0.357196   -0.342200
      4          6           0       -0.148410    1.025261   -0.261805
      5          8           0       -1.209028    1.916494   -0.378469
      6          6           0        1.142563    1.620725   -0.078126
      7          8           0        1.339900    2.881909   -0.011865
      8          6           0        2.225119    0.650149    0.035429
      9          6           0        3.548324    1.111855    0.232301
     10          6           0        4.616106    0.241757    0.353801
     11          6           0        4.397519   -1.156641    0.281856
     12          6           0        3.111284   -1.634955    0.095074
     13          6           0        2.003946   -0.769960   -0.027157
     14          6           0       -1.774186   -0.897138   -0.647211
     15          1           0        3.684668    2.187585    0.282329
     16          1           0        5.622445    0.629143    0.503437
     17          1           0        5.233092   -1.847554    0.374702
     18          1           0        2.906766   -2.699507    0.036535
     19          6           0       -2.811532   -0.664631    0.426724
     20          6           0       -4.085814   -0.252175    0.307993
     21          6           0       -4.763495    0.095100   -0.996552
     22          6           0       -4.978799   -0.094299    1.517672
     23          1           0       -2.020722    1.438897   -0.167899
     24          1           0       -1.629176   -1.979264   -0.760654
     25          1           0       -2.131888   -0.513458   -1.613053
     26          1           0       -2.454301   -0.880549    1.433273
     27          1           0       -4.097435    0.020677   -1.857227
     28          1           0       -5.170730    1.115969   -0.963601
     29          1           0       -5.621046   -0.567381   -1.175434
     30          1           0       -4.467110   -0.367091    2.444638
     31          1           0       -5.880716   -0.715950    1.432486
     32          1           0       -5.336926    0.940946    1.618353
 ---------------------------------------------------------------------

 SCF Done:  E(UB3LYP) =  -806.150160654     A.U. after   18 cycles

 The electronic state is 1-A.
 Alpha  occ. eigenvalues --  -19.11591 -19.01381 -19.00947 -10.17373 -10.17256
 Alpha  occ. eigenvalues --  -10.16744 -10.16107 -10.15840 -10.15790 -10.15611
 Alpha  occ. eigenvalues --  -10.14880 -10.14540 -10.14329 -10.14182 -10.14029
 Alpha  occ. eigenvalues --  -10.13045 -10.12907 -10.12463  -1.02166  -0.93503
 Alpha  occ. eigenvalues --   -0.92832  -0.82034  -0.80930  -0.76605  -0.73140
 Alpha  occ. eigenvalues --   -0.71746  -0.68813  -0.68700  -0.64588  -0.61673
 Alpha  occ. eigenvalues --   -0.58084  -0.56491  -0.52144  -0.51084  -0.50816
 Alpha  occ. eigenvalues --   -0.47883  -0.45974  -0.44235  -0.42833  -0.42521
 Alpha  occ. eigenvalues --   -0.41841  -0.39867  -0.39246  -0.38749  -0.38243
 Alpha  occ. eigenvalues --   -0.37921  -0.36989  -0.36649  -0.36310  -0.36023
 Alpha  occ. eigenvalues --   -0.34661  -0.34403  -0.32878  -0.32651  -0.31322
 Alpha  occ. eigenvalues --   -0.31012  -0.30035  -0.29453  -0.23540  -0.22521
 Alpha  occ. eigenvalues --   -0.21861  -0.19646  -0.19256  -0.18751  -0.10128
 Alpha virt. eigenvalues --   -0.00533  -0.00116   0.00438   0.01241   0.01657
 Alpha virt. eigenvalues --    0.01839   0.02099   0.02137   0.03247   0.03782
 Alpha virt. eigenvalues --    0.04039   0.04345   0.04807   0.05436   0.05837

  Beta  occ. eigenvalues --  -19.11591 -19.01381 -19.00947 -10.17373 -10.17256
  Beta  occ. eigenvalues --  -10.16744 -10.16107 -10.15840 -10.15790 -10.15611
  Beta  occ. eigenvalues --  -10.14880 -10.14540 -10.14329 -10.14182 -10.14029
  Beta  occ. eigenvalues --  -10.13045 -10.12907 -10.12463  -1.02166  -0.93503
  Beta  occ. eigenvalues --   -0.92832  -0.82034  -0.80930  -0.76605  -0.73140
  Beta  occ. eigenvalues --   -0.71746  -0.68813  -0.68700  -0.64588  -0.61673
  Beta  occ. eigenvalues --   -0.58084  -0.56491  -0.52144  -0.51084  -0.50816
  Beta  occ. eigenvalues --   -0.47883  -0.45974  -0.44235  -0.42833  -0.42521
  Beta  occ. eigenvalues --   -0.41841  -0.39867  -0.39246  -0.38749  -0.38243
  Beta  occ. eigenvalues --   -0.37921  -0.36989  -0.36649  -0.36310  -0.36023
  Beta  occ. eigenvalues --   -0.34661  -0.34403  -0.32878  -0.32651  -0.31322
  Beta  occ. eigenvalues --   -0.31012  -0.30035  -0.29453  -0.23540  -0.22521
  Beta  occ. eigenvalues --   -0.21861  -0.19646  -0.19256  -0.18751  -0.10128
  Beta virt. eigenvalues --   -0.00533  -0.00116   0.00438   0.01241   0.01657
  Beta virt. eigenvalues --    0.01839   0.02099   0.02137   0.03247   0.03782
  Beta virt. eigenvalues --    0.04039   0.04345   0.04807   0.05436   0.05837

 Mulliken charges and spin densities:
               1          2
     1  O   -0.659277   0.000000
     2  C   -0.970478  -0.000000
     3  C    1.306980   0.000000
     4  C   -0.507332   0.000000
     5  O   -0.355854  -0.000000
     6  C   -0.505276  -0.000000
     7  O   -0.717956  -0.000000
     8  C    0.512245   0.000000
     9  C   -0.059108  -0.000000
    10  C   -0.459203  -0.000000
    11  C   -0.512504   0.000000
    12  C   -0.008559  -0.000000
    13  C   -0.135016   0.000000
    14  C   -0.062389  -0.000000
    15  H    0.138466   0.000000
    16  H    0.152668   0.000000
    17  H    0.151028   0.000000
    18  H    0.144377  -0.000000
    19  C   -0.712551   0.000000
    20  C    0.703075  -0.000000
    21  C   -0.567989  -0.000000
    22  C   -0.613062  -0.000000
    23  H    0.326910  -0.000000
    24  H    0.192206   0.000000
    25  H    0.145264   0.000000
    26  H    0.172211  -0.000000
    27  H    0.156276  -0.000000
    28  H    0.146075  -0.000000
    29  H    0.150400   0.000000
    30  H    0.156555   0.000000
    31  H    0.143221  -0.000000
    32  H    0.148597  -0.000000
 Sum of Mulliken charges =  -2.00000  -0.00000

 Dipole moment (field-independent basis, Debye):
    X=            -12.2521    Y=             -3.4291    Z=              1.2601  Tot=             12.7852
 Quadrupole moment (field-independent basis, Debye-Ang):
   XX=           -136.0910   YY=           -178.8294   ZZ=           -118.1337
   XY=             -7.5568   XZ=             -0.0684   YZ=             -1.3113

 Normal termination of Gaussian 16 at Sun Jan 21 09:10:04 2024.
