 Gaussian 16, Revision A.03,
 Gaussian 16:  ES64L-G16RevA.03 25-Dec-2016

 --------------------------------------
 #P UB3LYP/6-311++G(d,p) nosym opt freq
 --------------------------------------

 -------
 Reduced
 -------
 Symbolic Z-matrix:
 Charge = -2 Multiplicity = 1

 SCF Done:  E(UB3LYP) =  -727.200875611     A.U. after   51 cycles
 Optimization completed.
    -- Stationary point found.
 Normal termination of Gaussian 16 at Tue Jan  9 20:47:37 2024.

 ----------------------------------------------------------------------
 #P Geom=AllCheck Guess=TCheck SCRF=Check GenChk UB3LYP/6-311++G(d,p) F
 req
 ----------------------------------------------------------------------

 Structure from the checkpoint file:  "322-an.chk"
 -------
 Reduced
 -------
 Charge = -2 Multiplicity = 1

                          Input orientation:
 ---------------------------------------------------------------------
 Center     Atomic      Atomic             Coordinates (Angstroms)
 Number     Number       Type             X           Y           Z
 ---------------------------------------------------------------------
      1          6           0       -1.631964    2.900259   -0.675417
      2          6           0       -2.840813    2.297151   -0.386701
      3          6           0       -2.872307    0.925508   -0.014216
      4          6           0       -0.398773    2.205555   -0.616783
      5          6           0       -0.442134    0.800817   -0.251439
      6          6           0       -1.692446    0.206814    0.047252
      7          6           0        0.833706    2.919187   -0.926480
      8          6           0        2.098532    2.128374   -0.849909
      9          6           0        1.979848    0.733917   -0.487638
     10          6           0        0.785095    0.094943   -0.206032
     11          8           0        0.833745    4.144961   -1.242549
     12          8           0        3.229693    2.638575   -1.097056
     13          8           0        0.690905   -1.256167    0.161974
     14          6           0        1.880819   -1.969859    0.368558
     15          6           0        1.613887   -3.339610    0.916698
     16          6           0        0.423575   -3.842594    1.234718
     17          1           0       -1.579269    3.946840   -0.959200
     18          1           0       -3.765841    2.867615   -0.443768
     19          1           0       -3.817598    0.440802    0.218876
     20          1           0       -1.709904   -0.840678    0.328578
     21          1           0        2.922307    0.197242   -0.466294
     22          1           0        2.545576   -1.427834    1.059032
     23          1           0        2.447504   -2.073701   -0.575133
     24          1           0        2.508689   -3.950732    1.045866
     25          1           0       -0.478513   -3.255919    1.109861
     26          1           0        0.329568   -4.853495    1.620710
 ---------------------------------------------------------------------

 SCF Done:  E(UB3LYP) =  -727.200875611     A.U. after    5 cycles

 Alpha  occ. eigenvalues --  -18.93107 -18.80154 -18.80136 -10.02994  -9.99127
 Alpha  occ. eigenvalues --   -9.98511  -9.97557  -9.95766  -9.95431  -9.94494
 Alpha  occ. eigenvalues --   -9.94433  -9.94231  -9.93530  -9.93461  -9.92133
 Alpha  occ. eigenvalues --   -9.91366  -0.84301  -0.73225  -0.70482  -0.62255
 Alpha  occ. eigenvalues --   -0.60019  -0.55770  -0.51833  -0.49513  -0.48569
 Alpha  occ. eigenvalues --   -0.43060  -0.38442  -0.36694  -0.35595  -0.33098
 Alpha  occ. eigenvalues --   -0.30303  -0.27215  -0.27025  -0.26759  -0.25602
 Alpha  occ. eigenvalues --   -0.22986  -0.20663  -0.19924  -0.19157  -0.17589
 Alpha  occ. eigenvalues --   -0.16792  -0.16379  -0.14511  -0.13846  -0.12984
 Alpha  occ. eigenvalues --   -0.12438  -0.11506  -0.10457  -0.09773  -0.07649
 Alpha  occ. eigenvalues --   -0.06356  -0.03707  -0.01512   0.01482   0.02604
 Alpha  occ. eigenvalues --    0.04396   0.11892
 Alpha virt. eigenvalues --    0.13171   0.15120   0.15411   0.17097   0.18145
 Alpha virt. eigenvalues --    0.18598   0.19301   0.19712   0.20257   0.20820
 Alpha virt. eigenvalues --    0.22170   0.22723   0.23418   0.24279   0.24471

  Beta  occ. eigenvalues --  -18.93107 -18.80154 -18.80136 -10.02994  -9.99127
  Beta  occ. eigenvalues --   -9.98511  -9.97557  -9.95766  -9.95431  -9.94494
  Beta  occ. eigenvalues --   -9.94433  -9.94231  -9.93530  -9.93461  -9.92133
  Beta  occ. eigenvalues --   -9.91366  -0.84301  -0.73225  -0.70482  -0.62255
  Beta  occ. eigenvalues --   -0.60019  -0.55770  -0.51833  -0.49513  -0.48569
  Beta  occ. eigenvalues --   -0.43060  -0.38442  -0.36694  -0.35595  -0.33098
  Beta  occ. eigenvalues --   -0.30303  -0.27215  -0.27025  -0.26759  -0.25602
  Beta  occ. eigenvalues --   -0.22986  -0.20663  -0.19924  -0.19157  -0.17589
  Beta  occ. eigenvalues --   -0.16792  -0.16379  -0.14511  -0.13846  -0.12984
  Beta  occ. eigenvalues --   -0.12438  -0.11506  -0.10457  -0.09773  -0.07649
  Beta  occ. eigenvalues --   -0.06356  -0.03707  -0.01512   0.01482   0.02604
  Beta  occ. eigenvalues --    0.04396   0.11892
  Beta virt. eigenvalues --    0.13171   0.15120   0.15411   0.17097   0.18145
  Beta virt. eigenvalues --    0.18598   0.19301   0.19712   0.20257   0.20820
  Beta virt. eigenvalues --    0.22170   0.22723   0.23418   0.24279   0.24471

 Mulliken charges and spin densities:
               1          2
     1  C    0.115728   0.000000
     2  C   -0.532403  -0.000000
     3  C   -0.140567  -0.000000
     4  C    0.530596  -0.000000
     5  C   -0.203022  -0.000000
     6  C   -0.265819  -0.000000
     7  C   -0.238423  -0.000000
     8  C   -0.559899   0.000000
     9  C    1.145785   0.000000
    10  C   -1.088705  -0.000000
    11  O   -0.464041   0.000000
    12  O   -0.450835   0.000000
    13  O   -0.128641   0.000000
    14  C    0.357368   0.000000
    15  C   -1.500305  -0.000000
    16  C    2.664967   0.000000
    17  H    0.134272   0.000000
    18  H    0.073726  -0.000000
    19  H    0.103198   0.000000
    20  H   -0.004097  -0.000000
    21  H    0.148451   0.000000
    22  H    0.112838  -0.000000
    23  H    0.030696  -0.000000
    24  H   -0.929941  -0.000000
    25  H    0.334721   0.000000
    26  H   -1.245649  -0.000000
 Sum of Mulliken charges =  -2.00000  -0.00000

 Dipole moment (field-independent basis, Debye):
    X=             -9.3597    Y=             -5.2283    Z=              2.0868  Tot=             10.9221
 Quadrupole moment (field-independent basis, Debye-Ang):
   XX=           -158.2451   YY=           -252.0683   ZZ=           -127.0781
   XY=             -6.5354   XZ=              6.6875   YZ=             43.8187

  Exact polarizability:1098.517-120.6401704.896-111.635-492.190 401.973
 Approx polarizability:1263.986**************** 319.065********1578.022

                      1                      2                      3
                      A                      A                      A
 Frequencies --     43.0559                44.0927                76.4141
 Red. masses --      2.5751                 5.8096                 9.2997
 Frc consts  --      0.0028                 0.0067                 0.0320
 IR Inten    --      1.0633                12.3694                 1.3799

                      4                      5                      6
                      A                      A                      A
 Frequencies --     96.6970               127.4012               184.0325
 Red. masses --      4.4159                 4.1413                 7.5258
 Frc consts  --      0.0243                 0.0396                 0.1502
 IR Inten    --      2.8037                 4.6043                 1.2621

                      7                      8                      9
                      A                      A                      A
 Frequencies --    208.9206               223.9979               244.5597
 Red. masses --      4.4304                 2.5561                 2.4418
 Frc consts  --      0.1139                 0.0756                 0.0860
 IR Inten    --      0.3762                25.7142                24.6647

                     10                     11                     12
                      A                      A                      A
 Frequencies --    257.4706               351.2330               359.1279
 Red. masses --      5.4124                 7.0748                12.7478
 Frc consts  --      0.2114                 0.5142                 0.9687
 IR Inten    --      1.6858                 3.3371                23.7615

                     13                     14                     15
                      A                      A                      A
 Frequencies --    401.1160               414.1300               424.1762
 Red. masses --      7.3000                 7.4079                 3.4615
 Frc consts  --      0.6920                 0.7485                 0.3669
 IR Inten    --      5.7167                 3.8421                 5.3022

                     16                     17                     18
                      A                      A                      A
 Frequencies --    461.4392               502.6145               520.5300
 Red. masses --      7.8044                 5.0070                 3.4936
 Frc consts  --      0.9791                 0.7452                 0.5577
 IR Inten    --    178.6271                 4.9087                 9.0465

                     19                     20                     21
                      A                      A                      A
 Frequencies --    598.5626               610.6794               649.8221
 Red. masses --      3.9850                 5.7640                 1.2446
 Frc consts  --      0.8412                 1.2665                 0.3097
 IR Inten    --      5.5756                36.5551               190.5664

                     22                     23                     24
                      A                      A                      A
 Frequencies --    671.5795               682.7284               693.1566
 Red. masses --      4.5469                 6.2967                 1.9203
 Frc consts  --      1.2083                 1.7293                 0.5436
 IR Inten    --     89.2465                26.6010                52.9229

                     25                     26                     27
                      A                      A                      A
 Frequencies --    718.7774               729.9287               761.4158
 Red. masses --      6.4163                 2.2539                 2.7072
 Frc consts  --      1.9531                 0.7075                 0.9247
 IR Inten    --     34.3319                48.1549                 4.8086

                     28                     29                     30
                      A                      A                      A
 Frequencies --    793.2225               814.2431               842.6094
 Red. masses --      1.7468                 1.7466                 4.3781
 Frc consts  --      0.6476                 0.6823                 1.8314
 IR Inten    --      1.5439                26.2731                22.6379

                     31                     32                     33
                      A                      A                      A
 Frequencies --    923.9163               927.6820               955.4322
 Red. masses --      1.3025                 2.8886                 1.2803
 Frc consts  --      0.6551                 1.4646                 0.6886
 IR Inten    --      0.8082                60.2618                 4.6189

                     34                     35                     36
                      A                      A                      A
 Frequencies --    973.7896               975.0465               994.7765
 Red. masses --      2.0322                 1.9800                 3.0859
 Frc consts  --      1.1354                 1.1091                 1.7992
 IR Inten    --    125.2004                83.7713                52.3157

                     37                     38                     39
                      A                      A                      A
 Frequencies --   1019.8368              1023.1070              1064.7818
 Red. masses --      2.1179                 1.2333                 2.4608
 Frc consts  --      1.2978                 0.7606                 1.6438
 IR Inten    --    149.9284                22.5066               226.0938

                     40                     41                     42
                      A                      A                      A
 Frequencies --   1069.7127              1120.6362              1146.0627
 Red. masses --      1.5603                 1.6234                 1.2236
 Frc consts  --      1.0519                 1.2012                 0.9469
 IR Inten    --     28.7074                18.9839               324.1777

                     43                     44                     45
                      A                      A                      A
 Frequencies --   1163.4459              1206.6742              1217.4987
 Red. masses --      3.7162                 2.2178                 2.7069
 Frc consts  --      2.9637                 1.9026                 2.3640
 IR Inten    --    160.0358               351.8221                 1.5309

                     46                     47                     48
                      A                      A                      A
 Frequencies --   1229.6390              1260.1716              1276.1383
 Red. masses --      2.8329                 1.0724                 2.3434
 Frc consts  --      2.5237                 1.0034                 2.2485
 IR Inten    --     18.9531                13.1966               600.5986

                     49                     50                     51
                      A                      A                      A
 Frequencies --   1316.0366              1345.9925              1384.5885
 Red. masses --      1.2764                 4.4145                 1.8495
 Frc consts  --      1.3025                 4.7122                 2.0890
 IR Inten    --     38.7838               434.9065               493.1603

                     52                     53                     54
                      A                      A                      A
 Frequencies --   1415.0209              1430.8665              1435.7730
 Red. masses --      1.8094                 1.4498                 2.5939
 Frc consts  --      2.1346                 1.7489                 3.1505
 IR Inten    --    488.0005               228.5154                55.9889

                     55                     56                     57
                      A                      A                      A
 Frequencies --   1461.8225              1481.0602              1497.2477
 Red. masses --      6.2542                 2.9256                 1.2422
 Frc consts  --      7.8743                 3.7810                 1.6407
 IR Inten    --   1949.6652               489.1307                70.3793

                     58                     59                     60
                      A                      A                      A
 Frequencies --   1519.9435              1533.6727              1551.7783
 Red. masses --      4.3040                 6.6724                 6.4299
 Frc consts  --      5.8584                 9.2470                 9.1225
 IR Inten    --    359.4279              5022.1009               593.5024

                     61                     62                     63
                      A                      A                      A
 Frequencies --   1592.9801              1695.8185              2906.0714
 Red. masses --      5.6361                 4.9165                 1.0734
 Frc consts  --      8.4266                 8.3304                 5.3412
 IR Inten    --     43.8732                20.0884               145.0957

                     64                     65                     66
                      A                      A                      A
 Frequencies --   2962.5106              3090.4480              3101.6340
 Red. masses --      1.0820                 1.0852                 1.0830
 Frc consts  --      5.5952                 6.1064                 6.1386
 IR Inten    --     60.9916                13.0380                52.7586

                     67                     68                     69
                      A                      A                      A
 Frequencies --   3114.2975              3125.6904              3159.1024
 Red. masses --      1.0654                 1.0899                 1.0874
 Frc consts  --      6.0880                 6.2737                 6.3941
 IR Inten    --     27.2521               135.8417                25.0796

                     70                     71                     72
                      A                      A                      A
 Frequencies --   3159.4715              3166.1581              3216.0558
 Red. masses --      1.0903                 1.0914                 1.1127
 Frc consts  --      6.4128                 6.4463                 6.7807
 IR Inten    --    101.8895                61.2438                33.1300

 - Thermochemistry -
 -------------------
 Temperature   298.150 Kelvin.  Pressure   1.00000 Atm.
 Atom     1 has atomic number  6 and mass  12.00000

 Molecular mass:   214.06299 amu.
 Principal axes and moments of inertia in atomic units:
                           1         2         3
     Eigenvalues --  2389.648444517.737206889.19823
           X           -0.18625   0.97797   0.09428
           Y            0.94643   0.15282   0.28445
           Z           -0.26377  -0.14221   0.95404
 This molecule is an asymmetric top.
 Rotational symmetry number  1.
 Warning -- assumption of classical behavior for rotation
           may cause significant error
 Rotational temperatures (Kelvin)      0.03625     0.01917     0.01257
 Rotational constants (GHZ):           0.75523     0.39948     0.26197
 Zero-point vibrational energy     506738.9 (Joules/Mol)
                                  121.11350 (Kcal/Mol)
 Warning -- explicit consideration of  20 degrees of freedom as
           vibrations may cause significant error
 Vibrational temperatures:     61.95    63.44   109.94   139.13   183.30
          (Kelvin)            264.78   300.59   322.28   351.87   370.44
                              505.35   516.70   577.12   595.84   610.29
                              663.91   723.15   748.93   861.20   878.63
                              934.95   966.25   982.29   997.30  1034.16
                             1050.20  1095.51  1141.27  1171.51  1212.33
                             1329.31  1334.73  1374.65  1401.07  1402.87
                             1431.26  1467.32  1472.02  1531.98  1539.08
                             1612.35  1648.93  1673.94  1736.13  1751.71
                             1769.18  1813.11  1836.08  1893.48  1936.58
                             1992.11  2035.90  2058.70  2065.76  2103.24
                             2130.92  2154.21  2186.86  2206.61  2232.66
                             2291.94  2439.90  4181.19  4262.39  4446.47
                             4462.56  4480.78  4497.17  4545.24  4545.77
                             4555.40  4627.19

 Zero-point correction=                           0.193007 (Hartree/Particle)
 Thermal correction to Energy=                    0.206587
 Thermal correction to Enthalpy=                  0.207531
 Thermal correction to Gibbs Free Energy=         0.151830
 Sum of electronic and zero-point Energies=           -727.007869
 Sum of electronic and thermal Energies=              -726.994289
 Sum of electronic and thermal Enthalpies=            -726.993345
 Sum of electronic and thermal Free Energies=         -727.049046

                     E (Thermal)             CV                S
                      KCal/Mol        Cal/Mol-Kelvin    Cal/Mol-Kelvin
 Total                  129.635             52.463            117.233
 Electronic               0.000              0.000              0.000
 Translational            0.889              2.981             41.987
 Rotational               0.889              2.981             32.675
 Vibrational            127.858             46.501             42.571
 Vibration     1          0.595              1.980              5.113
 Vibration     2          0.595              1.980              5.066
 Vibration     3          0.599              1.965              3.981
 Vibration     4          0.603              1.952              3.520
 Vibration     5          0.611              1.926              2.985
 Vibration     6          0.631              1.862              2.287
 Vibration     7          0.642              1.827              2.053
 Vibration     8          0.649              1.805              1.927
 Vibration     9          0.660              1.772              1.769
 Vibration    10          0.667              1.750              1.679
 Vibration    11          0.728              1.573              1.161
 Vibration    12          0.734              1.556              1.126
 Vibration    13          0.767              1.468              0.959
 Vibration    14          0.778              1.440              0.912
 Vibration    15          0.786              1.418              0.878
 Vibration    16          0.819              1.336              0.762
 Vibration    17          0.858              1.244              0.652
 Vibration    18          0.876              1.205              0.609
 Vibration    19          0.957              1.035              0.452
 Vibration    20          0.970              1.009              0.432

 Optimization completed.
    -- Stationary point found.
 Normal termination of Gaussian 16 at Tue Jan  9 21:44:21 2024.
