 Q-Chem 5.4, Q-Chem, Inc., Pleasanton, CA (2021)
 Q-Chem 5.4.0 for Intel X86 EM64T Linux

User input:
--------------------------------------------------------------
$molecule
-2 1
C                 -1.6319640000      2.9002590000     -0.6754170000
C                 -2.8408130000      2.2971510000     -0.3867010000
C                 -2.8723070000      0.9255080000     -0.0142160000
C                 -0.3987730000      2.2055550000     -0.6167830000
C                 -0.4421340000      0.8008170000     -0.2514390000
C                 -1.6924460000      0.2068140000      0.0472520000
C                  0.8337060000      2.9191870000     -0.9264800000
C                  2.0985320000      2.1283740000     -0.8499090000
C                  1.9798480000      0.7339170000     -0.4876380000
C                  0.7850950000      0.0949430000     -0.2060320000
O                  0.8337450000      4.1449610000     -1.2425490000
O                  3.2296930000      2.6385750000     -1.0970560000
O                  0.6909050000     -1.2561670000      0.1619740000
C                  1.8808190000     -1.9698590000      0.3685580000
C                  1.6138870000     -3.3396100000      0.9166980000
C                  0.4235750000     -3.8425940000      1.2347180000
H                 -1.5792690000      3.9468400000     -0.9592000000
H                 -3.7658410000      2.8676150000     -0.4437680000
H                 -3.8175980000      0.4408020000      0.2188760000
H                 -1.7099040000     -0.8406780000      0.3285780000
H                  2.9223070000      0.1972420000     -0.4662940000
H                  2.5455760000     -1.4278340000      1.0590320000
H                  2.4475040000     -2.0737010000     -0.5751330000
H                  2.5086890000     -3.9507320000      1.0458660000
H                 -0.4785130000     -3.2559190000      1.1098610000
H                  0.3295680000     -4.8534950000      1.6207100000
$end

$rem
BASIS  =  6-311++G(d,p)
GUI  =  2
JOB_TYPE  =  SP
METHOD  =  B3LYP
SCF_CONVERGENCE  = 8
SOLVENT_METHOD = sm12
$end

$smx
solvent dimethylformamide
charges CM5
$end

--------------------------------------------------------------

             Standard Nuclear Orientation (Angstroms)
    I     Atom           X                Y                Z
 ----------------------------------------------------------------
    1      C      -1.6319640000     2.9002590000    -0.6754170000
    2      C      -2.8408130000     2.2971510000    -0.3867010000
    3      C      -2.8723070000     0.9255080000    -0.0142160000
    4      C      -0.3987730000     2.2055550000    -0.6167830000
    5      C      -0.4421340000     0.8008170000    -0.2514390000
    6      C      -1.6924460000     0.2068140000     0.0472520000
    7      C       0.8337060000     2.9191870000    -0.9264800000
    8      C       2.0985320000     2.1283740000    -0.8499090000
    9      C       1.9798480000     0.7339170000    -0.4876380000
   10      C       0.7850950000     0.0949430000    -0.2060320000
   11      O       0.8337450000     4.1449610000    -1.2425490000
   12      O       3.2296930000     2.6385750000    -1.0970560000
   13      O       0.6909050000    -1.2561670000     0.1619740000
   14      C       1.8808190000    -1.9698590000     0.3685580000
   15      C       1.6138870000    -3.3396100000     0.9166980000
   16      C       0.4235750000    -3.8425940000     1.2347180000
   17      H      -1.5792690000     3.9468400000    -0.9592000000
   18      H      -3.7658410000     2.8676150000    -0.4437680000
   19      H      -3.8175980000     0.4408020000     0.2188760000
   20      H      -1.7099040000    -0.8406780000     0.3285780000
   21      H       2.9223070000     0.1972420000    -0.4662940000
   22      H       2.5455760000    -1.4278340000     1.0590320000
   23      H       2.4475040000    -2.0737010000    -0.5751330000
   24      H       2.5086890000    -3.9507320000     1.0458660000
   25      H      -0.4785130000    -3.2559190000     1.1098610000
   26      H       0.3295680000    -4.8534950000     1.6207100000
 ----------------------------------------------------------------

   18    -727.1773352358      5.69e-09  Convergence criterion met
 Total energy in the final basis set =     -727.4748801286

                    Orbital Energies (a.u.)
 --------------------------------------------------------------

 Alpha MOs
 -- Occupied --
-19.1427 -19.0241 -19.0187 -10.2314 -10.2039 -10.1876 -10.1804 -10.1734
-10.1731 -10.1709 -10.1689 -10.1682 -10.1645 -10.1560 -10.1437 -10.1400
 -1.0548  -0.9548  -0.9281  -0.8458  -0.8049  -0.7758  -0.7433  -0.7106
 -0.6999  -0.6482  -0.6077  -0.5802  -0.5755  -0.5416  -0.5185  -0.4925
 -0.4848  -0.4738  -0.4663  -0.4375  -0.4296  -0.4194  -0.4149  -0.4012
 -0.3881  -0.3700  -0.3659  -0.3606  -0.3482  -0.3423  -0.3409  -0.3261
 -0.3226  -0.2890  -0.2727  -0.2592  -0.2437  -0.2089  -0.2013  -0.1805
 -0.1135

          Ground-State Mulliken Net Atomic Charges

     Atom                 Charge (a.u.)
  ----------------------------------------
      1 C                    -1.225622
      2 C                     0.890367
      3 C                     1.570182
      4 C                    -2.370692
      5 C                    -1.042466
      6 C                     0.174848
      7 C                    -1.571866
      8 C                    -3.005970
      9 C                     0.059334
     10 C                     1.050104
     11 O                    -0.419641
     12 O                    -0.408845
     13 O                     0.070803
     14 C                    -0.119097
     15 C                     1.968543
     16 C                     0.335920
     17 H                     0.020833
     18 H                     0.313845
     19 H                     0.397767
     20 H                     0.194647
     21 H                     0.115075
     22 H                     0.096154
     23 H                     0.102033
     24 H                     0.353628
     25 H                     0.113367
     26 H                     0.336750
  ----------------------------------------
  Sum of atomic charges =    -2.000000

                    Cartesian Multipole Moments
 -----------------------------------------------------------------
    Charge (ESU x 10^10)
                -9.6064
    Dipole Moment (Debye)
         X      -6.7203      Y     -23.9010      Z       7.8080
       Tot      26.0266
    Quadrupole Moments (Debye-Ang)
        XX    -149.7195     XY     -30.8786     YY    -187.7943
        XZ      13.0183     YZ      25.4344     ZZ    -116.8891

 Total job time:  589.44s(wall), 4314.77s(cpu)
        *  Thank you very much for using Q-Chem.  Have a nice day.  *
