 Q-Chem 5.4, Q-Chem, Inc., Pleasanton, CA (2021)
 Q-Chem 5.4.0 for Intel X86 EM64T Linux

User input:
--------------------------------------------------------------
$molecule
0 1
C                  3.3234690000     -0.9581070000     -0.0974500000
O                  1.9235980000     -1.1375320000      0.0929460000
C                  1.0866860000     -0.0989330000     -0.0876530000
C                  1.5354490000      1.1767980000     -0.4621950000
C                  0.6360260000      2.2218020000     -0.6375860000
C                 -0.7247290000      2.0223570000     -0.4451050000
C                 -1.1876560000      0.7618460000     -0.0731140000
C                 -2.6655010000      0.6004400000      0.1220080000
O                 -3.4399300000      1.5306530000     -0.0372700000
C                 -3.1600160000     -0.7321050000      0.5170690000
C                 -2.3204900000     -1.7581620000      0.6932030000
C                 -0.8456730000     -1.6527370000      0.5112720000
O                 -0.1683800000     -2.6506140000      0.6954410000
C                 -0.3009210000     -0.3226920000      0.1135140000
H                  3.7668320000     -1.9304680000      0.1070670000
H                  3.5522940000     -0.6627250000     -1.1264250000
H                  3.7301070000     -0.2185560000      0.5997880000
H                  2.5900620000      1.3554420000     -0.6175510000
H                  1.0072530000      3.1984200000     -0.9271980000
H                 -1.4416370000      2.8221010000     -0.5762330000
H                 -4.2323530000     -0.8219720000      0.6523850000
H                 -2.6644920000     -2.7452560000      0.9830880000
$end
$rem
MAX_SCF_CYCLES=200
BASIS  =  6-311++G(d,p)
GUI  =  2
JOB_TYPE  =  SP
METHOD  =  B3LYP
SOLVENT_METHOD = COSMO
$end
$solvent
dielectric 37.219
opticaldielectric 1.43
$end

--------------------------------------------------------------

             Standard Nuclear Orientation (Angstroms)
    I     Atom           X                Y                Z
 ----------------------------------------------------------------
    1      C       3.7670085056     0.3415422995    -0.0013162438
    2      O       2.3972422557     0.7311863781    -0.0004815052
    3      C       1.4352772985    -0.2102745731     0.0000437815
    4      C       1.7223393168    -1.5838665313     0.0002765392
    5      C       0.6973807492    -2.5225981237     0.0004439780
    6      C      -0.6310496908    -2.1179328750     0.0003172849
    7      C      -0.9340912090    -0.7578841573     0.0001899647
    8      C      -2.3837387988    -0.3749062860    -0.0001989504
    9      O      -3.2700278815    -1.2144879197     0.0003711471
   10      C      -2.7092877959     1.0639510508    -0.0015667357
   11      C      -1.7462247750     1.9919216897    -0.0011556907
   12      C      -0.2925004740     1.6663748053     0.0006843626
   13      O       0.5057999616     2.5889339246     0.0025873447
   14      C       0.0831997609     0.2231717652     0.0002498758
   15      H       4.3292968821     1.2730546349    -0.0019627996
   16      H       4.0190362687    -0.2353062015     0.8943001755
   17      H       4.0177648485    -0.2358003082    -0.8969879153
   18      H       2.7488948395    -1.9221585580     0.0003700403
   19      H       0.9446696452    -3.5782095477     0.0006375531
   20      H      -1.4438831856    -2.8321063890     0.0003146380
   21      H      -3.7646150494     1.3141040952    -0.0025573534
   22      H      -1.9651562611     3.0543688262    -0.0017392268
 ----------------------------------------------------------------

    9    -649.8067414448      4.52e-06  Convergence criterion met
 Total energy in the final basis set =     -649.8067414448
    5    -649.8255435211      3.60e-06  Convergence criterion met
 Total energy in the final basis set =     -649.8255435211

                    Orbital Energies (a.u.)
 --------------------------------------------------------------

 Alpha MOs
 -- Occupied --
-19.1727 -19.1371 -19.1315 -10.2852 -10.2841 -10.2671 -10.2244 -10.2104
-10.2092 -10.2091 -10.2064 -10.1990 -10.1951 -10.1906  -1.0935  -1.0702
 -1.0644  -0.8880  -0.8385  -0.7849  -0.7772  -0.7172  -0.6985  -0.6479
 -0.6402  -0.5854  -0.5464  -0.5400  -0.5185  -0.5048  -0.4861  -0.4841
 -0.4700  -0.4642  -0.4497  -0.4381  -0.4275  -0.4229  -0.4198  -0.3936
 -0.3902  -0.3843  -0.3531  -0.3430  -0.3082  -0.2880  -0.2829  -0.2717
 -0.2494

          Ground-State Mulliken Net Atomic Charges

     Atom                 Charge (a.u.)
  ----------------------------------------
      1 C                    -0.306626
      2 O                    -0.155938
      3 C                     0.347846
      4 C                     0.008338
      5 C                    -0.410927
      6 C                     0.064134
      7 C                    -0.049227
      8 C                    -0.256713
      9 O                    -0.325683
     10 C                    -0.219165
     11 C                    -0.007866
     12 C                    -0.351554
     13 O                    -0.327573
     14 C                     0.252519
     15 H                     0.212598
     16 H                     0.180348
     17 H                     0.180373
     18 H                     0.227270
     19 H                     0.242017
     20 H                     0.191784
     21 H                     0.254078
     22 H                     0.249966
  ----------------------------------------
  Sum of atomic charges =     0.000000

                    Cartesian Multipole Moments
 -----------------------------------------------------------------
    Charge (ESU x 10^10)
                 0.0000
    Dipole Moment (Debye)
         X       3.9590      Y      -2.5734      Z      -0.0096
       Tot       4.7219
    Quadrupole Moments (Debye-Ang)
        XX     -71.7169     XY     -18.7602     YY     -82.3955
        XZ      -0.0012     YZ      -0.0191     ZZ     -81.6603

 Total job time:  29.97s(wall), 221.55s(cpu)
        *  Thank you very much for using Q-Chem.  Have a nice day.  *
