 Q-Chem 5.4, Q-Chem, Inc., Pleasanton, CA (2021)
 Q-Chem 5.4.0 for Intel X86 EM64T Linux

User input:
--------------------------------------------------------------
$molecule
-2 1
C                 -1.0230010000      2.0353060000     -0.2855770000
C                 -1.4797750000      2.1318030000      1.0156130000
C                 -0.8508520000      1.3916970000      2.0416320000
C                  0.0713600000      1.2032640000     -0.6166520000
C                  0.7107270000      0.4522040000      0.4232440000
C                  0.2245450000      0.5707900000      1.7361710000
C                  0.5414330000      1.1060830000     -1.9755150000
C                  1.6632080000      0.2307620000     -2.2023100000
C                  2.3025810000     -0.5141900000     -1.2271840000
C                  1.8571990000     -0.4341890000      0.1469840000
O                  0.0454200000      1.7257610000     -2.9828980000
O                  2.4133510000     -1.0927190000      1.0710870000
H                 -1.4895880000      2.5939960000     -1.0898600000
H                 -2.3222260000      2.7775940000      1.2501140000
H                 -1.2080040000      1.4668600000      3.0650550000
H                  0.7281950000     -0.0081350000      2.5029080000
O                  2.0545600000      0.1868480000     -3.5135570000
C                  3.4645050000     -1.4135950000     -1.5626700000
C                  4.8410180000     -0.7336210000     -1.4107400000
C                  6.0131150000     -1.6660120000     -1.7422930000
C                  7.3928030000     -1.0084010000     -1.6091970000
C                  8.5639190000     -1.9387470000     -1.9535790000
C                  9.9438520000     -1.2794230000     -1.8248510000
C                 11.1166400000     -2.2057540000     -2.1733410000
C                 12.4936330000     -1.5370790000     -2.0473400000
C                 13.6771170000     -2.4823360000     -2.4054900000
C                 15.0260190000     -1.8706720000     -2.2972490000
Br                16.8209850000     -3.8601290000     -3.0177440000
H                  1.4072940000      0.8037090000     -3.9259450000
H                  3.3617970000     -1.7757660000     -2.5915300000
H                  3.4315250000     -2.2757710000     -0.8883720000
H                  4.9371440000     -0.3718940000     -0.3812320000
H                  4.8780630000      0.1465730000     -2.0638370000
H                  5.8941090000     -2.0447620000     -2.7670800000
H                  5.9687790000     -2.5458830000     -1.0862510000
H                  7.5166160000     -0.6364050000     -0.5835620000
H                  7.4336020000     -0.1234300000     -2.2583080000
H                  8.4378250000     -2.3122480000     -2.9787510000
H                  8.5250690000     -2.8231980000     -1.3036490000
H                 10.0704350000     -0.9076280000     -0.7993630000
H                  9.9802580000     -0.3932890000     -2.4725220000
H                 10.9902870000     -2.5796000000     -3.1981770000
H                 11.0847340000     -3.0906240000     -1.5237900000
H                 12.6316510000     -1.1676980000     -1.0237850000
H                 12.5353140000     -0.6546200000     -2.6975140000
H                 13.5212560000     -2.8478690000     -3.4289230000
H                 13.6193570000     -3.3615400000     -1.7505940000
H                 15.5111310000     -1.7850400000     -1.3348580000
H                 15.4066160000     -1.2440160000     -3.0918120000
$end

$rem
MAX_SCF_CYCLES=200
BASIS  =  6-311++G(d,p)
GUI  =  2
JOB_TYPE  =  SP
METHOD  =  B3LYP
THRESH      14
SCF_CONVERGENCE  = 5
SOLVENT_METHOD = sm12
$end

$smx
solvent dimethylformamide
charges CM5
$end

--------------------------------------------------------------

             Standard Nuclear Orientation (Angstroms)
    I     Atom           X                Y                Z
 ----------------------------------------------------------------
    1      C      -1.0230010000     2.0353060000    -0.2855770000
    2      C      -1.4797750000     2.1318030000     1.0156130000
    3      C      -0.8508520000     1.3916970000     2.0416320000
    4      C       0.0713600000     1.2032640000    -0.6166520000
    5      C       0.7107270000     0.4522040000     0.4232440000
    6      C       0.2245450000     0.5707900000     1.7361710000
    7      C       0.5414330000     1.1060830000    -1.9755150000
    8      C       1.6632080000     0.2307620000    -2.2023100000
    9      C       2.3025810000    -0.5141900000    -1.2271840000
   10      C       1.8571990000    -0.4341890000     0.1469840000
   11      O       0.0454200000     1.7257610000    -2.9828980000
   12      O       2.4133510000    -1.0927190000     1.0710870000
   13      H      -1.4895880000     2.5939960000    -1.0898600000
   14      H      -2.3222260000     2.7775940000     1.2501140000
   15      H      -1.2080040000     1.4668600000     3.0650550000
   16      H       0.7281950000    -0.0081350000     2.5029080000
   17      O       2.0545600000     0.1868480000    -3.5135570000
   18      C       3.4645050000    -1.4135950000    -1.5626700000
   19      C       4.8410180000    -0.7336210000    -1.4107400000
   20      C       6.0131150000    -1.6660120000    -1.7422930000
   21      C       7.3928030000    -1.0084010000    -1.6091970000
   22      C       8.5639190000    -1.9387470000    -1.9535790000
   23      C       9.9438520000    -1.2794230000    -1.8248510000
   24      C      11.1166400000    -2.2057540000    -2.1733410000
   25      C      12.4936330000    -1.5370790000    -2.0473400000
   26      C      13.6771170000    -2.4823360000    -2.4054900000
   27      C      15.0260190000    -1.8706720000    -2.2972490000
   28      Br     16.8209850000    -3.8601290000    -3.0177440000
   29      H       1.4072940000     0.8037090000    -3.9259450000
   30      H       3.3617970000    -1.7757660000    -2.5915300000
   31      H       3.4315250000    -2.2757710000    -0.8883720000
   32      H       4.9371440000    -0.3718940000    -0.3812320000
   33      H       4.8780630000     0.1465730000    -2.0638370000
   34      H       5.8941090000    -2.0447620000    -2.7670800000
   35      H       5.9687790000    -2.5458830000    -1.0862510000
   36      H       7.5166160000    -0.6364050000    -0.5835620000
   37      H       7.4336020000    -0.1234300000    -2.2583080000
   38      H       8.4378250000    -2.3122480000    -2.9787510000
   39      H       8.5250690000    -2.8231980000    -1.3036490000
   40      H      10.0704350000    -0.9076280000    -0.7993630000
   41      H       9.9802580000    -0.3932890000    -2.4725220000
   42      H      10.9902870000    -2.5796000000    -3.1981770000
   43      H      11.0847340000    -3.0906240000    -1.5237900000
   44      H      12.6316510000    -1.1676980000    -1.0237850000
   45      H      12.5353140000    -0.6546200000    -2.6975140000
   46      H      13.5212560000    -2.8478690000    -3.4289230000
   47      H      13.6193570000    -3.3615400000    -1.7505940000
   48      H      15.5111310000    -1.7850400000    -1.3348580000
   49      H      15.4066160000    -1.2440160000    -3.0918120000
 ----------------------------------------------------------------

   21   -3577.3003927641      3.58e-06  Convergence criterion met
 Total energy in the final basis set =    -3577.5308221156

                    Orbital Energies (a.u.)
 --------------------------------------------------------------

 Alpha MOs
 -- Occupied --
******** -62.4009 -56.2201 -56.2182 -56.2182 -19.1279 -19.0481 -19.0399
-10.2179 -10.1988 -10.1975 -10.1890 -10.1799 -10.1764 -10.1738 -10.1700
-10.1694 -10.1691 -10.1683 -10.1656 -10.1646 -10.1642 -10.1638 -10.1613
-10.1595 -10.1584 -10.1557 -10.1446  -8.6085  -6.4354  -6.4293  -6.4293
 -2.5469  -2.5453  -2.5453  -2.5404  -2.5404  -1.0439  -0.9651  -0.9578
 -0.8478  -0.8195  -0.8075  -0.7920  -0.7734  -0.7494  -0.7445  -0.7234
 -0.6933  -0.6760  -0.6578  -0.6411  -0.6151  -0.6037  -0.5877  -0.5816
 -0.5771  -0.5726  -0.5566  -0.5249  -0.4930  -0.4919  -0.4811  -0.4685
 -0.4586  -0.4481  -0.4468  -0.4363  -0.4309  -0.4263  -0.4235  -0.4162
 -0.4059  -0.4008  -0.3976  -0.3879  -0.3798  -0.3767  -0.3697  -0.3681
 -0.3637  -0.3614  -0.3537  -0.3451  -0.3387  -0.3373  -0.3323  -0.3304
 -0.3276  -0.3254  -0.3241  -0.3221  -0.3155  -0.3076  -0.2533  -0.2507
 -0.2433  -0.2327  -0.2326  -0.2294  -0.2121  -0.2096  -0.1143

          Ground-State Mulliken Net Atomic Charges

     Atom                 Charge (a.u.)
  ----------------------------------------
      1 C                    -0.037886
      2 C                     1.057112
      3 C                     1.044079
      4 C                    -1.302574
      5 C                    -1.656763
      6 C                    -0.385059
      7 C                    -1.738307
      8 C                    -0.355366
      9 C                     1.156869
     10 C                    -2.319514
     11 O                    -0.401763
     12 O                    -0.287954
     13 H                     0.138177
     14 H                     0.375184
     15 H                     0.351610
     16 H                     0.102147
     17 O                    -0.090655
     18 C                    -0.966763
     19 C                    -3.534951
     20 C                    -1.544082
     21 C                     0.053229
     22 C                     1.522034
     23 C                     2.174994
     24 C                     1.841485
     25 C                     1.195925
     26 C                    -0.108201
     27 C                    -0.470850
     28 Br                   -0.705741
     29 H                     0.308191
     30 H                     0.166727
     31 H                     0.086043
     32 H                     0.044458
     33 H                     0.031737
     34 H                     0.222926
     35 H                     0.220855
     36 H                     0.135675
     37 H                     0.158743
     38 H                     0.095163
     39 H                     0.094883
     40 H                     0.118035
     41 H                     0.111917
     42 H                     0.135415
     43 H                     0.134998
     44 H                     0.145374
     45 H                     0.143319
     46 H                     0.106804
     47 H                     0.102485
     48 H                     0.165843
     49 H                     0.163992
  ----------------------------------------
  Sum of atomic charges =    -2.000000

                    Cartesian Multipole Moments
 -----------------------------------------------------------------
    Charge (ESU x 10^10)
                -9.6064
    Dipole Moment (Debye)
         X     -43.3380      Y       6.2864      Z      12.2102
       Tot      45.4620
    Quadrupole Moments (Debye-Ang)
        XX    -827.8904     XY     173.5415     YY    -228.7223
        XZ     119.4448     YZ     -18.7931     ZZ    -226.6705

 Total job time:  3916.96s(wall), 27981.54s(cpu)
        *  Thank you very much for using Q-Chem.  Have a nice day.  *
