 Gaussian 16, Revision A.03,
 Gaussian 16:  ES64L-G16RevA.03 25-Dec-2016

 ----------------------------------------------------------------
 #P UB3LYP/6-311++G(d,p) SCRF=(PCM,Solvent=n,n-DiMethylFormamide)
 ----------------------------------------------------------------

 ------------------
 Quinone PCM in DMF
 ------------------
 Symbolic Z-matrix:
 Charge =  0 Multiplicity = 1

                         Standard orientation:
 ---------------------------------------------------------------------
 Center     Atomic      Atomic             Coordinates (Angstroms)
 Number     Number       Type             X           Y           Z
 ---------------------------------------------------------------------
      1          6           0       18.757779    1.016281    1.679868
      2          6           0       18.048754    1.674547    0.533661
      3          6           0       17.725646    0.959812   -0.563368
      4          6           0       17.996618   -0.506178   -0.614449
      5          6           0       18.663646   -1.176500    0.558737
      6          6           0       19.007471   -0.444977    1.652615
      7          8           0       19.148015    1.685864    2.627266
      8          8           0       17.671492   -1.167777   -1.582176
      9          6           0       19.164716   -0.927518    3.998850
     10          6           0       19.232799   -3.405438    1.350467
     11          6           0       17.776580    3.146471    0.677563
     12          1           0       19.863790   -1.463113    4.639830
     13          1           0       18.190187   -1.428234    4.022656
     14          1           0       19.068780    0.104487    4.331904
     15          1           0       19.180554   -4.380913    0.869697
     16          1           0       18.528985   -3.368295    2.185165
     17          1           0       20.241503   -3.209190    1.709092
     18          6           0       17.047360    1.548382   -1.782522
     19          6           0       15.540039    1.456138   -1.689743
     20          6           0       14.635631    2.431755   -1.851412
     21          6           0       13.157938    2.117098   -1.726910
     22          6           0       12.493246    2.698298   -0.453257
     23          6           0       11.015231    2.424614   -0.408283
     24          6           0       10.325136    1.673904    0.462106
     25          6           0        8.825009    1.520668    0.310598
     26          6           0        8.369455    0.099578   -0.105265
     27          6           0        6.872534   -0.016073   -0.189240
     28          6           0        6.109280   -0.294277   -1.255722
     29          6           0        4.602268   -0.365286   -1.114159
     30          6           0       14.965890    3.865188   -2.187987
     31          6           0       10.935910    0.947468    1.635748
     32          6           0        6.644083   -0.553735   -2.643392
     33          6           0        4.015500   -1.789643   -1.282875
     34          6           0        2.514800   -1.801916   -1.188540
     35          6           0        1.734650   -2.376006   -0.261608
     36          6           0        0.227113   -2.248113   -0.351854
     37          6           0       -0.400767   -1.348458    0.742808
     38          6           0       -1.901096   -1.304236    0.651565
     39          6           0       -2.696432   -0.263660    0.365062
     40          6           0       -4.199625   -0.448974    0.308751
     41          6           0       -4.799157   -0.347588   -1.116825
     42          6           0       -6.297366   -0.476591   -1.114413
     43          6           0       -7.059541   -1.442915   -1.646203
     44          6           0       -8.567763   -1.383296   -1.508796
     45          6           0       -9.162168   -2.457398   -0.562721
     46          6           0      -10.663718   -2.398154   -0.506415
     47          6           0      -11.454857   -2.082080    0.528768
     48          6           0        2.247758   -3.182286    0.906654
     49          6           0       -2.205511    1.137539    0.093350
     50          6           0       -6.524768   -2.629111   -2.411125
     51          6           0      -10.956035   -1.736006    1.910654
     52          6           0      -12.960769   -2.066635    0.357953
     53          6           0      -13.588704   -0.650560    0.392865
     54          6           0      -15.088298   -0.688422    0.287613
     55          6           0      -15.874978   -0.199437   -0.681619
     56          6           0      -15.368197    0.514029   -1.911842
     57          6           0      -17.380015   -0.347127   -0.586787
     58          6           0      -18.137476    0.988544   -0.382471
     59          6           0      -19.628364    0.797452   -0.339596
     60          6           0      -20.479829    1.052713    0.663821
     61          6           0      -20.072365    1.607313    2.007673
     62          6           0      -21.961744    0.787417    0.492756
     63          1           0       17.376720    0.977234   -2.655866
     64          1           0       17.376100    2.578171   -1.919782
     65          1           0       15.170140    0.453281   -1.487780
     66          1           0       13.011305    1.033512   -1.730966
     67          1           0       12.628709    2.507987   -2.606089
     68          1           0       12.648295    3.783975   -0.431230
     69          1           0       13.005044    2.295066    0.423265
     70          1           0       10.447165    2.902099   -1.207062
     71          1           0        8.456613    2.234243   -0.431959
     72          1           0        8.336514    1.777663    1.260381
     73          1           0        8.733655   -0.624239    0.634195
     74          1           0        8.848382   -0.162026   -1.051481
     75          1           0        6.356031    0.165887    0.753690
     76          1           0        4.136384    0.292585   -1.860422
     77          1           0        4.307193    0.017443   -0.132909
     78          1           0       16.036553    4.058315   -2.251062
     79          1           0       14.545619    4.555609   -1.449308
     80          1           0       14.523275    4.136152   -3.153670
     81          1           0       12.006556    1.122687    1.736312
     82          1           0       10.784640   -0.134163    1.554787
     83          1           0       10.454674    1.261002    2.569642
     84          1           0        7.715715   -0.375227   -2.726762
     85          1           0        6.138269    0.090037   -3.372185
     86          1           0        6.456614   -1.586725   -2.956234
     87          1           0        4.472261   -2.446971   -0.539588
     88          1           0        4.306806   -2.182207   -2.264642
     89          1           0        2.011645   -1.254135   -1.985868
     90          1           0       -0.226717   -3.246118   -0.283860
     91          1           0       -0.049341   -1.846120   -1.330786
     92          1           0        0.037901   -0.350851    0.669800
     93          1           0       -0.122368   -1.738115    1.729500
     94          1           0       -2.389142   -2.261858    0.835257
     95          1           0       -4.682792    0.306286    0.943376
     96          1           0       -4.465244   -1.423948    0.727345
     97          1           0       -4.329604   -1.104907   -1.748470
     98          1           0       -4.532985    0.624778   -1.548719
     99          1           0       -6.815296    0.329207   -0.593441
    100          1           0       -9.027826   -1.499780   -2.499431
    101          1           0       -8.864242   -0.396604   -1.141505
    102          1           0       -8.715914   -2.337319    0.426955
    103          1           0       -8.865059   -3.451499   -0.918095
    104          1           0      -11.157028   -2.636077   -1.449276
    105          1           0        3.333306   -3.274567    0.917762
    106          1           0        1.824301   -4.193477    0.886673
    107          1           0        1.944561   -2.736419    1.859906
    108          1           0       -1.123328    1.233985    0.174590
    109          1           0       -2.660076    1.843657    0.798330
    110          1           0       -2.492266    1.470722   -0.909735
    111          1           0       -5.440328   -2.616245   -2.515300
    112          1           0       -6.959085   -2.660481   -3.417391
    113          1           0       -6.798445   -3.571132   -1.924208
    114          1           0       -9.870915   -1.782116    1.996929
    115          1           0      -11.382104   -2.422240    2.652142
    116          1           0      -11.267902   -0.727927    2.203823
    117          1           0      -13.422734   -2.671286    1.150125
    118          1           0      -13.227741   -2.540552   -0.590996
    119          1           0      -13.143151   -0.047867   -0.401699
    120          1           0      -13.318672   -0.162031    1.337121
    121          1           0      -15.582840   -1.197848    1.115133
    122          1           0      -14.282996    0.482519   -2.004611
    123          1           0      -15.669256    1.567374   -1.914994
    124          1           0      -15.795877    0.064149   -2.815241
    125          1           0      -17.631349   -1.019235    0.238752
    126          1           0      -17.756259   -0.822170   -1.503195
    127          1           0      -17.896898    1.666400   -1.210748
    128          1           0      -17.766164    1.470135    0.525030
    129          1           0      -20.053131    0.384353   -1.254986
    130          1           0      -18.991686    1.652462    2.139481
    131          1           0      -20.484102    0.990079    2.814394
    132          1           0      -20.465292    2.619261    2.156237
    133          1           0      -22.126280    0.237607   -0.439291
    134          6           0      -22.839144    2.064398    0.478773
    135          1           0      -22.314846    0.138827    1.305080
    136          6           0      -24.284022    1.758083    0.196439
    137          6           0      -25.350929    1.945495    0.984884
    138          6           0      -26.734449    1.561541    0.518327
    139          6           0      -25.306866    2.539537    2.370479
    140          1           0      -22.454051    2.730643   -0.304053
    141          1           0      -22.728433    2.601533    1.422702
    142          1           0      -24.465194    1.313536   -0.782303
    143          1           0      -26.720562    1.137717   -0.487799
    144          1           0      -27.402559    2.431198    0.513207
    145          1           0      -27.186354    0.824849    1.193352
    146          1           0      -24.300061    2.794289    2.700206
    147          1           0      -25.733894    1.841370    3.100003
    148          1           0      -25.917046    3.449372    2.417835
    149          8           0       19.725120   -0.994386    2.675435
    150          8           0       18.852325   -2.477837    0.323590
    151          1           0       18.472390    3.731571    0.065779
    152          1           0       17.911692    3.457572    1.712019
    153          1           0       16.763696    3.390406    0.352553
 ---------------------------------------------------------------------

 SCF Done:  E(UB3LYP) =  -2603.93480336     A.U. after   17 cycles

 Alpha virt. eigenvalues --    0.50759   0.50803   0.51077   0.51325   0.51403
 Alpha virt. eigenvalues --    0.51586   0.51656   0.51765   0.52014   0.52135
 Alpha virt. eigenvalues --    0.52175   0.52256   0.52585   0.52788   0.53001

  Beta  occ. eigenvalues --  -19.18066 -19.16077 -19.14080 -19.13490 -10.28784
  Beta  occ. eigenvalues --  -10.28325 -10.26792 -10.25237 -10.22820 -10.22092
  Beta  occ. eigenvalues --  -10.21399 -10.21011 -10.18388 -10.18167 -10.17735
  Beta  occ. eigenvalues --  -10.17607 -10.17550 -10.17548 -10.17548 -10.17547
  Beta  occ. eigenvalues --  -10.17547 -10.17543 -10.17520 -10.17389 -10.17027
  Beta  occ. eigenvalues --  -10.17018 -10.16969 -10.16846 -10.16831 -10.16830
  Beta  occ. eigenvalues --  -10.16830 -10.16828 -10.16827 -10.16825 -10.16805
  Beta  occ. eigenvalues --  -10.16792 -10.16783 -10.16783 -10.16782 -10.16781
  Beta  occ. eigenvalues --  -10.16769 -10.16768 -10.16746 -10.16526 -10.16204
  Beta  occ. eigenvalues --  -10.16200 -10.16184 -10.16166 -10.16166 -10.16165
  Beta  occ. eigenvalues --  -10.16165 -10.16165 -10.16164 -10.16155 -10.16136
  Beta  occ. eigenvalues --  -10.16130 -10.16129 -10.16128 -10.16125 -10.16123
  Beta  occ. eigenvalues --  -10.16122 -10.16116 -10.16047  -1.10546  -1.08227
  Beta  occ. eigenvalues --   -1.06844  -1.05620  -0.86628  -0.83353  -0.83269
  Beta  occ. eigenvalues --   -0.83107  -0.82874  -0.82576  -0.82220  -0.81816
  Beta  occ. eigenvalues --   -0.81379  -0.80954  -0.80619  -0.80456  -0.77935
  Beta  occ. eigenvalues --   -0.77477  -0.76849  -0.76148  -0.75420  -0.74719
  Beta  occ. eigenvalues --   -0.74503  -0.73914  -0.73226  -0.72642  -0.72244
  Beta  occ. eigenvalues --   -0.71991  -0.69251  -0.69251  -0.68960  -0.68924
  Beta  occ. eigenvalues --   -0.68860  -0.68759  -0.68603  -0.68367  -0.68013
  Beta  occ. eigenvalues --   -0.67525  -0.66989  -0.66826  -0.65659  -0.64589
  Beta  occ. eigenvalues --   -0.63661  -0.62657  -0.61661  -0.60755  -0.59970
  Beta  occ. eigenvalues --   -0.59945  -0.59299  -0.58898  -0.58584  -0.58389
  Beta  occ. eigenvalues --   -0.55784  -0.53501  -0.52607  -0.52523  -0.52388
  Beta  occ. eigenvalues --   -0.52294  -0.52145  -0.51930  -0.51717  -0.51645
  Beta  occ. eigenvalues --   -0.51469  -0.51315  -0.51210  -0.49772  -0.48168
  Beta  occ. eigenvalues --   -0.48092  -0.48044  -0.47981  -0.47903  -0.47854
  Beta  occ. eigenvalues --   -0.47705  -0.47576  -0.47345  -0.46933  -0.46706
  Beta  occ. eigenvalues --   -0.46629  -0.46369  -0.45515  -0.45073  -0.45053
  Beta  occ. eigenvalues --   -0.44806  -0.44593  -0.44452  -0.44245  -0.43915
  Beta  occ. eigenvalues --   -0.43791  -0.43577  -0.43520  -0.43314  -0.43151
  Beta  occ. eigenvalues --   -0.43136  -0.42671  -0.42416  -0.42234  -0.42116
  Beta  occ. eigenvalues --   -0.41809  -0.41646  -0.41537  -0.41384  -0.41304
  Beta  occ. eigenvalues --   -0.41204  -0.41027  -0.40960  -0.40869  -0.40551
  Beta  occ. eigenvalues --   -0.40399  -0.40377  -0.40365  -0.40132  -0.39855
  Beta  occ. eigenvalues --   -0.39519  -0.39279  -0.39107  -0.39048  -0.38509
  Beta  occ. eigenvalues --   -0.38203  -0.37528  -0.37473  -0.37451  -0.37417
  Beta  occ. eigenvalues --   -0.37350  -0.37337  -0.37301  -0.37233  -0.37210
  Beta  occ. eigenvalues --   -0.37117  -0.37106  -0.37007  -0.36952  -0.36809
  Beta  occ. eigenvalues --   -0.36728  -0.36578  -0.36472  -0.36251  -0.36095
  Beta  occ. eigenvalues --   -0.36039  -0.35952  -0.35749  -0.35659  -0.35454
  Beta  occ. eigenvalues --   -0.35181  -0.34628  -0.34273  -0.33884  -0.33868
  Beta  occ. eigenvalues --   -0.33703  -0.33585  -0.33457  -0.33289  -0.33100
  Beta  occ. eigenvalues --   -0.32933  -0.32892  -0.32820  -0.32501  -0.32084
  Beta  occ. eigenvalues --   -0.31832  -0.31591  -0.31194  -0.30958  -0.28983
  Beta  occ. eigenvalues --   -0.28635  -0.27612  -0.25469  -0.25353  -0.25074
  Beta  occ. eigenvalues --   -0.24749  -0.24538  -0.24294  -0.23911  -0.23491
  Beta  occ. eigenvalues --   -0.23132  -0.22814  -0.22506
  Beta virt. eigenvalues --   -0.12622  -0.01518  -0.01131  -0.01081  -0.00924
  Beta virt. eigenvalues --   -0.00742  -0.00486  -0.00257   0.00001   0.00034
  Beta virt. eigenvalues --    0.00118   0.00141   0.00163   0.00294   0.00326

 Mulliken charges and spin densities:
               1          2
     1  C   -0.512417   0.000000
     2  C    0.703257   0.000000
     3  C    1.014376  -0.000000
     4  C   -0.856469  -0.000000
     5  C   -0.100224  -0.000000
     6  C    0.049661   0.000000
     7  O   -0.297093   0.000000
     8  O   -0.254401   0.000000
     9  C   -0.290910  -0.000000
    10  C   -0.298884   0.000000
    11  C   -0.628855  -0.000000
    12  H    0.173045  -0.000000
    13  H    0.141853   0.000000
    14  H    0.170483  -0.000000
    15  H    0.194420   0.000000
    16  H    0.184779   0.000000
    17  H    0.196595  -0.000000
    18  C    0.130998   0.000000
    19  C   -0.805829   0.000000
    20  C    0.710335   0.000000
    21  C   -0.516875   0.000000
    22  C   -0.153613  -0.000000
    23  C   -0.386511  -0.000000
    24  C    0.603748   0.000000
    25  C   -0.603981  -0.000000
    26  C   -0.306185   0.000000
    27  C   -0.308301  -0.000000
    28  C    0.582824   0.000000
    29  C   -0.401141  -0.000000
    30  C   -0.730677   0.000000
    31  C   -0.747790   0.000000
    32  C   -0.708426   0.000000
    33  C   -0.354632   0.000000
    34  C   -0.314591  -0.000000
    35  C    0.506803  -0.000000
    36  C   -0.422381   0.000000
    37  C   -0.272726  -0.000000
    38  C   -0.279133   0.000000
    39  C    0.467827   0.000000
    40  C   -0.431440  -0.000000
    41  C   -0.262239   0.000000
    42  C   -0.356542  -0.000000
    43  C    0.516992   0.000000
    44  C   -0.422200  -0.000000
    45  C   -0.207610  -0.000000
    46  C   -0.313222   0.000000
    47  C    0.553432  -0.000000
    48  C   -0.701111  -0.000000
    49  C   -0.724897   0.000000
    50  C   -0.714044  -0.000000
    51  C   -0.725063  -0.000000
    52  C   -0.585268   0.000000
    53  C   -0.298696   0.000000
    54  C   -0.324779   0.000000
    55  C    0.662658  -0.000000
    56  C   -0.735659   0.000000
    57  C   -0.492351   0.000000
    58  C   -0.374912  -0.000000
    59  C   -0.134250  -0.000000
    60  C    0.678894   0.000000
    61  C   -0.748859  -0.000000
    62  C   -0.754007  -0.000000
    63  H    0.220774   0.000000
    64  H    0.202482  -0.000000
    65  H    0.227369   0.000000
    66  H    0.160688   0.000000
    67  H    0.147377   0.000000
    68  H    0.136560   0.000000
    69  H    0.115109  -0.000000
    70  H    0.197158  -0.000000
    71  H    0.162724   0.000000
    72  H    0.140988  -0.000000
    73  H    0.134169   0.000000
    74  H    0.143669   0.000000
    75  H    0.204854  -0.000000
    76  H    0.154092  -0.000000
    77  H    0.163233  -0.000000
    78  H    0.116224  -0.000000
    79  H    0.165652  -0.000000
    80  H    0.171373   0.000000
    81  H    0.136219   0.000000
    82  H    0.170779  -0.000000
    83  H    0.162522  -0.000000
    84  H    0.130887   0.000000
    85  H    0.162577  -0.000000
    86  H    0.172885  -0.000000
    87  H    0.138733   0.000000
    88  H    0.132709  -0.000000
    89  H    0.184503   0.000000
    90  H    0.138499  -0.000000
    91  H    0.177203   0.000000
    92  H    0.143567  -0.000000
    93  H    0.128052   0.000000
    94  H    0.192866   0.000000
    95  H    0.140564   0.000000
    96  H    0.170737  -0.000000
    97  H    0.137988  -0.000000
    98  H    0.128735   0.000000
    99  H    0.188356  -0.000000
   100  H    0.136471  -0.000000
   101  H    0.174625   0.000000
   102  H    0.142049  -0.000000
   103  H    0.126507   0.000000
   104  H    0.200803   0.000000
   105  H    0.127224  -0.000000
   106  H    0.161932   0.000000
   107  H    0.167931  -0.000000
   108  H    0.128921   0.000000
   109  H    0.162482  -0.000000
   110  H    0.168436  -0.000000
   111  H    0.130953  -0.000000
   112  H    0.162469  -0.000000
   113  H    0.168185   0.000000
   114  H    0.131254   0.000000
   115  H    0.161340  -0.000000
   116  H    0.167912  -0.000000
   117  H    0.142537   0.000000
   118  H    0.163259  -0.000000
   119  H    0.145193  -0.000000
   120  H    0.134841  -0.000000
   121  H    0.205380   0.000000
   122  H    0.128846  -0.000000
   123  H    0.173634   0.000000
   124  H    0.163192  -0.000000
   125  H    0.151459  -0.000000
   126  H    0.156815  -0.000000
   127  H    0.143391   0.000000
   128  H    0.138844   0.000000
   129  H    0.201917  -0.000000
   130  H    0.121669   0.000000
   131  H    0.158056  -0.000000
   132  H    0.173912  -0.000000
   133  H    0.146469  -0.000000
   134  C   -0.312513   0.000000
   135  H    0.177609   0.000000
   136  C   -0.030197   0.000000
   137  C    0.404059  -0.000000
   138  C   -0.626148  -0.000000
   139  C   -0.675528   0.000000
   140  H    0.171383  -0.000000
   141  H    0.115145   0.000000
   142  H    0.165186   0.000000
   143  H    0.156286  -0.000000
   144  H    0.144872   0.000000
   145  H    0.150677   0.000000
   146  H    0.135624  -0.000000
   147  H    0.150716  -0.000000
   148  H    0.146950  -0.000000
   149  O   -0.215198  -0.000000
   150  O   -0.196869  -0.000000
   151  H    0.220710   0.000000
   152  H    0.182805  -0.000000
   153  H    0.178853  -0.000000
 Sum of Mulliken charges =  -0.00000   0.00000

 Dipole moment (field-independent basis, Debye):
    X=             -1.6081    Y=              0.6125    Z=              2.6826  Tot=              3.1871
 Quadrupole moment (field-independent basis, Debye-Ang):
   XX=           -434.8020   YY=           -388.3346   ZZ=           -389.0298
   XY=            -12.6500   XZ=             21.9853   YZ=            -18.8666

 Normal termination of Gaussian 16 at Sun Jan 28 06:10:50 2024.
