 Q-Chem 5.4, Q-Chem, Inc., Pleasanton, CA (2021)
 Q-Chem 5.4.0 for Intel X86 EM64T Linux

User input:
--------------------------------------------------------------
$molecule
0 1
C                 -3.5547330000      5.6547810000      3.2995220000
C                 -2.5333270000      6.2269590000      4.0508360000
C                 -2.0512220000      5.5773810000      5.1900960000
C                 -4.0999390000      4.4275350000      3.6848010000
C                 -3.6155330000      3.7756930000      4.8268730000
C                 -2.5899420000      4.3549470000      5.5780200000
C                 -5.1967430000      3.8188760000      2.8802260000
C                 -5.7670420000      2.5074370000      3.3224840000
C                 -5.2791660000      1.8666850000      4.4131560000
C                 -4.1895380000      2.4649780000      5.2413630000
O                 -5.6215350000      4.3763020000      1.8794980000
O                 -3.7813520000      1.8881720000      6.2389790000
H                 -2.1110130000      7.1793960000      3.7511640000
H                 -1.2552630000      6.0263590000      5.7733370000
C                 -6.8842110000      1.9526240000      2.4816030000
H                 -3.9434880000      6.1412650000      2.4135450000
H                 -2.2313330000      3.8339570000      6.4571010000
H                 -6.5363910000      1.0997290000      1.8880290000
H                 -7.2476430000      2.7104810000      1.7899310000
H                 -7.7086330000      1.6054280000      3.1072470000
C                 -5.8132310000      0.5330200000      4.8920540000
C                 -6.9665350000      0.7015200000      5.8572060000
C                 -8.1583210000      0.0886880000      5.8407660000
C                 -9.1690340000      0.3777370000      6.9323060000
C                 -9.4245930000     -0.8130530000      7.8903040000
C                -10.4715120000     -0.4966640000      8.9224790000
C                -10.3365990000     -0.3945290000     10.2524280000
C                 -8.5923820000     -0.9171260000      4.8027830000
C                -11.5351130000     -0.0473270000     11.1126770000
C                -11.4718320000      1.3636710000     11.7502890000
C                -12.6521050000      1.6389270000     12.6404540000
C                -13.6188430000      2.5566520000     12.4966790000
C                 -9.0442170000     -0.6156470000     10.9998660000
C                -13.6887370000      3.5539340000     11.3658300000
C                -14.7346690000      2.6512780000     13.5179410000
C                -16.1211910000      2.2058610000     12.9881650000
C                -17.2036980000      2.3725960000     14.0184910000
C                -17.9487720000      1.4319170000     14.6163180000
C                -17.8513950000     -0.0464420000     14.3279570000
C                -18.9828190000      1.8262050000     15.6519450000
C                -18.6204820000      1.4107590000     17.1003940000
C                -19.7011410000      1.7686600000     18.0828900000
C                -19.6582780000      2.6416310000     19.0995300000
C                -18.4418070000      3.4496230000     19.4811040000
C                -20.8829850000      2.8616520000     19.9649040000
C                -21.5512090000      4.2476290000     19.7797920000
C                -22.7190430000      4.4448000000     20.7063310000
C                -24.0164960000      4.5970650000     20.4049210000
C                -24.5696340000      4.6261760000     19.0008480000
C                -25.0386840000      4.7686830000     21.5107090000
C                -25.9916260000      3.5599300000     21.6889140000
C                -27.0253210000      3.8017840000     22.7538050000
C                -27.1966100000      3.1582230000     23.9163220000
C                -26.3515020000      2.0051870000     24.3968350000
C                -28.3000500000      3.5575120000     24.8661670000
H                 -4.9998510000      0.0162740000      5.4101580000
H                 -6.0985190000     -0.0778980000      4.0356020000
H                 -6.7676260000      1.3967250000      6.6698980000
H                -10.1242730000      0.6659260000      6.4729180000
H                 -8.8354020000      1.2345720000      7.5241240000
H                 -8.4772170000     -1.1012460000      8.3512280000
H                 -9.7610790000     -1.6774710000      7.3050570000
H                -11.4659850000     -0.3191020000      8.5121520000
H                 -7.9034160000     -0.9905110000      3.9613550000
H                 -9.5816040000     -0.6587560000      4.4083890000
H                 -8.6815140000     -1.9184220000      5.2376900000
H                -11.6305020000     -0.7884280000     11.9178170000
H                -12.4485350000     -0.1169280000     10.5150240000
H                -11.3859500000      2.1048300000     10.9526080000
H                -10.5564870000      1.4449670000     12.3489840000
H                -12.7180170000      0.9854200000     13.5108230000
H                 -8.2159180000     -0.8938470000     10.3491360000
H                 -9.1673330000     -1.4094770000     11.7460490000
H                 -8.7447580000      0.2837060000     11.5482300000
H                -12.8477890000      3.4781260000     10.6773070000
H                -13.7087420000      4.5765610000     11.7607980000
H                -14.6063730000      3.4276520000     10.7815050000
H                -14.8151130000      3.6878800000     13.8724820000
H                -14.4854350000      2.0416570000     14.3912140000
H                -16.0484350000      1.1723160000     12.6424800000
H                -16.3793670000      2.8093890000     12.1095010000
H                -17.3840660000      3.4063750000     14.3147470000
H                -17.1172880000     -0.2840370000     13.5587480000
H                -18.8222620000     -0.4344450000     13.9976190000
H                -17.5808620000     -0.6091750000     15.2276980000
H                -19.9490670000      1.3731520000     15.3917460000
H                -19.1304040000      2.9097490000     15.6292930000
H                -17.6650870000      1.8681780000     17.3667610000
H                -18.4643790000      0.3256300000     17.1330400000
H                -20.6436030000      1.2441450000     17.9228020000
H                -17.5756860000      3.2391390000     18.8545720000
H                -18.1614400000      3.2473540000     20.5216400000
H                -18.6430120000      4.5241720000     19.4159830000
H                -20.6056780000      2.7481700000     21.0217300000
H                -21.6263520000      2.0877780000     19.7529630000
H                -21.8426430000      4.3586220000     18.7330200000
H                -20.8106780000      5.0314840000     19.9801800000
H                -22.4546370000      4.4514620000     21.7641710000
H                -23.7990910000      4.5318900000     18.2363790000
H                -25.1070310000      5.5651940000     18.8228260000
H                -25.2924270000      3.8187730000     18.8424710000
H                -25.6451670000      5.6620770000     21.3088750000
H                -24.5259920000      4.9483830000     22.4600170000
H                -25.3945080000      2.6703450000     21.9017120000
H                -26.5065230000      3.3666370000     20.7399190000
H                -27.7095620000      4.6224930000     22.5375100000
H                -25.5467490000      1.7435790000     23.7105200000
H                -26.9698920000      1.1122650000     24.5475670000
H                -25.9026280000      2.2392400000     25.3693250000
H                -28.8861670000      4.3936240000     24.4794310000
H                -27.8924650000      3.8480540000     25.8419030000
H                -28.9822770000      2.7188290000     25.0503320000
$end
$rem
MAX_SCF_CYCLES=200
BASIS  =  6-311++G(d,p)
GUI  =  2
JOB_TYPE  =  SP
METHOD  =  B3LYP
SCF_CONVERGENCE  =  6
SCF_ALGORITHM = RCA_DIIS
THRESH = 14
SOLVENT_METHOD = PCM
$end
$pcm
theory = CPCM
$end
$solvent
dielectric 37.219
opticaldielectric 1.43
$end

--------------------------------------------------------------

             Standard Nuclear Orientation (Angstroms)
    I     Atom           X                Y                Z
 ----------------------------------------------------------------
    1      C      -3.5547330000     5.6547810000     3.2995220000
    2      C      -2.5333270000     6.2269590000     4.0508360000
    3      C      -2.0512220000     5.5773810000     5.1900960000
    4      C      -4.0999390000     4.4275350000     3.6848010000
    5      C      -3.6155330000     3.7756930000     4.8268730000
    6      C      -2.5899420000     4.3549470000     5.5780200000
    7      C      -5.1967430000     3.8188760000     2.8802260000
    8      C      -5.7670420000     2.5074370000     3.3224840000
    9      C      -5.2791660000     1.8666850000     4.4131560000
   10      C      -4.1895380000     2.4649780000     5.2413630000
   11      O      -5.6215350000     4.3763020000     1.8794980000
   12      O      -3.7813520000     1.8881720000     6.2389790000
   13      H      -2.1110130000     7.1793960000     3.7511640000
   14      H      -1.2552630000     6.0263590000     5.7733370000
   15      C      -6.8842110000     1.9526240000     2.4816030000
   16      H      -3.9434880000     6.1412650000     2.4135450000
   17      H      -2.2313330000     3.8339570000     6.4571010000
   18      H      -6.5363910000     1.0997290000     1.8880290000
   19      H      -7.2476430000     2.7104810000     1.7899310000
   20      H      -7.7086330000     1.6054280000     3.1072470000
   21      C      -5.8132310000     0.5330200000     4.8920540000
   22      C      -6.9665350000     0.7015200000     5.8572060000
   23      C      -8.1583210000     0.0886880000     5.8407660000
   24      C      -9.1690340000     0.3777370000     6.9323060000
   25      C      -9.4245930000    -0.8130530000     7.8903040000
   26      C     -10.4715120000    -0.4966640000     8.9224790000
   27      C     -10.3365990000    -0.3945290000    10.2524280000
   28      C      -8.5923820000    -0.9171260000     4.8027830000
   29      C     -11.5351130000    -0.0473270000    11.1126770000
   30      C     -11.4718320000     1.3636710000    11.7502890000
   31      C     -12.6521050000     1.6389270000    12.6404540000
   32      C     -13.6188430000     2.5566520000    12.4966790000
   33      C      -9.0442170000    -0.6156470000    10.9998660000
   34      C     -13.6887370000     3.5539340000    11.3658300000
   35      C     -14.7346690000     2.6512780000    13.5179410000
   36      C     -16.1211910000     2.2058610000    12.9881650000
   37      C     -17.2036980000     2.3725960000    14.0184910000
   38      C     -17.9487720000     1.4319170000    14.6163180000
   39      C     -17.8513950000    -0.0464420000    14.3279570000
   40      C     -18.9828190000     1.8262050000    15.6519450000
   41      C     -18.6204820000     1.4107590000    17.1003940000
   42      C     -19.7011410000     1.7686600000    18.0828900000
   43      C     -19.6582780000     2.6416310000    19.0995300000
   44      C     -18.4418070000     3.4496230000    19.4811040000
   45      C     -20.8829850000     2.8616520000    19.9649040000
   46      C     -21.5512090000     4.2476290000    19.7797920000
   47      C     -22.7190430000     4.4448000000    20.7063310000
   48      C     -24.0164960000     4.5970650000    20.4049210000
   49      C     -24.5696340000     4.6261760000    19.0008480000
   50      C     -25.0386840000     4.7686830000    21.5107090000
   51      C     -25.9916260000     3.5599300000    21.6889140000
   52      C     -27.0253210000     3.8017840000    22.7538050000
   53      C     -27.1966100000     3.1582230000    23.9163220000
   54      C     -26.3515020000     2.0051870000    24.3968350000
   55      C     -28.3000500000     3.5575120000    24.8661670000
   56      H      -4.9998510000     0.0162740000     5.4101580000
   57      H      -6.0985190000    -0.0778980000     4.0356020000
   58      H      -6.7676260000     1.3967250000     6.6698980000
   59      H     -10.1242730000     0.6659260000     6.4729180000
   60      H      -8.8354020000     1.2345720000     7.5241240000
   61      H      -8.4772170000    -1.1012460000     8.3512280000
   62      H      -9.7610790000    -1.6774710000     7.3050570000
   63      H     -11.4659850000    -0.3191020000     8.5121520000
   64      H      -7.9034160000    -0.9905110000     3.9613550000
   65      H      -9.5816040000    -0.6587560000     4.4083890000
   66      H      -8.6815140000    -1.9184220000     5.2376900000
   67      H     -11.6305020000    -0.7884280000    11.9178170000
   68      H     -12.4485350000    -0.1169280000    10.5150240000
   69      H     -11.3859500000     2.1048300000    10.9526080000
   70      H     -10.5564870000     1.4449670000    12.3489840000
   71      H     -12.7180170000     0.9854200000    13.5108230000
   72      H      -8.2159180000    -0.8938470000    10.3491360000
   73      H      -9.1673330000    -1.4094770000    11.7460490000
   74      H      -8.7447580000     0.2837060000    11.5482300000
   75      H     -12.8477890000     3.4781260000    10.6773070000
   76      H     -13.7087420000     4.5765610000    11.7607980000
   77      H     -14.6063730000     3.4276520000    10.7815050000
   78      H     -14.8151130000     3.6878800000    13.8724820000
   79      H     -14.4854350000     2.0416570000    14.3912140000
   80      H     -16.0484350000     1.1723160000    12.6424800000
   81      H     -16.3793670000     2.8093890000    12.1095010000
   82      H     -17.3840660000     3.4063750000    14.3147470000
   83      H     -17.1172880000    -0.2840370000    13.5587480000
   84      H     -18.8222620000    -0.4344450000    13.9976190000
   85      H     -17.5808620000    -0.6091750000    15.2276980000
   86      H     -19.9490670000     1.3731520000    15.3917460000
   87      H     -19.1304040000     2.9097490000    15.6292930000
   88      H     -17.6650870000     1.8681780000    17.3667610000
   89      H     -18.4643790000     0.3256300000    17.1330400000
   90      H     -20.6436030000     1.2441450000    17.9228020000
   91      H     -17.5756860000     3.2391390000    18.8545720000
   92      H     -18.1614400000     3.2473540000    20.5216400000
   93      H     -18.6430120000     4.5241720000    19.4159830000
   94      H     -20.6056780000     2.7481700000    21.0217300000
   95      H     -21.6263520000     2.0877780000    19.7529630000
   96      H     -21.8426430000     4.3586220000    18.7330200000
   97      H     -20.8106780000     5.0314840000    19.9801800000
   98      H     -22.4546370000     4.4514620000    21.7641710000
   99      H     -23.7990910000     4.5318900000    18.2363790000
  100      H     -25.1070310000     5.5651940000    18.8228260000
  101      H     -25.2924270000     3.8187730000    18.8424710000
  102      H     -25.6451670000     5.6620770000    21.3088750000
  103      H     -24.5259920000     4.9483830000    22.4600170000
  104      H     -25.3945080000     2.6703450000    21.9017120000
  105      H     -26.5065230000     3.3666370000    20.7399190000
  106      H     -27.7095620000     4.6224930000    22.5375100000
  107      H     -25.5467490000     1.7435790000    23.7105200000
  108      H     -26.9698920000     1.1122650000    24.5475670000
  109      H     -25.9026280000     2.2392400000    25.3693250000
  110      H     -28.8861670000     4.3936240000    24.4794310000
  111      H     -27.8924650000     3.8480540000    25.8419030000
  112      H     -28.9822770000     2.7188290000    25.0503320000
 ----------------------------------------------------------------

   88   -1942.3563224818      7.59E-07 Convergence criterion met
 Total energy in the final basis set = -1942.35632248

                    Orbital Energies (a.u.)
 --------------------------------------------------------------

 Alpha MOs
 -- Occupied --
-19.1338 -19.1332 -10.2816 -10.2810 -10.2125 -10.2098 -10.2054 -10.2048
-10.1957 -10.1955 -10.1951 -10.1948 -10.1789 -10.1780 -10.1741 -10.1727
-10.1724 -10.1724 -10.1724 -10.1723 -10.1688 -10.1666 -10.1660 -10.1652
-10.1643 -10.1642 -10.1642 -10.1642 -10.1641 -10.1640 -10.1639 -10.1639
-10.1639 -10.1637 -10.1601 -10.1582 -10.1579 -10.1579 -10.1579 -10.1578
-10.1578 -10.1575 -10.1574 -10.1574 -10.1574 -10.1573 -10.1573 -10.1572
 -1.0679  -1.0659  -0.8887  -0.8531  -0.8296  -0.8276  -0.8242  -0.8195
 -0.8138  -0.8075  -0.8022  -0.7873  -0.7761  -0.7739  -0.7665  -0.7574
 -0.7474  -0.7372  -0.7275  -0.7200  -0.7078  -0.6888  -0.6862  -0.6855
 -0.6842  -0.6820  -0.6795  -0.6757  -0.6685  -0.6599  -0.6405  -0.6311
 -0.6235  -0.6136  -0.6050  -0.5957  -0.5874  -0.5828  -0.5811  -0.5502
 -0.5224  -0.5200  -0.5189  -0.5183  -0.5167  -0.5138  -0.5110  -0.5092
 -0.4995  -0.4800  -0.4767  -0.4761  -0.4751  -0.4744  -0.4698  -0.4635
 -0.4616  -0.4605  -0.4586  -0.4543  -0.4494  -0.4447  -0.4429  -0.4401
 -0.4357  -0.4339  -0.4307  -0.4281  -0.4276  -0.4243  -0.4197  -0.4166
 -0.4142  -0.4135  -0.4128  -0.4099  -0.4083  -0.4073  -0.4061  -0.4018
 -0.4005  -0.4001  -0.3973  -0.3928  -0.3909  -0.3887  -0.3831  -0.3812
 -0.3768  -0.3725  -0.3708  -0.3703  -0.3698  -0.3695  -0.3682  -0.3674
 -0.3669  -0.3661  -0.3646  -0.3631  -0.3623  -0.3591  -0.3586  -0.3551
 -0.3541  -0.3521  -0.3463  -0.3383  -0.3346  -0.3325  -0.3320  -0.3289
 -0.3258  -0.3251  -0.3243  -0.3181  -0.3113  -0.3068  -0.2904  -0.2897
 -0.2772  -0.2759  -0.2703  -0.2509  -0.2486  -0.2446  -0.2392  -0.2330
 -0.2270  -0.2224

          Ground-State Mulliken Net Atomic Charges

     Atom                 Charge (a.u.)
  ----------------------------------------
      1 C                     0.181818
      2 C                    -0.485131
      3 C                    -0.421733
      4 C                    -0.105759
      5 C                     0.247982
      6 C                     0.088444
      7 C                    -0.830358
      8 C                     0.776941
      9 C                     1.087852
     10 C                    -0.919399
     11 O                    -0.289637
     12 O                    -0.270715
     13 H                     0.218799
     14 H                     0.222902
     15 C                    -0.508675
     16 H                     0.201751
     17 H                     0.199261
     18 H                     0.223582
     19 H                     0.188262
     20 H                     0.185977
     21 C                    -0.229070
     22 C                    -1.121921
     23 C                     1.318850
     24 C                    -0.742059
     25 C                    -0.339963
     26 C                    -0.407564
     27 C                     0.640234
     28 C                    -0.744640
     29 C                    -0.515737
     30 C                    -0.283946
     31 C                    -0.306911
     32 C                     0.489657
     33 C                    -0.725876
     34 C                    -0.753630
     35 C                    -0.437125
     36 C                    -0.296243
     37 C                    -0.318796
     38 C                     0.507875
     39 C                    -0.738474
     40 C                    -0.455459
     41 C                    -0.268763
     42 C                    -0.401833
     43 C                     0.528402
     44 C                    -0.744099
     45 C                    -0.407776
     46 C                    -0.216619
     47 C                    -0.211252
     48 C                     0.457585
     49 C                    -0.778840
     50 C                    -0.591871
     51 C                    -0.277469
     52 C                     0.024077
     53 C                     0.290253
     54 C                    -0.712780
     55 C                    -0.643377
     56 H                     0.237953
     57 H                     0.211655
     58 H                     0.233626
     59 H                     0.167039
     60 H                     0.180706
     61 H                     0.155672
     62 H                     0.146437
     63 H                     0.194958
     64 H                     0.123389
     65 H                     0.184153
     66 H                     0.184471
     67 H                     0.143580
     68 H                     0.185471
     69 H                     0.157032
     70 H                     0.136549
     71 H                     0.204420
     72 H                     0.134227
     73 H                     0.167584
     74 H                     0.174981
     75 H                     0.137729
     76 H                     0.168337
     77 H                     0.175361
     78 H                     0.145937
     79 H                     0.180279
     80 H                     0.149433
     81 H                     0.136949
     82 H                     0.203042
     83 H                     0.138559
     84 H                     0.167949
     85 H                     0.174985
     86 H                     0.146724
     87 H                     0.177006
     88 H                     0.145121
     89 H                     0.137827
     90 H                     0.198442
     91 H                     0.139294
     92 H                     0.168531
     93 H                     0.174793
     94 H                     0.140810
     95 H                     0.184445
     96 H                     0.153654
     97 H                     0.133275
     98 H                     0.217142
     99 H                     0.136157
    100 H                     0.169405
    101 H                     0.177079
    102 H                     0.143573
    103 H                     0.170503
    104 H                     0.146143
    105 H                     0.134326
    106 H                     0.204823
    107 H                     0.148157
    108 H                     0.151843
    109 H                     0.154243
    110 H                     0.157337
    111 H                     0.157065
    112 H                     0.152819
  ----------------------------------------
  Sum of atomic charges =     0.000000

                    Cartesian Multipole Moments
 -----------------------------------------------------------------
    Charge (ESU x 10^10)
                 0.0000
    Dipole Moment (Debye)
         X       0.1438      Y      -0.0994      Z       0.1921
       Tot       0.2598
    Quadrupole Moments (Debye-Ang)
        XX    -287.5222     XY      20.6215     YY    -288.6273
        XZ      -6.2136     YZ       4.7525     ZZ    -299.2554

 Total job time:  16471.82s(wall), 94458.61s(cpu)
        *  Thank you very much for using Q-Chem.  Have a nice day.  *
