 Gaussian 16, Revision A.03,
 Gaussian 16:  ES64L-G16RevA.03 25-Dec-2016

 ----------------------------------------------------------------
 #P UB3LYP/6-311++G(d,p) SCRF=(PCM,Solvent=n,n-DiMethylFormamide)
 ----------------------------------------------------------------

 -------
 Reduced
 -------
 Symbolic Z-matrix:
 Charge = -2 Multiplicity = 1

                         Standard orientation:
 ---------------------------------------------------------------------
 Center     Atomic      Atomic             Coordinates (Angstroms)
 Number     Number       Type             X           Y           Z
 ---------------------------------------------------------------------
      1          6           0       -6.429758    1.881271   -1.449817
      2          8           0       -5.196204    1.275081   -1.183193
      3          6           0       -5.174319    0.104018   -0.453207
      4          6           0       -6.342212   -0.496296   -0.028882
      5          6           0       -6.307819   -1.710023    0.708358
      6          6           0       -5.095037   -2.285732    0.996142
      7          6           0       -3.876128   -1.704866    0.579946
      8          6           0       -2.649499   -2.417641    0.943756
      9          8           0       -2.709128   -3.451350    1.666283
     10          6           0       -1.412327   -1.852702    0.416005
     11          6           0       -0.166088   -2.552149    0.511424
     12          8           0       -0.185710   -3.851826    0.994228
     13          6           0        1.024731   -2.014451    0.057956
     14          6           0        2.253451   -2.908445    0.009258
     15          6           0        3.591117   -2.192123   -0.271603
     16          8           0        4.123459   -1.599545    0.917272
     17          6           0        3.372167   -1.137607   -1.377736
     18          6           0        2.341540   -0.094981   -0.953416
     19          8           0        3.062338    0.710633    0.100414
     20          6           0        2.442210    1.933157    0.325466
     21          6           0        2.524881    2.399629    1.767133
     22          6           0        2.072645    3.879644    1.850082
     23          7           0        1.315885    4.109954    3.089252
     24          6           0        1.313377    4.315281    0.564043
     25          8           0        0.010323    3.762380    0.486704
     26          6           0        2.237640    4.099559   -0.664848
     27          6           0        1.500052    4.095855   -2.002723
     28          8           0        3.058327    2.926645   -0.529384
     29          6           0        1.044632   -0.683483   -0.482134
     30          6           0       -0.142288    0.057008   -0.614158
     31          8           0       -0.123318    1.311404   -1.057020
     32          6           0       -1.417478   -0.566360   -0.245183
     33          6           0       -2.637412    0.103261   -0.539691
     34          8           0       -2.618937    1.294986   -1.220857
     35          6           0       -3.873891   -0.465570   -0.162880
     36          6           0        4.636071   -3.204957   -0.769496
     37          6           0        5.993485   -3.203150   -0.093829
     38          8           0        4.395301   -3.966169   -1.689772
     39          1           0       -6.201329    2.790181   -2.011258
     40          1           0       -6.968255    2.153842   -0.529295
     41          1           0       -7.089508    1.241858   -2.057099
     42          1           0       -7.301336   -0.049290   -0.258839
     43          1           0       -7.239426   -2.167641    1.031221
     44          1           0       -5.014076   -3.210380    1.555921
     45          1           0        0.723152   -4.161724    1.021638
     46          1           0        2.130560   -3.675790   -0.767768
     47          1           0        2.405846   -3.440059    0.961978
     48          1           0        3.772144   -0.692331    0.971218
     49          1           0        3.013905   -1.652562   -2.272477
     50          1           0        4.317428   -0.639681   -1.618745
     51          1           0        2.155052    0.604839   -1.770029
     52          1           0        1.406468    1.833015    0.021397
     53          1           0        1.869022    1.770458    2.375160
     54          1           0        3.544050    2.285257    2.150006
     55          1           0        2.967866    4.512675    1.897951
     56          1           0        0.441643    3.592101    3.016027
     57          1           0        1.044343    5.089779    3.140059
     58          1           0        1.148482    5.400122    0.642350
     59          1           0       -0.037507    2.910392   -0.004856
     60          1           0        2.949298    4.937041   -0.652968
     61          1           0        0.844885    3.226126   -2.081396
     62          1           0        2.229541    4.058421   -2.817388
     63          1           0        0.895786    5.003363   -2.112558
     64          1           0       -1.648128    1.514135   -1.299497
     65          1           0        5.881931   -3.424913    0.970600
     66          1           0        6.634766   -3.940074   -0.579445
     67          1           0        6.438147   -2.205637   -0.143859
 ---------------------------------------------------------------------

 SCF Done:  E(UB3LYP) =  -1854.09860940     A.U. after   16 cycles

 The electronic state is 1-A.
 Alpha  occ. eigenvalues --  -19.13854 -19.13044 -19.12664 -19.12367 -19.11568
 Alpha  occ. eigenvalues --  -19.11404 -19.11034 -19.09094 -19.05316 -19.02773
 Alpha  occ. eigenvalues --  -14.29300 -10.26760 -10.24808 -10.23863 -10.22147
 Alpha  occ. eigenvalues --  -10.22053 -10.21885 -10.21657 -10.21075 -10.20219
 Alpha  occ. eigenvalues --  -10.20163 -10.19796 -10.19377 -10.19310 -10.17463
 Alpha  occ. eigenvalues --  -10.17432 -10.16796 -10.16134 -10.16043 -10.15570
 Alpha  occ. eigenvalues --  -10.15474 -10.15261 -10.15214 -10.14958 -10.14839
 Alpha  occ. eigenvalues --  -10.14409 -10.14403 -10.14354  -1.06122  -1.05687
 Alpha  occ. eigenvalues --   -1.05662  -1.03742  -1.02468  -1.01521  -1.01249
 Alpha  occ. eigenvalues --   -0.99726  -0.95721  -0.95596  -0.88560  -0.83833
 Alpha  occ. eigenvalues --   -0.83117  -0.80140  -0.77308  -0.76471  -0.76151
 Alpha  occ. eigenvalues --   -0.74769  -0.74312  -0.73862  -0.72082  -0.70063
 Alpha  occ. eigenvalues --   -0.69073  -0.68220  -0.65480  -0.64963  -0.62707
 Alpha  occ. eigenvalues --   -0.62506  -0.60376  -0.59386  -0.58147  -0.56601
 Alpha  occ. eigenvalues --   -0.55747  -0.55587  -0.54533  -0.52971  -0.52797
 Alpha  occ. eigenvalues --   -0.51826  -0.51255  -0.49970  -0.48911  -0.48665
 Alpha  occ. eigenvalues --   -0.48241  -0.47740  -0.47022  -0.45945  -0.45928
 Alpha  occ. eigenvalues --   -0.45892  -0.45673  -0.45033  -0.44388  -0.43925
 Alpha  occ. eigenvalues --   -0.43748  -0.43004  -0.42765  -0.42356  -0.42052
 Alpha  occ. eigenvalues --   -0.41573  -0.41148  -0.40746  -0.40394  -0.39978
 Alpha  occ. eigenvalues --   -0.39863  -0.39215  -0.38976  -0.38178  -0.37794
 Alpha  occ. eigenvalues --   -0.37390  -0.37210  -0.37051  -0.36884  -0.36643
 Alpha  occ. eigenvalues --   -0.36098  -0.35848  -0.35690  -0.35524  -0.34987
 Alpha  occ. eigenvalues --   -0.34648  -0.34373  -0.33892  -0.33737  -0.33122
 Alpha  occ. eigenvalues --   -0.32785  -0.32725  -0.32055  -0.30303  -0.29964
 Alpha  occ. eigenvalues --   -0.29935  -0.28404  -0.28249  -0.27573  -0.27134
 Alpha  occ. eigenvalues --   -0.25625  -0.25588  -0.24497  -0.24019  -0.22693
 Alpha  occ. eigenvalues --   -0.22170  -0.21359  -0.19856  -0.17931  -0.11967
 Alpha virt. eigenvalues --   -0.03354  -0.02046  -0.00763  -0.00603  -0.00116
 Alpha virt. eigenvalues --    0.00030   0.00871   0.01062   0.01318   0.01826
 Alpha virt. eigenvalues --    0.02066   0.02320   0.02845   0.03167   0.03261

  Beta  occ. eigenvalues --  -19.13854 -19.13044 -19.12664 -19.12367 -19.11568
  Beta  occ. eigenvalues --  -19.11404 -19.11034 -19.09094 -19.05316 -19.02773
  Beta  occ. eigenvalues --  -14.29300 -10.26760 -10.24808 -10.23863 -10.22147
  Beta  occ. eigenvalues --  -10.22053 -10.21885 -10.21657 -10.21075 -10.20219
  Beta  occ. eigenvalues --  -10.20163 -10.19796 -10.19377 -10.19310 -10.17463
  Beta  occ. eigenvalues --  -10.17432 -10.16796 -10.16134 -10.16043 -10.15570
  Beta  occ. eigenvalues --  -10.15474 -10.15261 -10.15214 -10.14958 -10.14839
  Beta  occ. eigenvalues --  -10.14409 -10.14403 -10.14354  -1.06122  -1.05687
  Beta  occ. eigenvalues --   -1.05662  -1.03742  -1.02468  -1.01521  -1.01249
  Beta  occ. eigenvalues --   -0.99726  -0.95721  -0.95596  -0.88560  -0.83833
  Beta  occ. eigenvalues --   -0.83117  -0.80140  -0.77308  -0.76471  -0.76151
  Beta  occ. eigenvalues --   -0.74769  -0.74312  -0.73862  -0.72082  -0.70063
  Beta  occ. eigenvalues --   -0.69073  -0.68220  -0.65480  -0.64963  -0.62707
  Beta  occ. eigenvalues --   -0.62506  -0.60376  -0.59386  -0.58147  -0.56601
  Beta  occ. eigenvalues --   -0.55747  -0.55587  -0.54533  -0.52971  -0.52797
  Beta  occ. eigenvalues --   -0.51826  -0.51255  -0.49970  -0.48911  -0.48665
  Beta  occ. eigenvalues --   -0.48241  -0.47740  -0.47022  -0.45945  -0.45928
  Beta  occ. eigenvalues --   -0.45892  -0.45673  -0.45033  -0.44388  -0.43925
  Beta  occ. eigenvalues --   -0.43748  -0.43004  -0.42765  -0.42356  -0.42052
  Beta  occ. eigenvalues --   -0.41573  -0.41148  -0.40746  -0.40394  -0.39978
  Beta  occ. eigenvalues --   -0.39863  -0.39215  -0.38976  -0.38178  -0.37794
  Beta  occ. eigenvalues --   -0.37390  -0.37210  -0.37051  -0.36884  -0.36643
  Beta  occ. eigenvalues --   -0.36098  -0.35848  -0.35690  -0.35524  -0.34987
  Beta  occ. eigenvalues --   -0.34648  -0.34373  -0.33892  -0.33737  -0.33122
  Beta  occ. eigenvalues --   -0.32785  -0.32725  -0.32055  -0.30303  -0.29964
  Beta  occ. eigenvalues --   -0.29935  -0.28404  -0.28249  -0.27573  -0.27134
  Beta  occ. eigenvalues --   -0.25625  -0.25588  -0.24497  -0.24019  -0.22693
  Beta  occ. eigenvalues --   -0.22170  -0.21359  -0.19856  -0.17931  -0.11967
  Beta virt. eigenvalues --   -0.03354  -0.02046  -0.00763  -0.00603  -0.00116
  Beta virt. eigenvalues --    0.00030   0.00871   0.01062   0.01318   0.01826
  Beta virt. eigenvalues --    0.02066   0.02320   0.02845   0.03167   0.03261

 Mulliken charges and spin densities:
               1          2
     1  C   -0.279661   0.000000
     2  O   -0.194918   0.000000
     3  C   -0.183685  -0.000000
     4  C   -0.088980   0.000000
     5  C   -0.499930  -0.000000
     6  C   -0.118960  -0.000000
     7  C    0.307764  -0.000000
     8  C   -0.407419   0.000000
     9  O   -0.566091  -0.000000
    10  C    0.035345  -0.000000
    11  C   -0.179882   0.000000
    12  O   -0.266864  -0.000000
    13  C    0.008329   0.000000
    14  C   -0.843491   0.000000
    15  C    0.555192  -0.000000
    16  O   -0.203179   0.000000
    17  C   -1.347981   0.000000
    18  C   -0.098896  -0.000000
    19  O    0.075783  -0.000000
    20  C   -0.340718   0.000000
    21  C   -0.327359   0.000000
    22  C   -0.517069  -0.000000
    23  N   -0.325590   0.000000
    24  C   -0.221444  -0.000000
    25  O   -0.287797   0.000000
    26  C    0.037211  -0.000000
    27  C   -0.598288  -0.000000
    28  O   -0.107101  -0.000000
    29  C    0.327042   0.000000
    30  C   -0.232089   0.000000
    31  O   -0.503522  -0.000000
    32  C    0.537333  -0.000000
    33  C   -0.425910  -0.000000
    34  O   -0.496415  -0.000000
    35  C    0.224419   0.000000
    36  C    0.278247   0.000000
    37  C   -0.507608  -0.000000
    38  O   -0.346284   0.000000
    39  H    0.177509   0.000000
    40  H    0.150011   0.000000
    41  H    0.147641   0.000000
    42  H    0.159053  -0.000000
    43  H    0.174769  -0.000000
    44  H    0.142356  -0.000000
    45  H    0.299299  -0.000000
    46  H    0.246652   0.000000
    47  H    0.187089   0.000000
    48  H    0.346329   0.000000
    49  H    0.213108  -0.000000
    50  H    0.212044   0.000000
    51  H    0.292472   0.000000
    52  H   -0.043124  -0.000000
    53  H    0.206795  -0.000000
    54  H    0.144111  -0.000000
    55  H    0.217957   0.000000
    56  H    0.259447   0.000000
    57  H    0.259696  -0.000000
    58  H    0.216716  -0.000000
    59  H    0.399226   0.000000
    60  H    0.198783   0.000000
    61  H    0.155991   0.000000
    62  H    0.149924  -0.000000
    63  H    0.156146  -0.000000
    64  H    0.516854  -0.000000
    65  H    0.185023  -0.000000
    66  H    0.175955   0.000000
    67  H    0.182636   0.000000
 Sum of Mulliken charges =  -2.00000  -0.00000

 Dipole moment (field-independent basis, Debye):
    X=             11.7516    Y=             11.7655    Z=             -3.2966  Tot=             16.9527
 Quadrupole moment (field-independent basis, Debye-Ang):
   XX=           -301.8335   YY=           -295.5735   ZZ=           -262.6815
   XY=            -28.0200   XZ=             14.8331   YZ=              8.9755

 Normal termination of Gaussian 16 at Tue Jan 16 07:12:43 2024.
