 Gaussian 16, Revision A.03,
 Gaussian 16:  ES64L-G16RevA.03 25-Dec-2016

 ----------------------------------------------------------------
 #P UB3LYP/6-311++G(d,p) SCRF=(PCM,Solvent=n,n-DiMethylFormamide)
 ----------------------------------------------------------------

 -------
 Reduced
 -------
 Symbolic Z-matrix:
 Charge = -2 Multiplicity = 1

                         Standard orientation:
 ---------------------------------------------------------------------
 Center     Atomic      Atomic             Coordinates (Angstroms)
 Number     Number       Type             X           Y           Z
 ---------------------------------------------------------------------
      1          6           0       -0.474306    2.062265   -0.000326
      2          6           0        0.800950    2.582608   -0.000411
      3          6           0        1.907761    1.694740   -0.000138
      4          6           0       -0.719232    0.667286   -0.000090
      5          6           0        0.416138   -0.257160   -0.000156
      6          6           0        1.733625    0.316399    0.000101
      7          6           0       -2.110779    0.227965    0.000205
      8          6           0       -2.255692   -1.179225    0.000360
      9          6           0       -1.173767   -2.076792    0.000072
     10          6           0        0.195086   -1.704651   -0.000371
     11          8           0       -3.108326    1.062529    0.000325
     12          8           0        1.154892   -2.585151   -0.000902
     13          1           0       -1.355824    2.697018   -0.000443
     14          6           0        2.986011   -0.540901    0.000942
     15          1           0        0.964947    3.660229   -0.000702
     16          1           0        2.921447    2.096179    0.000061
     17          1           0       -3.275641   -1.568522    0.000681
     18          1           0       -1.370196   -3.150235    0.000098
     19          1           0        3.016467   -1.208715   -0.862586
     20          1           0        3.015487   -1.208120    0.865006
     21          1           0        3.876006    0.107935    0.001373
 ---------------------------------------------------------------------

 SCF Done:  E(UB3LYP) =  -574.827602870     A.U. after   17 cycles

 The electronic state is 1-A.
 Alpha  occ. eigenvalues --  -19.01166 -19.00679 -10.16721 -10.16432 -10.15734
 Alpha  occ. eigenvalues --  -10.14582 -10.14138 -10.14026 -10.13845 -10.13834
 Alpha  occ. eigenvalues --  -10.13486 -10.11688 -10.11483  -0.92313  -0.91867
 Alpha  occ. eigenvalues --   -0.82191  -0.75926  -0.74149  -0.69673  -0.66043
 Alpha  occ. eigenvalues --   -0.63122  -0.57616  -0.56885  -0.50665  -0.46810
 Alpha  occ. eigenvalues --   -0.46057  -0.43381  -0.41336  -0.39426  -0.38696
 Alpha  occ. eigenvalues --   -0.37457  -0.37006  -0.35464  -0.35278  -0.34865
 Alpha  occ. eigenvalues --   -0.33252  -0.31158  -0.30761  -0.30450  -0.29957
 Alpha  occ. eigenvalues --   -0.22094  -0.21592  -0.21101  -0.19178  -0.18445
 Alpha  occ. eigenvalues --   -0.10815
 Alpha virt. eigenvalues --    0.00029   0.00194   0.01064   0.01326   0.01455
 Alpha virt. eigenvalues --    0.02942   0.03324   0.03955   0.04978   0.05431
 Alpha virt. eigenvalues --    0.06410   0.06693   0.07411   0.08403   0.08969

  Beta  occ. eigenvalues --  -19.01166 -19.00679 -10.16721 -10.16432 -10.15734
  Beta  occ. eigenvalues --  -10.14582 -10.14138 -10.14026 -10.13845 -10.13834
  Beta  occ. eigenvalues --  -10.13486 -10.11688 -10.11483  -0.92313  -0.91867
  Beta  occ. eigenvalues --   -0.82191  -0.75926  -0.74149  -0.69673  -0.66043
  Beta  occ. eigenvalues --   -0.63122  -0.57616  -0.56885  -0.50665  -0.46810
  Beta  occ. eigenvalues --   -0.46057  -0.43381  -0.41336  -0.39426  -0.38696
  Beta  occ. eigenvalues --   -0.37457  -0.37006  -0.35464  -0.35278  -0.34865
  Beta  occ. eigenvalues --   -0.33252  -0.31158  -0.30761  -0.30450  -0.29957
  Beta  occ. eigenvalues --   -0.22094  -0.21592  -0.21101  -0.19178  -0.18445
  Beta  occ. eigenvalues --   -0.10815
  Beta virt. eigenvalues --    0.00029   0.00194   0.01064   0.01326   0.01455
  Beta virt. eigenvalues --    0.02942   0.03324   0.03955   0.04978   0.05431
  Beta virt. eigenvalues --    0.06410   0.06693   0.07411   0.08403   0.08969

 Mulliken charges and spin densities:
               1          2
     1  C    0.266639   0.000000
     2  C   -0.583650  -0.000000
     3  C   -0.588594   0.000000
     4  C    0.211618   0.000000
     5  C    0.132500  -0.000000
     6  C    0.666216  -0.000000
     7  C   -0.359390   0.000000
     8  C   -0.091995   0.000000
     9  C   -0.208798  -0.000000
    10  C   -0.662992  -0.000000
    11  O   -0.726175   0.000000
    12  O   -0.681174  -0.000000
    13  H    0.143974   0.000000
    14  C   -0.441128   0.000000
    15  H    0.162646  -0.000000
    16  H    0.102663   0.000000
    17  H    0.121631  -0.000000
    18  H    0.122809   0.000000
    19  H    0.144787   0.000000
    20  H    0.144761   0.000000
    21  H    0.123653  -0.000000
 Sum of Mulliken charges =  -2.00000  -0.00000

 Dipole moment (field-independent basis, Debye):
    X=              8.4196    Y=              4.9705    Z=              0.0024  Tot=              9.7773
 Quadrupole moment (field-independent basis, Debye-Ang):
   XX=           -130.6031   YY=           -119.1920   ZZ=            -87.7852
   XY=             20.3282   XZ=              0.0097   YZ=             -0.0108

 Normal termination of Gaussian 16 at Sun Jan 21 08:47:40 2024.
