 Gaussian 16, Revision A.03,
 Gaussian 16:  ES64L-G16RevA.03 25-Dec-2016

 --------------------------------------
 #P UB3LYP/6-311++G(d,p) nosym opt freq
 --------------------------------------

 -------
 Reduced
 -------
 Symbolic Z-matrix:
 Charge = -2 Multiplicity = 1

 SCF Done:  E(UB3LYP) =  -574.547821793     A.U. after   41 cycles
 SCF Done:  E(UB3LYP) =  -574.548209524     A.U. after   26 cycles
 SCF Done:  E(UB3LYP) =  -574.548241985     A.U. after   24 cycles
 SCF Done:  E(UB3LYP) =  -574.548251744     A.U. after   28 cycles
 SCF Done:  E(UB3LYP) =  -574.548254013     A.U. after   27 cycles
 SCF Done:  E(UB3LYP) =  -574.548255202     A.U. after   21 cycles
 SCF Done:  E(UB3LYP) =  -574.548255774     A.U. after   22 cycles
 SCF Done:  E(UB3LYP) =  -574.548255882     A.U. after   24 cycles
 SCF Done:  E(UB3LYP) =  -574.548255922     A.U. after   20 cycles
 Optimization completed.
    -- Stationary point found.
 Normal termination of Gaussian 16 at Sun Jan  7 20:49:31 2024.

 ----------------------------------------------------------------------
 #P Geom=AllCheck Guess=TCheck SCRF=Check GenChk UB3LYP/6-311++G(d,p) F
 req
 ----------------------------------------------------------------------

 Structure from the checkpoint file:  "237-an.chk"
 -------
 Reduced
 -------
 Charge = -2 Multiplicity = 1

                          Input orientation:
 ---------------------------------------------------------------------
 Center     Atomic      Atomic             Coordinates (Angstroms)
 Number     Number       Type             X           Y           Z
 ---------------------------------------------------------------------
      1          6           0        5.755861   -5.281330    1.250205
      2          6           0        6.730496   -5.159708    0.284634
      3          6           0        6.612056   -4.134454   -0.689105
      4          6           0        4.636385   -4.415432    1.304518
      5          6           0        4.505227   -3.354121    0.304476
      6          6           0        5.537863   -3.253399   -0.689636
      7          6           0        3.665243   -4.636501    2.371016
      8          6           0        2.584079   -3.724606    2.344283
      9          6           0        2.447234   -2.701688    1.389767
     10          6           0        3.359416   -2.442913    0.334681
     11          8           0        3.796527   -5.584357    3.251885
     12          8           0        3.177519   -1.477427   -0.520455
     13          1           0        5.798036   -6.048240    2.018356
     14          6           0        5.509634   -2.194821   -1.776857
     15          1           0        7.583485   -5.838013    0.262870
     16          1           0        7.377882   -4.029583   -1.458016
     17          1           0        1.823780   -3.840492    3.119115
     18          1           0        1.582127   -2.038267    1.438006
     19          1           0        5.483994   -1.187340   -1.356254
     20          1           0        4.602239   -2.263271   -2.380683
     21          1           0        6.395218   -2.306451   -2.422115
 ---------------------------------------------------------------------

 SCF Done:  E(UB3LYP) =  -574.548255922     A.U. after    1 cycles

 Alpha  occ. eigenvalues --  -18.74208 -18.74156  -9.91259  -9.90792  -9.90605
 Alpha  occ. eigenvalues --   -9.90243  -9.90189  -9.89971  -9.89014  -9.88406
 Alpha  occ. eigenvalues --   -9.87622  -9.85975  -9.85870  -0.65522  -0.65049
 Alpha  occ. eigenvalues --   -0.57265  -0.50405  -0.49573  -0.44421  -0.41664
 Alpha  occ. eigenvalues --   -0.37566  -0.32450  -0.31955  -0.25609  -0.21850
 Alpha  occ. eigenvalues --   -0.21298  -0.18588  -0.15711  -0.15622  -0.13875
 Alpha  occ. eigenvalues --   -0.13313  -0.11911  -0.10806  -0.09749  -0.08254
 Alpha  occ. eigenvalues --   -0.07981  -0.05578  -0.05258  -0.04239  -0.03913
 Alpha  occ. eigenvalues --    0.03120   0.04293   0.05141   0.07932   0.08076
 Alpha  occ. eigenvalues --    0.15701
 Alpha virt. eigenvalues --    0.17038   0.18281   0.19934   0.20300   0.21668
 Alpha virt. eigenvalues --    0.22601   0.22700   0.23062   0.24832   0.25808
 Alpha virt. eigenvalues --    0.27276   0.27298   0.28835   0.29065   0.29559

  Beta  occ. eigenvalues --  -18.74208 -18.74156  -9.91259  -9.90792  -9.90605
  Beta  occ. eigenvalues --   -9.90243  -9.90189  -9.89971  -9.89014  -9.88406
  Beta  occ. eigenvalues --   -9.87622  -9.85975  -9.85870  -0.65522  -0.65049
  Beta  occ. eigenvalues --   -0.57265  -0.50405  -0.49573  -0.44421  -0.41664
  Beta  occ. eigenvalues --   -0.37566  -0.32450  -0.31955  -0.25609  -0.21850
  Beta  occ. eigenvalues --   -0.21298  -0.18588  -0.15711  -0.15622  -0.13875
  Beta  occ. eigenvalues --   -0.13313  -0.11911  -0.10806  -0.09749  -0.08254
  Beta  occ. eigenvalues --   -0.07981  -0.05578  -0.05258  -0.04239  -0.03913
  Beta  occ. eigenvalues --    0.03120   0.04293   0.05141   0.07932   0.08076
  Beta  occ. eigenvalues --    0.15701
  Beta virt. eigenvalues --    0.17038   0.18281   0.19934   0.20300   0.21668
  Beta virt. eigenvalues --    0.22601   0.22700   0.23062   0.24832   0.25808
  Beta virt. eigenvalues --    0.27276   0.27298   0.28835   0.29065   0.29559

 Mulliken charges and spin densities:
               1          2
     1  C    0.326082  -0.000000
     2  C   -0.526033   0.000000
     3  C   -0.579951  -0.000000
     4  C    0.383618  -0.000000
     5  C    0.125399   0.000000
     6  C    0.844754   0.000000
     7  C   -0.767978  -0.000000
     8  C    0.148895  -0.000000
     9  C    0.036560  -0.000000
    10  C   -0.954877   0.000000
    11  O   -0.577929  -0.000000
    12  O   -0.551688  -0.000000
    13  H    0.120147  -0.000000
    14  C   -0.511578  -0.000000
    15  H    0.069090   0.000000
    16  H    0.009543  -0.000000
    17  H    0.038644   0.000000
    18  H    0.044298  -0.000000
    19  H    0.139618   0.000000
    20  H    0.139583  -0.000000
    21  H    0.043803   0.000000
 Sum of Mulliken charges =  -2.00000   0.00000

 Dipole moment (field-independent basis, Debye):
    X=            -38.5493    Y=             35.5355    Z=            -10.4690  Tot=             53.4642
 Quadrupole moment (field-independent basis, Debye-Ang):
   XX=           -261.1914   YY=           -251.6820   ZZ=           -131.6071
   XY=            151.6111   XZ=            -36.2123   YZ=             63.9562

  Exact polarizability: 230.681 -37.795 185.648 -50.557 -30.260 200.936
 Approx polarizability: 384.622 -89.876 291.230 -96.820 -57.836 306.187

                      1                      2                      3
                      A                      A                      A
 Frequencies --     64.4954               102.1809               139.4759
 Red. masses --      4.4501                 4.8196                 1.1365
 Frc consts  --      0.0109                 0.0296                 0.0130
 IR Inten    --      3.0626                 4.3932                 2.4137

                      4                      5                      6
                      A                      A                      A
 Frequencies --    196.7619               230.9498               272.5588
 Red. masses --      3.9992                 3.4030                 5.8672
 Frc consts  --      0.0912                 0.1069                 0.2568
 IR Inten    --      0.3188                 0.9253                 6.7498

                      7                      8                      9
                      A                      A                      A
 Frequencies --    345.7755               350.2755               358.6058
 Red. masses --      7.0393                 9.1668                 3.9604
 Frc consts  --      0.4959                 0.6627                 0.3001
 IR Inten    --      0.5298                 0.7987                 5.0671

                     10                     11                     12
                      A                      A                      A
 Frequencies --    459.9457               465.0460               465.3841
 Red. masses --      7.3828                 3.7938                 5.9370
 Frc consts  --      0.9202                 0.4834                 0.7576
 IR Inten    --      0.0713                 1.3024                 3.8052

                     13                     14                     15
                      A                      A                      A
 Frequencies --    480.9718               526.8755               613.6267
 Red. masses --      3.3678                 6.6211                 4.6029
 Frc consts  --      0.4590                 1.0829                 1.0212
 IR Inten    --      0.2888                 3.1805                 0.0189

                     16                     17                     18
                      A                      A                      A
 Frequencies --    622.4865               625.1901               647.9635
 Red. masses --      5.5155                 2.3316                 3.2680
 Frc consts  --      1.2592                 0.5369                 0.8084
 IR Inten    --      1.8940                 0.4411                 0.1056

                     19                     20                     21
                      A                      A                      A
 Frequencies --    715.9557               757.3521               765.8693
 Red. masses --      1.3350                 6.9654                 1.6441
 Frc consts  --      0.4032                 2.3539                 0.5682
 IR Inten    --     82.7899               102.0501                 1.9129

                     22                     23                     24
                      A                      A                      A
 Frequencies --    795.4231               800.4172               806.7609
 Red. masses --      5.2090                 2.5824                 2.2215
 Frc consts  --      1.9418                 0.9748                 0.8519
 IR Inten    --      8.0139                12.8896                20.6534

                     25                     26                     27
                      A                      A                      A
 Frequencies --    853.8009               901.4239               945.3679
 Red. masses --      1.4170                 4.3145                 1.2720
 Frc consts  --      0.6086                 2.0656                 0.6698
 IR Inten    --      0.3406                42.5157                 2.7459

                     28                     29                     30
                      A                      A                      A
 Frequencies --   1007.3422              1036.6983              1043.6368
 Red. masses --      1.6153                 3.0003                 1.4943
 Frc consts  --      0.9657                 1.8999                 0.9590
 IR Inten    --      8.5536                68.6468                 0.0008

                     31                     32                     33
                      A                      A                      A
 Frequencies --   1081.8065              1120.0097              1137.7748
 Red. masses --      1.6974                 1.6718                 2.2270
 Frc consts  --      1.1704                 1.2356                 1.6986
 IR Inten    --     24.7684                49.5175                72.2628

                     34                     35                     36
                      A                      A                      A
 Frequencies --   1158.6822              1207.5557              1223.2210
 Red. masses --      1.9086                 2.7600                 2.3337
 Frc consts  --      1.5097                 2.3712                 2.0573
 IR Inten    --     41.9604               133.9079               104.7670

                     37                     38                     39
                      A                      A                      A
 Frequencies --   1291.7824              1299.7192              1363.3380
 Red. masses --      2.1389                 3.5860                 6.2409
 Frc consts  --      2.1029                 3.5691                 6.8344
 IR Inten    --    232.6071               107.8798                61.8073

                     40                     41                     42
                      A                      A                      A
 Frequencies --   1372.3125              1384.4192              1399.7808
 Red. masses --      5.8619                 3.6161                 1.2535
 Frc consts  --      6.5042                 4.0835                 1.4471
 IR Inten    --    498.6887               252.5540                 1.3683

                     43                     44                     45
                      A                      A                      A
 Frequencies --   1431.7855              1441.7737              1471.7285
 Red. masses --      2.1687                 1.0481                 1.1993
 Frc consts  --      2.6194                 1.2837                 1.5305
 IR Inten    --     18.4102                 1.8255                 2.0307

                     46                     47                     48
                      A                      A                      A
 Frequencies --   1505.6991              1520.1004              1570.5615
 Red. masses --      4.7142                 4.6291                 4.5733
 Frc consts  --      6.2970                 6.3022                 6.6465
 IR Inten    --    110.0714               418.8561                 0.9503

                     49                     50                     51
                      A                      A                      A
 Frequencies --   1592.9670              2948.1734              3060.5292
 Red. masses --      7.4572                 1.0570                 1.0827
 Frc consts  --     11.1491                 5.4128                 5.9750
 IR Inten    --     20.2225               204.0138                87.6320

                     52                     53                     54
                      A                      A                      A
 Frequencies --   3066.7023              3071.7511              3079.2494
 Red. masses --      1.0761                 1.0821                 1.0988
 Frc consts  --      5.9625                 6.0159                 6.1382
 IR Inten    --     31.2110                49.7830                11.1463

                     55                     56                     57
                      A                      A                      A
 Frequencies --   3090.7283              3098.0167              3149.4652
 Red. masses --      1.0910                 1.0908                 1.0906
 Frc consts  --      6.1402                 6.1682                 6.3735
 IR Inten    --    214.8484               111.6228                33.6343

 - Thermochemistry -
 -------------------
 Temperature   298.150 Kelvin.  Pressure   1.00000 Atm.
 Atom     1 has atomic number  6 and mass  12.00000

 Molecular mass:   172.05243 amu.
 Principal axes and moments of inertia in atomic units:
                           1         2         3
     Eigenvalues --  1595.843182043.076583628.17798
           X           -0.42020   0.75030   0.51038
           Y           -0.42166  -0.65948   0.62233
           Z            0.80351   0.04629   0.59348
 This molecule is an asymmetric top.
 Rotational symmetry number  1.
 Warning -- assumption of classical behavior for rotation
           may cause significant error
 Rotational temperatures (Kelvin)      0.05427     0.04239     0.02387
 Rotational constants (GHZ):           1.13090     0.88334     0.49742
 Zero-point vibrational energy     403968.4 (Joules/Mol)
                                   96.55078 (Kcal/Mol)
 Warning -- explicit consideration of  15 degrees of freedom as
           vibrations may cause significant error
 Vibrational temperatures:     92.79   147.02   200.67   283.10   332.29
          (Kelvin)            392.15   497.49   503.97   515.95   661.76
                              669.10   669.58   692.01   758.06   882.87
                              895.62   899.51   932.27  1030.10  1089.66
                             1101.92  1144.44  1151.62  1160.75  1228.43
                             1296.95  1360.17  1449.34  1491.58  1501.56
                             1556.48  1611.44  1637.00  1667.09  1737.40
                             1759.94  1858.59  1870.01  1961.54  1974.45
                             1991.87  2013.97  2060.02  2074.39  2117.49
                             2166.37  2187.09  2259.69  2291.92  4241.76
                             4403.42  4412.30  4419.56  4430.35  4446.87
                             4457.36  4531.38

 Zero-point correction=                           0.153863 (Hartree/Particle)
 Thermal correction to Energy=                    0.164287
 Thermal correction to Enthalpy=                  0.165231
 Thermal correction to Gibbs Free Energy=         0.117912
 Sum of electronic and zero-point Energies=           -574.394392
 Sum of electronic and thermal Energies=              -574.383969
 Sum of electronic and thermal Enthalpies=            -574.383025
 Sum of electronic and thermal Free Energies=         -574.430344

                     E (Thermal)             CV                S
                      KCal/Mol        Cal/Mol-Kelvin    Cal/Mol-Kelvin
 Total                  103.092             41.683             99.591
 Electronic               0.000              0.000              0.000
 Translational            0.889              2.981             41.335
 Rotational               0.889              2.981             30.848
 Vibrational            101.314             35.721             27.407
 Vibration     1          0.597              1.971              4.315
 Vibration     2          0.604              1.947              3.412
 Vibration     3          0.615              1.914              2.811
 Vibration     4          0.636              1.844              2.163
 Vibration     5          0.653              1.794              1.872
 Vibration     6          0.676              1.724              1.580
 Vibration     7          0.724              1.584              1.185
 Vibration     8          0.727              1.575              1.165
 Vibration     9          0.733              1.558              1.128
 Vibration    10          0.818              1.339              0.766
 Vibration    11          0.822              1.328              0.752
 Vibration    12          0.823              1.327              0.751
 Vibration    13          0.837              1.292              0.707
 Vibration    14          0.882              1.191              0.594
 Vibration    15          0.973              1.003              0.427

 Optimization completed.
    -- Stationary point found.
 Normal termination of Gaussian 16 at Sun Jan  7 21:01:10 2024.
