 Gaussian 16, Revision A.03,
 Gaussian 16:  ES64L-G16RevA.03 25-Dec-2016

 ----------------------------------------------------------------
 #P UB3LYP/6-311++G(d,p) SCRF=(PCM,Solvent=n,n-DiMethylFormamide)
 ----------------------------------------------------------------

 ------------------
 Radical PCM in DMF
 ------------------
 Symbolic Z-matrix:
 Charge = -1 Multiplicity = 2

                         Standard orientation:
 ---------------------------------------------------------------------
 Center     Atomic      Atomic             Coordinates (Angstroms)
 Number     Number       Type             X           Y           Z
 ---------------------------------------------------------------------
      1          6           0        2.295158   -2.569324   -0.089764
      2          6           0        3.537746   -3.119215    0.153415
      3          6           0        4.645034   -2.279065    0.401290
      4          6           0        2.103126   -1.169789   -0.094935
      5          6           0        3.218056   -0.326285    0.154670
      6          6           0        4.480965   -0.908785    0.400173
      7          6           0        0.757552   -0.644798   -0.360494
      8          6           0        0.611535    0.813270   -0.336047
      9          6           0        1.746010    1.663026   -0.101428
     10          6           0        3.086468    1.128812    0.156792
     11          6           0       -0.631828    1.469022   -0.562171
     12          6           0       -0.750689    2.843092   -0.586242
     13          6           0        0.377996    3.654984   -0.364796
     14          6           0        1.598932    3.066180   -0.120820
     15          8           0       -0.193541   -1.430049   -0.598123
     16          8           0        4.068029    1.882449    0.367472
     17          1           0        5.311206   -0.237314    0.585799
     18          1           0        2.490014    3.655192    0.059417
     19          1           0        1.428745   -3.190754   -0.282372
     20          8           0       -1.797547    0.758345   -0.849309
     21          1           0        0.277980    4.735408   -0.385103
     22          1           0        5.622560   -2.711739    0.592229
     23          6           0       -2.547932    0.243538    0.164990
     24          6           0       -3.663318   -0.532152   -0.213517
     25          6           0       -2.306029    0.479563    1.518006
     26          6           0       -3.169537   -0.030702    2.487710
     27          6           0       -4.520476   -1.024819    0.764288
     28          6           0       -4.284453   -0.776387    2.117787
     29          8           0       -3.958571   -0.752748   -1.536540
     30          6           0       -3.046002   -1.628145   -2.227418
     31          1           0        3.664569   -4.197709    0.155063
     32          1           0       -1.727708    3.271654   -0.778056
     33          1           0       -1.441945    1.064459    1.805524
     34          1           0       -2.962292    0.161943    3.534913
     35          1           0       -5.375946   -1.606764    0.439096
     36          1           0       -4.960006   -1.170248    2.869167
     37          1           0       -3.230227   -1.477486   -3.292215
     38          1           0       -3.265103   -2.669838   -1.962244
     39          1           0       -2.008698   -1.402927   -1.978150
 ---------------------------------------------------------------------

 SCF Done:  E(UB3LYP) =  -1109.98122601     A.U. after   19 cycles

 The electronic state is 2-A.
 Alpha  occ. eigenvalues --  -19.16245 -19.14073 -19.07719 -19.07485 -10.24061
 Alpha  occ. eigenvalues --  -10.23956 -10.22890 -10.22841 -10.22555 -10.20474
 Alpha  occ. eigenvalues --  -10.18428 -10.17864 -10.17750 -10.17624 -10.17583
 Alpha  occ. eigenvalues --  -10.17555 -10.17499 -10.17413 -10.17408 -10.17360
 Alpha  occ. eigenvalues --  -10.17333 -10.17255 -10.17107 -10.17092 -10.17031
 Alpha  occ. eigenvalues --   -1.08750  -1.05062  -1.00541  -1.00252  -0.86732
 Alpha  occ. eigenvalues --   -0.85760  -0.85070  -0.78877  -0.77045  -0.75516
 Alpha  occ. eigenvalues --   -0.75143  -0.74319  -0.73354  -0.68515  -0.67142
 Alpha  occ. eigenvalues --   -0.64945  -0.62984  -0.62233  -0.60149  -0.58160
 Alpha  occ. eigenvalues --   -0.56442  -0.54412  -0.53418  -0.52200  -0.50253
 Alpha  occ. eigenvalues --   -0.49592  -0.47941  -0.47242  -0.46652  -0.46154
 Alpha  occ. eigenvalues --   -0.45763  -0.45452  -0.44002  -0.43280  -0.42547
 Alpha  occ. eigenvalues --   -0.42439  -0.41874  -0.41503  -0.41053  -0.40631
 Alpha  occ. eigenvalues --   -0.39412  -0.38272  -0.37910  -0.37630  -0.36835
 Alpha  occ. eigenvalues --   -0.36506  -0.35925  -0.35215  -0.34732  -0.34023
 Alpha  occ. eigenvalues --   -0.33656  -0.33064  -0.28451  -0.27077  -0.25813
 Alpha  occ. eigenvalues --   -0.25479  -0.25407  -0.24989  -0.24664  -0.23722
 Alpha  occ. eigenvalues --   -0.22423  -0.14349
 Alpha virt. eigenvalues --   -0.05618  -0.02686  -0.01279  -0.00697  -0.00546
 Alpha virt. eigenvalues --   -0.00215   0.00352   0.00612   0.01052   0.01846
 Alpha virt. eigenvalues --    0.01938   0.02404   0.03332   0.03404   0.03752

  Beta  occ. eigenvalues --  -19.16243 -19.14072 -19.07171 -19.06918 -10.24058
  Beta  occ. eigenvalues --  -10.23951 -10.22842 -10.22732 -10.22380 -10.20473
  Beta  occ. eigenvalues --  -10.18346 -10.17764 -10.17686 -10.17623 -10.17554
  Beta  occ. eigenvalues --  -10.17528 -10.17500 -10.17369 -10.17338 -10.17316
  Beta  occ. eigenvalues --  -10.17271 -10.17256 -10.17109 -10.17083 -10.17034
  Beta  occ. eigenvalues --   -1.08738  -1.05059  -0.99580  -0.99258  -0.86541
  Beta  occ. eigenvalues --   -0.85644  -0.84994  -0.78480  -0.76935  -0.75514
  Beta  occ. eigenvalues --   -0.74949  -0.74133  -0.73256  -0.68486  -0.66461
  Beta  occ. eigenvalues --   -0.64833  -0.62847  -0.61990  -0.60136  -0.58103
  Beta  occ. eigenvalues --   -0.56315  -0.54179  -0.53265  -0.52149  -0.50120
  Beta  occ. eigenvalues --   -0.49578  -0.47821  -0.47026  -0.46615  -0.46096
  Beta  occ. eigenvalues --   -0.45678  -0.45370  -0.43934  -0.43206  -0.42464
  Beta  occ. eigenvalues --   -0.41894  -0.41636  -0.40880  -0.40706  -0.40294
  Beta  occ. eigenvalues --   -0.39284  -0.37912  -0.37523  -0.36819  -0.36369
  Beta  occ. eigenvalues --   -0.36111  -0.35507  -0.35098  -0.34528  -0.33551
  Beta  occ. eigenvalues --   -0.33327  -0.32669  -0.28435  -0.25467  -0.25232
  Beta  occ. eigenvalues --   -0.24962  -0.24601  -0.24545  -0.24152  -0.23300
  Beta  occ. eigenvalues --   -0.22318
  Beta virt. eigenvalues --   -0.08478  -0.04659  -0.01852  -0.01081  -0.00627
  Beta virt. eigenvalues --   -0.00371  -0.00169   0.00355   0.00615   0.01060
  Beta virt. eigenvalues --    0.01849   0.01949   0.02405   0.03348   0.03424

 Mulliken charges and spin densities:
               1          2
     1  C   -0.115563   0.021114
     2  C   -0.419604   0.039232
     3  C   -0.522406   0.026911
     4  C    0.186248   0.030555
     5  C    0.283675   0.028151
     6  C   -0.046916   0.026898
     7  C   -0.393702   0.078944
     8  C    0.356596   0.056778
     9  C    0.703930   0.067622
    10  C   -0.691578   0.092420
    11  C   -0.283739   0.015788
    12  C    0.248740   0.041651
    13  C   -0.464985   0.050151
    14  C   -0.099199   0.020112
    15  O   -0.382571   0.215022
    16  O   -0.456156   0.203781
    17  H    0.174328  -0.001552
    18  H    0.181800  -0.001498
    19  H    0.151729  -0.001097
    20  O   -0.046518  -0.002201
    21  H    0.199514  -0.003887
    22  H    0.179632  -0.002348
    23  C    0.449103  -0.001768
    24  C   -0.565133   0.015007
    25  C   -0.214334  -0.014123
    26  C   -0.418048   0.001799
    27  C    0.096257   0.000843
    28  C   -0.273306   0.000526
    29  O   -0.186106  -0.000127
    30  C   -0.294369   0.000503
    31  H    0.185829  -0.003135
    32  H    0.190488  -0.003229
    33  H    0.183021   0.000022
    34  H    0.204534   0.000004
    35  H    0.205263  -0.000047
    36  H    0.179230   0.000119
    37  H    0.152066   0.000105
    38  H    0.134205  -0.000144
    39  H    0.228046   0.001097
 Sum of Mulliken charges =  -1.00000   1.00000

 Dipole moment (field-independent basis, Debye):
    X=             -5.6998    Y=             -1.7147    Z=              1.4835  Tot=              6.1342
 Quadrupole moment (field-independent basis, Debye-Ang):
   XX=           -196.4896   YY=           -151.7191   ZZ=           -149.3263
   XY=            -15.2830   XZ=             -7.6931   YZ=             -0.9460

 Normal termination of Gaussian 16 at Sun Jan 14 01:27:12 2024.
