 Q-Chem 5.4, Q-Chem, Inc., Pleasanton, CA (2021)
 Q-Chem 5.4.0 for Intel X86 EM64T Linux

User input:
--------------------------------------------------------------
$molecule
-2 2
C                 -1.7813920000      1.9704760000     -5.1426660000
C                 -1.7678400000      0.6430170000     -5.5244110000
C                 -1.4734600000     -0.3582020000     -4.5688310000
C                 -1.5023270000      2.3539030000     -3.8118900000
C                 -1.2051430000      1.3517020000     -2.8546020000
C                 -1.2023340000     -0.0023920000     -3.2629540000
C                 -1.5392560000      3.7672190000     -3.4485810000
C                 -0.9104140000      1.6764150000     -1.4613850000
C                 -1.2193670000      4.1252320000     -2.0682800000
C                 -0.8579750000      3.1050210000     -1.1018490000
C                 -1.2395390000      5.5214540000     -1.6797550000
C                 -0.8653740000      5.8730610000     -0.3628200000
C                 -0.4698640000      4.8894890000      0.5340590000
C                 -0.4699140000      3.5512270000      0.1836190000
O                 -1.8377980000      4.6155710000     -4.3475660000
O                 -0.7190780000      0.7502470000     -0.6350740000
H                 -2.0077850000      2.7614750000     -5.8482240000
H                 -1.9841340000      0.3676210000     -6.5534690000
H                 -1.4617520000     -1.4046630000     -4.8634040000
H                 -0.9768130000     -0.7451650000     -2.5062580000
Br                 0.1825910000      2.3874850000      1.6090480000
N                 -1.6153700000      6.4845750000     -2.5596730000
S                 -0.9507810000      7.5925040000      0.2623890000
O                 -0.5114020000      8.4477210000     -0.8891470000
O                 -2.3721730000      7.8213540000      0.6335160000
O                 -0.0169790000      7.6335970000      1.4176450000
H                 -0.1515120000      5.1995860000      1.5201130000
H                 -1.7547430000      6.1684080000     -3.5156740000
H                 -1.3759610000      7.4396790000     -2.3104960000
$end
$rem
MAX_SCF_CYCLES=200
BASIS  =  6-311++G(d,p)
GUI  =  2
JOB_TYPE  =  SP
METHOD  =  B3LYP
SOLVENT_METHOD = PCM
$end
$pcm
theory = CPCM
$end
$solvent
dielectric 37.219
opticaldielectric 1.43
$end

--------------------------------------------------------------

             Standard Nuclear Orientation (Angstroms)
    I     Atom           X                Y                Z
 ----------------------------------------------------------------
    1      C      -1.7813920000     1.9704760000    -5.1426660000
    2      C      -1.7678400000     0.6430170000    -5.5244110000
    3      C      -1.4734600000    -0.3582020000    -4.5688310000
    4      C      -1.5023270000     2.3539030000    -3.8118900000
    5      C      -1.2051430000     1.3517020000    -2.8546020000
    6      C      -1.2023340000    -0.0023920000    -3.2629540000
    7      C      -1.5392560000     3.7672190000    -3.4485810000
    8      C      -0.9104140000     1.6764150000    -1.4613850000
    9      C      -1.2193670000     4.1252320000    -2.0682800000
   10      C      -0.8579750000     3.1050210000    -1.1018490000
   11      C      -1.2395390000     5.5214540000    -1.6797550000
   12      C      -0.8653740000     5.8730610000    -0.3628200000
   13      C      -0.4698640000     4.8894890000     0.5340590000
   14      C      -0.4699140000     3.5512270000     0.1836190000
   15      O      -1.8377980000     4.6155710000    -4.3475660000
   16      O      -0.7190780000     0.7502470000    -0.6350740000
   17      H      -2.0077850000     2.7614750000    -5.8482240000
   18      H      -1.9841340000     0.3676210000    -6.5534690000
   19      H      -1.4617520000    -1.4046630000    -4.8634040000
   20      H      -0.9768130000    -0.7451650000    -2.5062580000
   21      Br      0.1825910000     2.3874850000     1.6090480000
   22      N      -1.6153700000     6.4845750000    -2.5596730000
   23      S      -0.9507810000     7.5925040000     0.2623890000
   24      O      -0.5114020000     8.4477210000    -0.8891470000
   25      O      -2.3721730000     7.8213540000     0.6335160000
   26      O      -0.0169790000     7.6335970000     1.4176450000
   27      H      -0.1515120000     5.1995860000     1.5201130000
   28      H      -1.7547430000     6.1684080000    -3.5156740000
   29      H      -1.3759610000     7.4396790000    -2.3104960000
 ----------------------------------------------------------------

    8   -3941.4795596635      9.10e-06  Convergence criterion met
 Total energy in the final basis set =    -3941.4795596635

                    Orbital Energies (a.u.)
 --------------------------------------------------------------

 Alpha MOs
 -- Occupied --
******** -89.0485 -62.4695 -56.2900 -56.2863 -56.2859 -19.0937 -19.0931
-19.0924 -19.0811 -19.0744 -14.3037 -10.2330 -10.2306 -10.2288 -10.2193
-10.1915 -10.1881 -10.1842 -10.1814 -10.1736 -10.1730 -10.1728 -10.1722
-10.1695 -10.1690  -8.6782  -8.1072  -6.5095  -6.4972  -6.4961  -6.0701
 -6.0699  -6.0689  -2.6205  -2.6170  -2.6163  -2.6065  -2.6065  -1.1110
 -1.0084  -1.0041  -0.9767  -0.9737  -0.9214  -0.8618  -0.8523  -0.7956
 -0.7824  -0.7502  -0.7466  -0.7148  -0.6744  -0.6489  -0.6314  -0.6010
 -0.5750  -0.5590  -0.5508  -0.5221  -0.5078  -0.4885  -0.4803  -0.4719
 -0.4579  -0.4537  -0.4456  -0.4420  -0.4291  -0.4227  -0.4216  -0.4132
 -0.4070  -0.3926  -0.3897  -0.3840  -0.3658  -0.3553  -0.3482  -0.3406
 -0.3375  -0.3361  -0.3330  -0.3054  -0.3006  -0.2936  -0.2877  -0.2855
 -0.2665  -0.2601  -0.2561  -0.2512  -0.2475  -0.2297  -0.2110  -0.1423

 Beta MOs
 -- Occupied --
******** -89.0486 -62.4695 -56.2900 -56.2862 -56.2859 -19.0937 -19.0931
-19.0922 -19.0767 -19.0690 -14.3036 -10.2312 -10.2307 -10.2269 -10.2186
-10.1905 -10.1866 -10.1840 -10.1809 -10.1729 -10.1725 -10.1724 -10.1718
-10.1695 -10.1688  -8.6782  -8.1072  -6.5095  -6.4971  -6.4961  -6.0701
 -6.0699  -6.0689  -2.6204  -2.6170  -2.6163  -2.6065  -2.6064  -1.1109
 -1.0007  -0.9946  -0.9767  -0.9735  -0.9206  -0.8593  -0.8508  -0.7926
 -0.7804  -0.7482  -0.7449  -0.7124  -0.6687  -0.6468  -0.6289  -0.6000
 -0.5739  -0.5571  -0.5489  -0.5211  -0.5065  -0.4875  -0.4782  -0.4700
 -0.4573  -0.4533  -0.4447  -0.4408  -0.4222  -0.4208  -0.4190  -0.4085
 -0.4047  -0.3905  -0.3825  -0.3673  -0.3647  -0.3541  -0.3404  -0.3380
 -0.3367  -0.3352  -0.3268  -0.3034  -0.3003  -0.2927  -0.2865  -0.2807
 -0.2598  -0.2513  -0.2493  -0.2458  -0.2437  -0.2256  -0.2028

          Ground-State Mulliken Net Atomic Charges

     Atom                 Charge (a.u.)    Spin (a.u.)
  --------------------------------------------------------
      1 C                     0.118642       0.020909
      2 C                    -0.567637       0.036697
      3 C                    -0.432794       0.023480
      4 C                    -0.178558       0.013833
      5 C                     0.151707       0.023408
      6 C                     0.106665       0.039140
      7 C                    -0.332598       0.100989
      8 C                    -1.134396       0.099429
      9 C                     0.341935       0.006020
     10 C                     0.896713       0.074705
     11 C                     0.221589      -0.000816
     12 C                    -0.879273       0.088599
     13 C                    -0.226002       0.037561
     14 C                     0.288969       0.061001
     15 O                    -0.455586       0.164162
     16 O                    -0.375981       0.207387
     17 H                     0.175219      -0.000724
     18 H                     0.199640      -0.003043
     19 H                     0.200057      -0.001980
     20 H                     0.171400      -0.002467
     21 Br                   -0.253484       0.005636
     22 N                    -0.458731       0.007422
     23 S                     0.681866      -0.002330
     24 O                    -0.442671       0.003274
     25 O                    -0.356057       0.003771
     26 O                    -0.365996       0.000259
     27 H                     0.253143      -0.003162
     28 H                     0.357980      -0.002187
     29 H                     0.294223      -0.000970
  --------------------------------------------------------
  Sum of atomic charges =    -2.000012

                    Cartesian Multipole Moments
 -----------------------------------------------------------------
    Charge (ESU x 10^10)
                -9.6065
    Dipole Moment (Debye)
         X       9.8925      Y     -51.1527      Z       4.8583
       Tot      52.3265
    Quadrupole Moments (Debye-Ang)
        XX    -176.7964     XY      56.5488     YY    -511.8975
        XZ     -11.6695     YZ      14.0641     ZZ    -190.7389

 Total job time:  79.48s(wall), 602.85s(cpu)
        *  Thank you very much for using Q-Chem.  Have a nice day.  *
