 Gaussian 16, Revision A.03,
 Gaussian 16:  ES64L-G16RevA.03 25-Dec-2016

 ----------------------------------------------------------------------
 #P UB3LYP/6-311++G(d,p) nosym opt freq SCRF=(PCM,Solvent=n,n-DiMethylF
 ormamide)
 ----------------------------------------------------------------------

 -------
 Reduced
 -------
 Symbolic Z-matrix:
 Charge = -2 Multiplicity = 1

 SCF Done:  E(UB3LYP) =  -807.151156124     A.U. after   18 cycles
 SCF Done:  E(UB3LYP) =  -807.153643134     A.U. after   15 cycles
 SCF Done:  E(UB3LYP) =  -807.154044257     A.U. after   14 cycles
 SCF Done:  E(UB3LYP) =  -807.154281754     A.U. after   14 cycles
 SCF Done:  E(UB3LYP) =  -807.154413508     A.U. after   13 cycles
 SCF Done:  E(UB3LYP) =  -807.154443430     A.U. after   14 cycles
 SCF Done:  E(UB3LYP) =  -807.154471939     A.U. after   13 cycles
 SCF Done:  E(UB3LYP) =  -807.154492577     A.U. after   13 cycles
 SCF Done:  E(UB3LYP) =  -807.154497945     A.U. after   13 cycles
 SCF Done:  E(UB3LYP) =  -807.154503573     A.U. after   13 cycles
 SCF Done:  E(UB3LYP) =  -807.154500683     A.U. after   11 cycles
 SCF Done:  E(UB3LYP) =  -807.154453184     A.U. after   14 cycles
 SCF Done:  E(UB3LYP) =  -807.154509499     A.U. after   14 cycles
 SCF Done:  E(UB3LYP) =  -807.154506707     A.U. after   13 cycles
 SCF Done:  E(UB3LYP) =  -807.154511052     A.U. after   13 cycles
 SCF Done:  E(UB3LYP) =  -807.154510787     A.U. after   10 cycles
 SCF Done:  E(UB3LYP) =  -807.154511203     A.U. after   10 cycles
 Optimization completed.
    -- Stationary point found.
 Normal termination of Gaussian 16 at Sat Feb 10 14:27:47 2024.

 ----------------------------------------------------------------------
 #P Geom=AllCheck Guess=TCheck SCRF=Check GenChk UB3LYP/6-311++G(d,p) F
 req
 ----------------------------------------------------------------------

 Structure from the checkpoint file:  "107-an.chk"
 -------
 Reduced
 -------
 Charge = -2 Multiplicity = 1

                          Input orientation:
 ---------------------------------------------------------------------
 Center     Atomic      Atomic             Coordinates (Angstroms)
 Number     Number       Type             X           Y           Z
 ---------------------------------------------------------------------
      1          6           0       -0.521770   -2.094048    1.960746
      2          6           0        0.851976   -2.414833    1.820944
      3          6           0        1.858819   -1.458368    1.619804
      4          6           0        1.544825   -0.062657    1.625678
      5          6           0        0.174658    0.259483    1.799733
      6          6           0       -0.841157   -0.699993    1.925013
      7          8           0       -1.467828   -3.006485    2.143468
      8          8           0        2.497069    0.853246    1.505699
      9          7           0       -2.220515   -0.373696    2.146701
     10          7           0        3.253206   -1.786051    1.525374
     11          6           0       -3.024297    0.364046    1.128618
     12          6           0       -4.497659    0.140706    1.510237
     13          6           0       -2.731120    1.874004    1.178082
     14          6           0       -2.783908   -0.157927   -0.303644
     15          6           0        3.791511   -2.586313    0.386090
     16          6           0        3.474759   -4.082129    0.557556
     17          6           0        5.318130   -2.402260    0.425185
     18          6           0        3.255460   -2.103631   -0.978492
     19          1           0        1.119413   -3.465260    1.882965
     20          1           0       -0.079679    1.314163    1.841065
     21          1           0       -2.653713   -1.289294    2.277163
     22          1           0        3.702867   -0.869907    1.492529
     23          1           0       -4.751197   -0.924255    1.485494
     24          1           0       -5.161929    0.660826    0.814680
     25          1           0       -4.695297    0.514817    2.518970
     26          1           0       -2.834433    2.251523    2.199403
     27          1           0       -3.434377    2.415893    0.537685
     28          1           0       -1.722746    2.099761    0.828727
     29          1           0       -3.055099   -1.214914   -0.382309
     30          1           0       -1.731726   -0.054832   -0.579513
     31          1           0       -3.384010    0.401930   -1.028381
     32          1           0        2.408898   -4.283684    0.442479
     33          1           0        3.786681   -4.430634    1.546270
     34          1           0        4.008169   -4.667793   -0.197892
     35          1           0        5.724991   -2.757494    1.376333
     36          1           0        5.587642   -1.347019    0.311692
     37          1           0        5.797277   -2.960375   -0.383927
     38          1           0        2.164622   -2.160570   -1.005197
     39          1           0        3.650267   -2.719462   -1.793221
     40          1           0        3.547299   -1.066014   -1.165639
 ---------------------------------------------------------------------

 SCF Done:  E(UB3LYP) =  -807.154511203     A.U. after    2 cycles

 Alpha  occ. eigenvalues --  -19.00915 -19.00907 -14.27133 -14.27131 -10.19531
 Alpha  occ. eigenvalues --  -10.19513 -10.15577 -10.15558 -10.14743 -10.14725
 Alpha  occ. eigenvalues --  -10.14328 -10.14304 -10.14296 -10.14292 -10.14200
 Alpha  occ. eigenvalues --  -10.14197 -10.11035 -10.11033  -0.91978  -0.91386
 Alpha  occ. eigenvalues --   -0.87732  -0.87545  -0.78043  -0.76861  -0.73883
 Alpha  occ. eigenvalues --   -0.68297  -0.67717  -0.67420  -0.67403  -0.66428
 Alpha  occ. eigenvalues --   -0.62753  -0.56954  -0.53468  -0.53446  -0.50621
 Alpha  occ. eigenvalues --   -0.46845  -0.45383  -0.45178  -0.43678  -0.43224
 Alpha  occ. eigenvalues --   -0.43176  -0.41830  -0.40759  -0.39795  -0.38943
 Alpha  occ. eigenvalues --   -0.38439  -0.37915  -0.37401  -0.36742  -0.36039
 Alpha  occ. eigenvalues --   -0.35528  -0.35328  -0.35055  -0.34746  -0.34068
 Alpha  occ. eigenvalues --   -0.33295  -0.32827  -0.32338  -0.31386  -0.30976
 Alpha  occ. eigenvalues --   -0.29981  -0.29883  -0.25747  -0.23808  -0.19694
 Alpha  occ. eigenvalues --   -0.19421  -0.19018  -0.16772  -0.10704
 Alpha virt. eigenvalues --   -0.00315   0.00304   0.01465   0.01561   0.02150
 Alpha virt. eigenvalues --    0.02560   0.02742   0.03425   0.03728   0.04044
 Alpha virt. eigenvalues --    0.04088   0.04517   0.04677   0.04931   0.05654

  Beta  occ. eigenvalues --  -19.00915 -19.00907 -14.27133 -14.27131 -10.19531
  Beta  occ. eigenvalues --  -10.19513 -10.15577 -10.15558 -10.14743 -10.14725
  Beta  occ. eigenvalues --  -10.14328 -10.14304 -10.14296 -10.14292 -10.14200
  Beta  occ. eigenvalues --  -10.14197 -10.11035 -10.11033  -0.91978  -0.91386
  Beta  occ. eigenvalues --   -0.87732  -0.87545  -0.78043  -0.76861  -0.73883
  Beta  occ. eigenvalues --   -0.68297  -0.67717  -0.67420  -0.67403  -0.66428
  Beta  occ. eigenvalues --   -0.62753  -0.56954  -0.53468  -0.53446  -0.50621
  Beta  occ. eigenvalues --   -0.46845  -0.45383  -0.45178  -0.43678  -0.43224
  Beta  occ. eigenvalues --   -0.43176  -0.41830  -0.40759  -0.39795  -0.38943
  Beta  occ. eigenvalues --   -0.38439  -0.37915  -0.37401  -0.36742  -0.36039
  Beta  occ. eigenvalues --   -0.35528  -0.35328  -0.35055  -0.34746  -0.34068
  Beta  occ. eigenvalues --   -0.33295  -0.32827  -0.32338  -0.31386  -0.30976
  Beta  occ. eigenvalues --   -0.29981  -0.29883  -0.25747  -0.23808  -0.19694
  Beta  occ. eigenvalues --   -0.19421  -0.19018  -0.16772  -0.10704
  Beta virt. eigenvalues --   -0.00315   0.00304   0.01465   0.01561   0.02150
  Beta virt. eigenvalues --    0.02560   0.02742   0.03425   0.03728   0.04044
  Beta virt. eigenvalues --    0.04088   0.04517   0.04677   0.04931   0.05654

 Mulliken charges and spin densities:
               1          2
     1  C   -0.399966   0.000000
     2  C   -0.082171  -0.000000
     3  C   -0.029561  -0.000000
     4  C   -0.378747   0.000000
     5  C   -0.060011  -0.000000
     6  C   -0.038910  -0.000000
     7  O   -0.742906  -0.000000
     8  O   -0.742271  -0.000000
     9  N    0.044821   0.000000
    10  N    0.051461  -0.000000
    11  C    0.113403  -0.000000
    12  C   -0.496996   0.000000
    13  C   -0.554574   0.000000
    14  C   -0.560117   0.000000
    15  C    0.111197   0.000000
    16  C   -0.561693  -0.000000
    17  C   -0.491945  -0.000000
    18  C   -0.557824   0.000000
    19  H    0.143246  -0.000000
    20  H    0.140523   0.000000
    21  H    0.250255  -0.000000
    22  H    0.248156  -0.000000
    23  H    0.142955  -0.000000
    24  H    0.138574   0.000000
    25  H    0.143960   0.000000
    26  H    0.152991  -0.000000
    27  H    0.135184  -0.000000
    28  H    0.127603   0.000000
    29  H    0.148980  -0.000000
    30  H    0.159320  -0.000000
    31  H    0.149242   0.000000
    32  H    0.130155   0.000000
    33  H    0.151581   0.000000
    34  H    0.135283  -0.000000
    35  H    0.144480   0.000000
    36  H    0.141720  -0.000000
    37  H    0.138783   0.000000
    38  H    0.156276   0.000000
    39  H    0.149012  -0.000000
    40  H    0.148531  -0.000000
 Sum of Mulliken charges =  -2.00000  -0.00000

 Dipole moment (field-independent basis, Debye):
    X=             -5.2354    Y=             10.2879    Z=            -19.7175  Tot=             22.8480
 Quadrupole moment (field-independent basis, Debye-Ang):
   XX=           -159.9851   YY=           -166.1916   ZZ=           -165.8601
   XY=            -19.6477   XZ=             -5.6817   YZ=             25.4167

  Exact polarizability: 383.057 -10.446 321.066 -17.413  -1.872 242.445
 Approx polarizability: 388.420   2.046 344.376 -17.172  -3.966 253.404

                      1                      2                      3
                      A                      A                      A
 Frequencies --     32.4109                40.3156                44.5867
 Red. masses --      3.9081                 2.7483                 2.9754
 Frc consts  --      0.0024                 0.0026                 0.0035
 IR Inten    --     10.8747                 0.1652                 0.6227

                      4                      5                      6
                      A                      A                      A
 Frequencies --     92.8557                99.8949               110.1765
 Red. masses --      4.4662                 3.9189                 4.0535
 Frc consts  --      0.0227                 0.0230                 0.0290
 IR Inten    --     18.0833                10.0554                 0.6011

                      7                      8                      9
                      A                      A                      A
 Frequencies --    153.1758               219.0867               220.8167
 Red. masses --      5.8376                 1.5223                 1.5596
 Frc consts  --      0.0807                 0.0431                 0.0448
 IR Inten    --     24.8179                 1.5083                 0.9234

                     10                     11                     12
                      A                      A                      A
 Frequencies --    230.6132               239.0653               249.4816
 Red. masses --      1.4936                 2.9568                 2.2070
 Frc consts  --      0.0468                 0.0996                 0.0809
 IR Inten    --      0.5877                 0.5788                16.7476

                     13                     14                     15
                      A                      A                      A
 Frequencies --    258.7831               267.4027               274.5696
 Red. masses --      1.5808                 1.1589                 1.5329
 Frc consts  --      0.0624                 0.0488                 0.0681
 IR Inten    --      0.0597                 0.2638                 0.7673

                     16                     17                     18
                      A                      A                      A
 Frequencies --    277.6259               293.2298               300.3080
 Red. masses --      1.5661                 1.6570                 1.5402
 Frc consts  --      0.0711                 0.0839                 0.0818
 IR Inten    --      0.5351                 0.2764                 0.3389

                     19                     20                     21
                      A                      A                      A
 Frequencies --    306.4617               356.4524               360.4668
 Red. masses --      2.2275                 2.4108                 2.5358
 Frc consts  --      0.1233                 0.1805                 0.1941
 IR Inten    --     14.0404                 0.5048                 0.1711

                     22                     23                     24
                      A                      A                      A
 Frequencies --    376.8545               382.7817               412.8425
 Red. masses --      2.9610                 2.4504                 4.2867
 Frc consts  --      0.2478                 0.2115                 0.4305
 IR Inten    --      1.5512                 0.5195                 2.7294

                     25                     26                     27
                      A                      A                      A
 Frequencies --    426.8798               445.2674               453.6764
 Red. masses --      3.1556                 2.5830                 2.5132
 Frc consts  --      0.3388                 0.3017                 0.3048
 IR Inten    --     14.1846                 2.8268                 7.5170

                     28                     29                     30
                      A                      A                      A
 Frequencies --    460.5871               462.6048               491.9375
 Red. masses --      2.6812                 2.9328                 5.7904
 Frc consts  --      0.3351                 0.3698                 0.8256
 IR Inten    --     14.4380                 7.3637                 1.5264

                     31                     32                     33
                      A                      A                      A
 Frequencies --    526.2701               596.0880               646.0127
 Red. masses --      3.5371                 5.0367                 4.1318
 Frc consts  --      0.5772                 1.0544                 1.0160
 IR Inten    --      9.8103                 1.8298                 1.4438

                     34                     35                     36
                      A                      A                      A
 Frequencies --    681.8081               701.3619               742.5286
 Red. masses --      4.3786                 4.6917                 2.7542
 Frc consts  --      1.1993                 1.3598                 0.8947
 IR Inten    --     27.5293                13.1931                64.3498

                     37                     38                     39
                      A                      A                      A
 Frequencies --    764.7822               766.9295               773.9645
 Red. masses --      3.7514                 4.1187                 7.0600
 Frc consts  --      1.2928                 1.4273                 2.4917
 IR Inten    --     55.3967                19.6148                 1.8183

                     40                     41                     42
                      A                      A                      A
 Frequencies --    824.6811               830.1455               845.4877
 Red. masses --      1.9905                 2.3239                 1.5742
 Frc consts  --      0.7976                 0.9436                 0.6630
 IR Inten    --    215.2518                64.0472                14.8742

                     43                     44                     45
                      A                      A                      A
 Frequencies --    868.7041               906.8344               908.6113
 Red. masses --      1.9848                 1.7976                 1.8100
 Frc consts  --      0.8825                 0.8710                 0.8804
 IR Inten    --    198.8767                 1.0699                 1.1726

                     46                     47                     48
                      A                      A                      A
 Frequencies --    913.0604               914.6545               939.1775
 Red. masses --      1.8194                 1.8444                 2.2382
 Frc consts  --      0.8937                 0.9091                 1.1632
 IR Inten    --      4.9793                 1.3258                16.9234

                     49                     50                     51
                      A                      A                      A
 Frequencies --    953.0936               955.1894               962.0327
 Red. masses --      1.2056                 1.2073                 1.4836
 Frc consts  --      0.6452                 0.6490                 0.8090
 IR Inten    --      0.5409                 0.4969                11.5817

                     52                     53                     54
                      A                      A                      A
 Frequencies --    971.5454              1040.9450              1042.0695
 Red. masses --      1.4124                 1.4116                 1.4064
 Frc consts  --      0.7855                 0.9012                 0.8998
 IR Inten    --     31.9655                17.7890                 8.5092

                     55                     56                     57
                      A                      A                      A
 Frequencies --   1048.0643              1050.9241              1134.0638
 Red. masses --      1.4151                 1.4155                 7.3405
 Frc consts  --      0.9158                 0.9211                 5.5623
 IR Inten    --      1.6333                 0.7685                 4.5042

                     58                     59                     60
                      A                      A                      A
 Frequencies --   1142.8265              1195.2412              1204.3135
 Red. masses --      3.8193                 4.6721                 2.4202
 Frc consts  --      2.9390                 3.9325                 2.0682
 IR Inten    --   1106.6279               314.5547                35.7046

                     61                     62                     63
                      A                      A                      A
 Frequencies --   1210.1952              1218.7711              1220.4221
 Red. masses --      1.6980                 2.2629                 2.2808
 Frc consts  --      1.4652                 1.9804                 2.0015
 IR Inten    --      8.8628                38.2291                44.3977

                     64                     65                     66
                      A                      A                      A
 Frequencies --   1239.0158              1240.0228              1257.0018
 Red. masses --      2.8427                 2.8091                 2.1282
 Frc consts  --      2.5712                 2.5450                 1.9812
 IR Inten    --    175.9124                28.0352                 7.0902

                     67                     68                     69
                      A                      A                      A
 Frequencies --   1266.9637              1330.6744              1380.2743
 Red. masses --      3.2707                 8.8357                 1.2456
 Frc consts  --      3.0932                 9.2180                 1.3982
 IR Inten    --    404.6991                 0.4064                22.2600

                     70                     71                     72
                      A                      A                      A
 Frequencies --   1382.8842              1385.4251              1386.2930
 Red. masses --      1.2486                 1.2593                 1.2553
 Frc consts  --      1.4069                 1.4241                 1.4213
 IR Inten    --     27.3246                42.7524                46.2569

                     73                     74                     75
                      A                      A                      A
 Frequencies --   1394.3793              1407.0354              1409.2385
 Red. masses --      5.4137                 1.2408                 1.2402
 Frc consts  --      6.2017                 1.4473                 1.4511
 IR Inten    --    584.1947                17.1009                23.4262

                     76                     77                     78
                      A                      A                      A
 Frequencies --   1449.0959              1469.3060              1470.5359
 Red. masses --      1.9103                 1.0627                 1.0929
 Frc consts  --      2.3635                 1.3518                 1.3924
 IR Inten    --     12.9861                 2.4616                30.1761

                     79                     80                     81
                      A                      A                      A
 Frequencies --   1472.7969              1476.5033              1478.3199
 Red. masses --      1.9025                 1.0711                 1.0552
 Frc consts  --      2.4314                 1.3757                 1.3588
 IR Inten    --    525.3031                19.2697                 1.5653

                     82                     83                     84
                      A                      A                      A
 Frequencies --   1481.7780              1482.3276              1487.1439
 Red. masses --      1.0535                 1.0484                 1.2523
 Frc consts  --      1.3629                 1.3572                 1.6318
 IR Inten    --      0.9525                 2.0191                23.9106

                     85                     86                     87
                      A                      A                      A
 Frequencies --   1490.7308              1492.2733              1496.0428
 Red. masses --      1.1963                 1.0893                 1.0733
 Frc consts  --      1.5663                 1.4292                 1.4153
 IR Inten    --      3.0090                25.5141                29.9118

                     88                     89                     90
                      A                      A                      A
 Frequencies --   1507.4650              1508.9672              1538.7035
 Red. masses --      1.0552                 1.0563                 1.2760
 Frc consts  --      1.4128                 1.4171                 1.7799
 IR Inten    --     20.6744                18.5841               212.6456

                     91                     92                     93
                      A                      A                      A
 Frequencies --   1560.2078              1616.7393              3012.3525
 Red. masses --      2.1624                 4.6777                 1.0349
 Frc consts  --      3.1013                 7.2037                 5.5328
 IR Inten    --      7.2089                 1.1206                53.1342

                     94                     95                     96
                      A                      A                      A
 Frequencies --   3012.5205              3014.9751              3015.5005
 Red. masses --      1.0348                 1.0361                 1.0358
 Frc consts  --      5.5331                 5.5489                 5.5494
 IR Inten    --     51.3292                59.6610                60.1093

                     97                     98                     99
                      A                      A                      A
 Frequencies --   3024.1316              3024.3703              3073.5453
 Red. masses --      1.0376                 1.0376                 1.1013
 Frc consts  --      5.5907                 5.5918                 6.1296
 IR Inten    --     75.5095                35.1862                 4.3917

                    100                    101                    102
                      A                      A                      A
 Frequencies --   3073.8263              3077.0054              3077.3124
 Red. masses --      1.1010                 1.1009                 1.1009
 Frc consts  --      6.1293                 6.1415                 6.1423
 IR Inten    --      2.2566                66.9777                87.6855

                    103                    104                    105
                      A                      A                      A
 Frequencies --   3078.9358              3079.3767              3087.8114
 Red. masses --      1.1011                 1.1011                 1.1014
 Frc consts  --      6.1499                 6.1520                 6.1871
 IR Inten    --     71.8026                47.2039               109.7678

                    106                    107                    108
                      A                      A                      A
 Frequencies --   3088.3620              3092.7470              3093.6043
 Red. masses --      1.1014                 1.1012                 1.1013
 Frc consts  --      6.1892                 6.2062                 6.2100
 IR Inten    --    118.5465                46.0299                42.8092

                    109                    110                    111
                      A                      A                      A
 Frequencies --   3107.0705              3107.7565              3145.2650
 Red. masses --      1.0990                 1.0990                 1.0869
 Frc consts  --      6.2511                 6.2536                 6.3354
 IR Inten    --     74.4047                44.2328               130.4256

                    112                    113                    114
                      A                      A                      A
 Frequencies --   3148.2392              3415.0386              3421.7356
 Red. masses --      1.0876                 1.0724                 1.0721
 Frc consts  --      6.3511                 7.3689                 7.3955
 IR Inten    --      1.5456                96.4878                79.2225

 - Thermochemistry -
 -------------------
 Temperature   298.150 Kelvin.  Pressure   1.00000 Atm.
 Atom     1 has atomic number  6 and mass  12.00000

 Molecular mass:   250.16813 amu.
 Principal axes and moments of inertia in atomic units:
                           1         2         3
     Eigenvalues --  2078.123468755.966829549.08772
           X            0.93121   0.34253   0.12458
           Y           -0.34952   0.93613   0.03870
           Z           -0.10336  -0.07958   0.99145
 This molecule is an asymmetric top.
 Rotational symmetry number  1.
 Warning -- assumption of classical behavior for rotation
           may cause significant error
 Rotational temperatures (Kelvin)      0.04168     0.00989     0.00907
 Rotational constants (GHZ):           0.86845     0.20612     0.18900
 Zero-point vibrational energy     889253.9 (Joules/Mol)
                                  212.53678 (Kcal/Mol)
 Warning -- explicit consideration of  32 degrees of freedom as
           vibrations may cause significant error
 Vibrational temperatures:     46.63    58.01    64.15   133.60   143.73
          (Kelvin)            158.52   220.39   315.22   317.71   331.80
                              343.96   358.95   372.33   384.73   395.04
                              399.44   421.89   432.08   440.93   512.86
                              518.63   542.21   550.74   593.99   614.18
                              640.64   652.74   662.68   665.59   707.79
                              757.19   857.64   929.47   980.97  1009.10
                             1068.33  1100.35  1103.44  1113.56  1186.53
                             1194.39  1216.47  1249.87  1304.73  1307.29
                             1313.69  1315.98  1351.27  1371.29  1374.30
                             1384.15  1397.84  1497.69  1499.31  1507.93
                             1512.05  1631.66  1644.27  1719.69  1732.74
                             1741.20  1753.54  1755.92  1782.67  1784.12
                             1808.55  1822.88  1914.54  1985.91  1989.66
                             1993.32  1994.57  2006.20  2024.41  2027.58
                             2084.93  2114.00  2115.77  2119.03  2124.36
                             2126.97  2131.95  2132.74  2139.67  2144.83
                             2147.05  2152.47  2168.91  2171.07  2213.85
                             2244.79  2326.13  4334.10  4334.35  4337.88
                             4338.63  4351.05  4351.39  4422.15  4422.55
                             4427.12  4427.57  4429.90  4430.54  4442.67
                             4443.46  4449.77  4451.01  4470.38  4471.37
                             4525.33  4529.61  4913.48  4923.11

 Zero-point correction=                           0.338699 (Hartree/Particle)
 Thermal correction to Energy=                    0.358057
 Thermal correction to Enthalpy=                  0.359001
 Thermal correction to Gibbs Free Energy=         0.292139
 Sum of electronic and zero-point Energies=           -806.815812
 Sum of electronic and thermal Energies=              -806.796454
 Sum of electronic and thermal Enthalpies=            -806.795510
 Sum of electronic and thermal Free Energies=         -806.862372

                     E (Thermal)             CV                S
                      KCal/Mol        Cal/Mol-Kelvin    Cal/Mol-Kelvin
 Total                  224.684             76.037            140.724
 Electronic               0.000              0.000              0.000
 Translational            0.889              2.981             42.451
 Rotational               0.889              2.981             33.518
 Vibrational            222.907             70.076             64.755
 Vibration     1          0.594              1.983              5.676
 Vibration     2          0.594              1.981              5.244
 Vibration     3          0.595              1.980              5.044
 Vibration     4          0.602              1.954              3.599
 Vibration     5          0.604              1.949              3.456
 Vibration     6          0.606              1.941              3.266
 Vibration     7          0.619              1.899              2.632
 Vibration     8          0.647              1.812              1.967
 Vibration     9          0.648              1.809              1.952
 Vibration    10          0.652              1.794              1.874
 Vibration    11          0.657              1.781              1.810
 Vibration    12          0.662              1.764              1.734
 Vibration    13          0.668              1.748              1.670
 Vibration    14          0.673              1.733              1.613
 Vibration    15          0.677              1.720              1.567
 Vibration    16          0.679              1.715              1.548
 Vibration    17          0.688              1.686              1.455
 Vibration    18          0.693              1.673              1.415
 Vibration    19          0.697              1.661              1.381
 Vibration    20          0.732              1.562              1.138
 Vibration    21          0.735              1.554              1.120
 Vibration    22          0.747              1.519              1.052
 Vibration    23          0.752              1.507              1.028
 Vibration    24          0.777              1.442              0.917
 Vibration    25          0.789              1.412              0.869
 Vibration    26          0.805              1.371              0.810
 Vibration    27          0.812              1.353              0.785
 Vibration    28          0.818              1.337              0.764
 Vibration    29          0.820              1.333              0.759
 Vibration    30          0.848              1.268              0.679
 Vibration    31          0.881              1.192              0.596
 Vibration    32          0.954              1.040              0.456

 Optimization completed.
    -- Stationary point found.
 Normal termination of Gaussian 16 at Sat Feb 10 15:40:20 2024.
