 Q-Chem 5.4, Q-Chem, Inc., Pleasanton, CA (2021)
 Q-Chem 5.4.0 for Intel X86 EM64T Linux

User input:
--------------------------------------------------------------
$molecule
0 1
C                 -3.9040430000     -4.0237060000     -1.3865490000
C                 -2.6318260000     -4.7750140000     -1.3484890000
C                 -1.4714330000     -4.1030790000     -1.5303950000
C                 -1.4852550000     -2.6108990000     -1.7932650000
C                 -2.7560060000     -1.8631030000     -1.8420690000
C                 -3.8975450000     -2.5529120000     -1.6399690000
O                 -4.9947550000     -4.5603150000     -1.2174580000
O                 -0.4233420000     -2.0269240000     -1.9655450000
C                 -0.1096680000     -4.7432590000     -1.5310940000
C                  0.3368110000     -5.1927230000     -2.9398240000
C                  1.7397230000     -5.8087300000     -2.9438920000
C                  2.1990750000     -6.2609980000     -4.3346550000
C                  3.6022370000     -6.8782900000     -4.3451860000
C                  4.0634380000     -7.3289280000     -5.7358410000
C                  5.4666580000     -7.9458190000     -5.7481320000
C                  5.9277680000     -8.3961650000     -7.1389710000
C                  7.3306300000     -9.0133770000     -7.1522500000
C                  7.7926400000     -9.4637070000     -8.5428330000
C                 -2.7073130000     -0.3878590000     -2.1033280000
C                 -2.7695920000     -6.2519780000     -1.1046790000
O                 -5.1174510000     -1.9903680000     -1.6516410000
H                 -0.0967120000     -5.6007720000     -0.8542940000
H                  0.6127710000     -4.0161270000     -1.1551960000
H                  0.3150500000     -4.3279530000     -3.6109240000
H                 -0.3850190000     -5.9165200000     -3.3366520000
H                  1.7635520000     -6.6655670000     -2.2578040000
H                  2.4541950000     -5.0779460000     -2.5451820000
H                  2.1760030000     -5.4030990000     -5.0186240000
H                  1.4810180000     -6.9884630000     -4.7350120000
H                  3.6254170000     -7.7363070000     -3.6607540000
H                  4.3197770000     -6.1509050000     -3.9441770000
H                  4.0398270000     -6.4707350000     -6.4198740000
H                  3.3453870000     -8.0559990000     -6.1370290000
H                  5.4904530000     -8.8040200000     -5.0639510000
H                  6.1846420000     -7.2187170000     -5.3470840000
H                  5.9041580000     -7.5378290000     -7.8229600000
H                  5.2094520000     -9.1229820000     -7.5402050000
H                  7.3552050000     -9.8723600000     -6.4688120000
H                  8.0498810000     -8.2871320000     -6.7513580000
C                  9.1950520000    -10.0790950000     -8.5459800000
H                  7.7691020000     -8.6056600000     -9.2257360000
H                 -2.1442930000      0.1242620000     -1.3177370000
H                 -3.7114270000      0.0313980000     -2.1499340000
H                 -2.1873120000     -0.1811920000     -3.0425190000
H                 -3.2517920000     -6.4379080000     -0.1405720000
H                 -1.8099490000     -6.7637130000     -1.1221740000
H                 -3.4181790000     -6.7017030000     -1.8614300000
H                  7.0746600000    -10.1897660000     -8.9435150000
H                  9.9412810000     -9.3648680000     -8.1835660000
H                  9.4938340000    -10.3892970000     -9.5512230000
H                  9.2415510000    -10.9609190000     -7.8989990000
H                 -5.7492140000     -2.7147080000     -1.4832110000
$end
$rem
MAX_SCF_CYCLES=200
BASIS  =  6-311++G(d,p)
GUI  =  2
JOB_TYPE  =  SP
METHOD  =  B3LYP
THRESH = 14
SCF_ALGORITHM = DIIS_GDM
SOLVENT_METHOD = PCM
$end
$pcm
theory = CPCM
$end
$solvent
dielectric 37.219
opticaldielectric 1.43
$end

--------------------------------------------------------------

             Standard Nuclear Orientation (Angstroms)
    I     Atom           X                Y                Z
 ----------------------------------------------------------------
    1      C      -3.9040430000    -4.0237060000    -1.3865490000
    2      C      -2.6318260000    -4.7750140000    -1.3484890000
    3      C      -1.4714330000    -4.1030790000    -1.5303950000
    4      C      -1.4852550000    -2.6108990000    -1.7932650000
    5      C      -2.7560060000    -1.8631030000    -1.8420690000
    6      C      -3.8975450000    -2.5529120000    -1.6399690000
    7      O      -4.9947550000    -4.5603150000    -1.2174580000
    8      O      -0.4233420000    -2.0269240000    -1.9655450000
    9      C      -0.1096680000    -4.7432590000    -1.5310940000
   10      C       0.3368110000    -5.1927230000    -2.9398240000
   11      C       1.7397230000    -5.8087300000    -2.9438920000
   12      C       2.1990750000    -6.2609980000    -4.3346550000
   13      C       3.6022370000    -6.8782900000    -4.3451860000
   14      C       4.0634380000    -7.3289280000    -5.7358410000
   15      C       5.4666580000    -7.9458190000    -5.7481320000
   16      C       5.9277680000    -8.3961650000    -7.1389710000
   17      C       7.3306300000    -9.0133770000    -7.1522500000
   18      C       7.7926400000    -9.4637070000    -8.5428330000
   19      C      -2.7073130000    -0.3878590000    -2.1033280000
   20      C      -2.7695920000    -6.2519780000    -1.1046790000
   21      O      -5.1174510000    -1.9903680000    -1.6516410000
   22      H      -0.0967120000    -5.6007720000    -0.8542940000
   23      H       0.6127710000    -4.0161270000    -1.1551960000
   24      H       0.3150500000    -4.3279530000    -3.6109240000
   25      H      -0.3850190000    -5.9165200000    -3.3366520000
   26      H       1.7635520000    -6.6655670000    -2.2578040000
   27      H       2.4541950000    -5.0779460000    -2.5451820000
   28      H       2.1760030000    -5.4030990000    -5.0186240000
   29      H       1.4810180000    -6.9884630000    -4.7350120000
   30      H       3.6254170000    -7.7363070000    -3.6607540000
   31      H       4.3197770000    -6.1509050000    -3.9441770000
   32      H       4.0398270000    -6.4707350000    -6.4198740000
   33      H       3.3453870000    -8.0559990000    -6.1370290000
   34      H       5.4904530000    -8.8040200000    -5.0639510000
   35      H       6.1846420000    -7.2187170000    -5.3470840000
   36      H       5.9041580000    -7.5378290000    -7.8229600000
   37      H       5.2094520000    -9.1229820000    -7.5402050000
   38      H       7.3552050000    -9.8723600000    -6.4688120000
   39      H       8.0498810000    -8.2871320000    -6.7513580000
   40      C       9.1950520000   -10.0790950000    -8.5459800000
   41      H       7.7691020000    -8.6056600000    -9.2257360000
   42      H      -2.1442930000     0.1242620000    -1.3177370000
   43      H      -3.7114270000     0.0313980000    -2.1499340000
   44      H      -2.1873120000    -0.1811920000    -3.0425190000
   45      H      -3.2517920000    -6.4379080000    -0.1405720000
   46      H      -1.8099490000    -6.7637130000    -1.1221740000
   47      H      -3.4181790000    -6.7017030000    -1.8614300000
   48      H       7.0746600000   -10.1897660000    -8.9435150000
   49      H       9.9412810000    -9.3648680000    -8.1835660000
   50      H       9.4938340000   -10.3892970000    -9.5512230000
   51      H       9.2415510000   -10.9609190000    -7.8989990000
   52      H      -5.7492140000    -2.7147080000    -1.4832110000
 ----------------------------------------------------------------

   15    -968.0685292878      8.84e-06  Convergence criterion met
 Total energy in the final basis set =     -968.0685292878

                    Orbital Energies (a.u.)
 --------------------------------------------------------------

 Alpha MOs
 -- Occupied --
-19.1756 -19.1493 -19.1320 -10.2890 -10.2786 -10.2624 -10.2118 -10.2101
-10.2001 -10.1737 -10.1723 -10.1709 -10.1668 -10.1597 -10.1583 -10.1575
-10.1564 -10.1560 -10.1559 -10.1557 -10.1556 -10.1520  -1.1060  -1.0655
 -1.0643  -0.8652  -0.8215  -0.8092  -0.7971  -0.7783  -0.7543  -0.7332
 -0.7258  -0.6996  -0.6714  -0.6630  -0.6364  -0.6113  -0.5954  -0.5796
 -0.5766  -0.5706  -0.5682  -0.5602  -0.5293  -0.4835  -0.4819  -0.4739
 -0.4726  -0.4628  -0.4566  -0.4439  -0.4352  -0.4338  -0.4302  -0.4243
 -0.4223  -0.4206  -0.4175  -0.4060  -0.3994  -0.3984  -0.3948  -0.3917
 -0.3875  -0.3845  -0.3791  -0.3756  -0.3666  -0.3539  -0.3465  -0.3394
 -0.3345  -0.3307  -0.3252  -0.3215  -0.3197  -0.3170  -0.3162  -0.3019
 -0.2987  -0.2854  -0.2764  -0.2515

          Ground-State Mulliken Net Atomic Charges

     Atom                 Charge (a.u.)
  ----------------------------------------
      1 C                    -0.465138
      2 C                     0.945446
      3 C                     0.794740
      4 C                    -0.618218
      5 C                     1.022112
      6 C                    -1.095157
      7 O                    -0.321736
      8 O                    -0.289363
      9 C                    -0.429346
     10 C                    -0.924434
     11 C                    -0.380921
     12 C                    -0.049210
     13 C                     0.024137
     14 C                     0.049757
     15 C                    -0.043910
     16 C                    -0.303598
     17 C                    -0.487974
     18 C                    -0.297503
     19 C                    -0.409822
     20 C                    -0.580927
     21 O                    -0.257525
     22 H                     0.217526
     23 H                     0.227838
     24 H                     0.202841
     25 H                     0.154845
     26 H                     0.136576
     27 H                     0.127730
     28 H                     0.131313
     29 H                     0.136210
     30 H                     0.137353
     31 H                     0.138052
     32 H                     0.134828
     33 H                     0.134561
     34 H                     0.133605
     35 H                     0.133654
     36 H                     0.132145
     37 H                     0.131551
     38 H                     0.128835
     39 H                     0.128530
     40 C                    -0.711673
     41 H                     0.135401
     42 H                     0.192599
     43 H                     0.197494
     44 H                     0.189842
     45 H                     0.202637
     46 H                     0.153671
     47 H                     0.195322
     48 H                     0.135159
     49 H                     0.144711
     50 H                     0.151956
     51 H                     0.144713
     52 H                     0.318763
  ----------------------------------------
  Sum of atomic charges =     0.000000

                    Cartesian Multipole Moments
 -----------------------------------------------------------------
    Charge (ESU x 10^10)
                -0.0000
    Dipole Moment (Debye)
         X       0.1512      Y      -2.6512      Z       0.1590
       Tot       2.6602
    Quadrupole Moments (Debye-Ang)
        XX    -149.2195     XY      -1.1375     YY    -117.2502
        XZ       0.6933     YZ       4.0917     ZZ    -138.8822

 Total job time:  598.57s(wall), 2551.31s(cpu)
        *  Thank you very much for using Q-Chem.  Have a nice day.  *
