 Q-Chem 5.4, Q-Chem, Inc., Pleasanton, CA (2021)
 Q-Chem 5.4.0 for Intel X86 EM64T Linux

User input:
--------------------------------------------------------------
$molecule
-1 2
C                  4.2457350000     -0.0072970000     -0.1586980000
S                  3.0293190000     -1.3583070000     -0.3064560000
C                  1.4796860000     -0.4843410000     -0.1286770000
C                  1.3604550000      0.8779040000      0.0680930000
C                  0.0941270000      1.5441030000      0.2064850000
O                  0.0040640000      2.7876840000      0.3856630000
C                 -1.0995050000      0.6816870000      0.1260630000
C                 -2.3823860000      1.2465110000      0.2504940000
C                 -3.5189900000      0.4599410000      0.1785960000
C                 -3.3980590000     -0.9294010000     -0.0221880000
C                 -2.1461210000     -1.5040210000     -0.1468590000
C                 -0.9767860000     -0.7191160000     -0.0763290000
C                  0.3349100000     -1.3658390000     -0.2133760000
O                  0.4631420000     -2.6057910000     -0.3931010000
H                  4.1259870000      0.7352760000     -0.9503080000
H                  5.2251440000     -0.4789950000     -0.2606060000
H                  4.1893110000      0.4855000000      0.8141230000
H                  2.2277870000      1.5240550000      0.1292120000
H                 -2.4422260000      2.3181780000      0.4041810000
H                 -4.5021830000      0.9110090000      0.2764900000
H                 -4.2887060000     -1.5486730000     -0.0789930000
H                 -2.0247060000     -2.5700690000     -0.3019450000
$end
$rem
MAX_SCF_CYCLES=200
BASIS  =  6-311++G(d,p)
GUI  =  2
JOB_TYPE  =  SP
METHOD  =  B3LYP
SOLVENT_METHOD = COSMO
$end
$solvent
dielectric 37.219
opticaldielectric 1.43
$end

--------------------------------------------------------------

             Standard Nuclear Orientation (Angstroms)
    I     Atom           X                Y                Z
 ----------------------------------------------------------------
    1      C       4.0068345845    -0.7439297329     0.0007933531
    2      S       2.9961025840     0.7743417681    -0.0001033975
    3      C       1.3343101050     0.1146220431    -0.0002379029
    4      C       1.0196969047    -1.2306156442    -0.0001825929
    5      C      -0.3313597306    -1.7217429442    -0.0001953625
    6      O      -0.5999645891    -2.9524180477    -0.0003461190
    7      C      -1.3899211399    -0.6948865059    -0.0001286922
    8      C      -2.7427520776    -1.0823672211     0.0000567115
    9      C      -3.7557229051    -0.1391703356     0.0003358709
   10      C      -3.4355106157     1.2329352725     0.0004015563
   11      C      -2.1119362890     1.6344706968     0.0001503064
   12      C      -1.0662880988     0.6884186571    -0.0001375466
   13      C       0.3269120571     1.1537918581    -0.0002953351
   14      O       0.6328059968     2.3755342073    -0.0004124008
   15      H       3.8295447197    -1.3492145111     0.8921963355
   16      H       5.0455489204    -0.4074810789     0.0018250943
   17      H       3.8313559662    -1.3492511327    -0.8909501675
   18      H       1.7860753278    -1.9962366713    -0.0001568178
   19      H      -2.9566058984    -2.1453522732     0.0000272601
   20      H      -4.7951461308    -0.4543105825     0.0005194538
   21      H      -4.2288552579     1.9749466615     0.0006732301
   22      H      -1.8378670206     2.6833451594     0.0002259328
 ----------------------------------------------------------------

   11    -972.8744314569      6.05e-06  Convergence criterion met
 Total energy in the final basis set =     -972.8744314569
    5    -972.9616469156      5.64e-06  Convergence criterion met
 Total energy in the final basis set =     -972.9616469156

                    Orbital Energies (a.u.)
 --------------------------------------------------------------

 Alpha MOs
 -- Occupied --
-88.8512 -19.0849 -19.0809 -10.2298 -10.2279 -10.2016 -10.1883 -10.1772
-10.1754 -10.1735 -10.1729 -10.1712 -10.1710 -10.1641  -7.9367  -5.9004
 -5.8965  -5.8915  -1.0110  -1.0050  -0.8610  -0.8265  -0.7778  -0.7523
 -0.7340  -0.6886  -0.6459  -0.6186  -0.5892  -0.5591  -0.5116  -0.4987
 -0.4721  -0.4574  -0.4316  -0.4305  -0.4273  -0.4216  -0.4178  -0.4074
 -0.3950  -0.3855  -0.3797  -0.3570  -0.3499  -0.3417  -0.3274  -0.3013
 -0.2640  -0.2591  -0.2537  -0.2440  -0.2251  -0.1558

 Beta MOs
 -- Occupied --
-88.8511 -19.0788 -19.0752 -10.2277 -10.2264 -10.1999 -10.1884 -10.1769
-10.1747 -10.1732 -10.1724 -10.1711 -10.1710 -10.1630  -7.9366  -5.9004
 -5.8965  -5.8909  -1.0002  -0.9950  -0.8587  -0.8229  -0.7754  -0.7504
 -0.7323  -0.6813  -0.6427  -0.6167  -0.5867  -0.5563  -0.5093  -0.4958
 -0.4693  -0.4565  -0.4309  -0.4261  -0.4259  -0.4167  -0.4065  -0.4045
 -0.3926  -0.3787  -0.3606  -0.3493  -0.3484  -0.3409  -0.3260  -0.2843
 -0.2529  -0.2507  -0.2481  -0.2388  -0.2167

          Ground-State Mulliken Net Atomic Charges

     Atom                 Charge (a.u.)    Spin (a.u.)
  --------------------------------------------------------
      1 C                    -0.522916       0.001593
      2 S                    -0.610895       0.032587
      3 C                     0.943209       0.103618
      4 C                     0.520556       0.077173
      5 C                    -0.433477       0.091588
      6 O                    -0.522805       0.199317
      7 C                     0.398191       0.049574
      8 C                     0.206611       0.018375
      9 C                    -0.409410       0.040569
     10 C                    -0.446095       0.012768
     11 C                     0.309104       0.050202
     12 C                    -0.028224      -0.014547
     13 C                    -1.528191       0.128445
     14 O                    -0.457690       0.224937
     15 H                     0.199085       0.000289
     16 H                     0.211741      -0.000234
     17 H                     0.199213       0.000294
     18 H                     0.207791      -0.007699
     19 H                     0.174127      -0.001538
     20 H                     0.206077      -0.002931
     21 H                     0.202244      -0.001353
     22 H                     0.181754      -0.003029
  --------------------------------------------------------
  Sum of atomic charges =    -1.000000

                    Cartesian Multipole Moments
 -----------------------------------------------------------------
    Charge (ESU x 10^10)
                -4.8032
    Dipole Moment (Debye)
         X       0.0469      Y      -0.1088      Z       0.0042
       Tot       0.1186
    Quadrupole Moments (Debye-Ang)
        XX     -82.7239     XY     -16.3715     YY    -128.9185
        XZ       0.0001     YZ      -0.0014     ZZ     -95.6372

 Total job time:  52.75s(wall), 390.78s(cpu)
        *  Thank you very much for using Q-Chem.  Have a nice day.  *
