 Gaussian 16, Revision A.03,
 Gaussian 16:  ES64L-G16RevA.03 25-Dec-2016

 ----------------------------------------------------------------
 #P UB3LYP/6-311++G(d,p) SCRF=(PCM,Solvent=n,n-DiMethylFormamide)
 ----------------------------------------------------------------

 ------------------
 Quinone PCM in DMF
 ------------------
 Symbolic Z-matrix:
 Charge =  0 Multiplicity = 1

                         Standard orientation:
 ---------------------------------------------------------------------
 Center     Atomic      Atomic             Coordinates (Angstroms)
 Number     Number       Type             X           Y           Z
 ---------------------------------------------------------------------
      1          6           0        0.489008   -0.911611   -0.455468
      2          6           0       -0.966469   -1.107307   -0.269185
      3          6           0       -1.856273   -0.120284   -0.054096
      4          6           0       -1.307192    1.281952    0.033961
      5          6           0        0.150317    1.480314   -0.084065
      6          6           0        1.029868    0.481473   -0.309582
      7          8           0        1.198503   -1.864575   -0.730951
      8          8           0       -2.025089    2.254481    0.221387
      9         16           0        2.725230    0.868865   -0.621434
     10          6           0        3.733527   -0.461380    0.217275
     11          6           0        5.189242   -0.157625   -0.141503
     12          6           0        3.495476   -0.485681    1.724443
     13          6           0       -3.360358   -0.357826    0.101458
     14          6           0       -3.709282   -1.853115   -0.015008
     15          6           0       -4.124726    0.403315   -1.011193
     16          6           0       -3.825565    0.138280    1.493930
     17          1           0       -1.263605   -2.145253   -0.346958
     18          1           0        0.474811    2.509118    0.024218
     19          1           0        3.426896   -1.402783   -0.232108
     20          1           0        5.349763   -0.169788   -1.221770
     21          1           0        5.836282   -0.918514    0.304148
     22          1           0        5.503329    0.816792    0.244290
     23          1           0        2.453460   -0.702272    1.968588
     24          1           0        3.763317    0.470046    2.183116
     25          1           0        4.111280   -1.269036    2.179167
     26          1           0       -3.223538   -2.450262    0.761832
     27          1           0       -3.434265   -2.264582   -0.990167
     28          1           0       -4.788464   -1.978312    0.101580
     29          1           0       -3.807874    0.065545   -2.002372
     30          1           0       -3.968920    1.478617   -0.941849
     31          1           0       -5.195780    0.202306   -0.916392
     32          1           0       -3.294988   -0.388589    2.292678
     33          1           0       -4.893744   -0.065525    1.612076
     34          1           0       -3.664394    1.208368    1.613580
 ---------------------------------------------------------------------

 SCF Done:  E(UB3LYP) =  -1055.05926162     A.U. after   16 cycles

 The electronic state is 1-A.
 Alpha  occ. eigenvalues --  -88.86533 -19.14482 -19.13932 -10.29349 -10.28707
 Alpha  occ. eigenvalues --  -10.24279 -10.21983 -10.21545 -10.20809 -10.20505
 Alpha  occ. eigenvalues --  -10.20413 -10.17093 -10.16887 -10.16318 -10.16115
 Alpha  occ. eigenvalues --  -10.16109  -7.95153  -5.91541  -5.91127  -5.90575
 Alpha  occ. eigenvalues --   -1.07747  -1.07085  -0.87595  -0.84710  -0.82005
 Alpha  occ. eigenvalues --   -0.78346  -0.72924  -0.69991  -0.69812  -0.69099
 Alpha  occ. eigenvalues --   -0.69065  -0.63356  -0.61294  -0.57738  -0.55483
 Alpha  occ. eigenvalues --   -0.52920  -0.49970  -0.48768  -0.47590  -0.46445
 Alpha  occ. eigenvalues --   -0.46009  -0.44871  -0.44623  -0.44359  -0.44069
 Alpha  occ. eigenvalues --   -0.43100  -0.42078  -0.40850  -0.39876  -0.38999
 Alpha  occ. eigenvalues --   -0.38593  -0.37960  -0.37086  -0.36304  -0.35976
 Alpha  occ. eigenvalues --   -0.35812  -0.34583  -0.34302  -0.34044  -0.31218
 Alpha  occ. eigenvalues --   -0.29704  -0.28804  -0.27609  -0.24479
 Alpha virt. eigenvalues --   -0.13624  -0.03432  -0.01252  -0.00811  -0.00178
 Alpha virt. eigenvalues --    0.00798   0.01278   0.01611   0.02078   0.02388
 Alpha virt. eigenvalues --    0.02501   0.03166   0.03451   0.03743   0.04230

  Beta  occ. eigenvalues --  -88.86533 -19.14482 -19.13932 -10.29349 -10.28707
  Beta  occ. eigenvalues --  -10.24279 -10.21983 -10.21545 -10.20809 -10.20505
  Beta  occ. eigenvalues --  -10.20413 -10.17093 -10.16887 -10.16318 -10.16115
  Beta  occ. eigenvalues --  -10.16109  -7.95153  -5.91541  -5.91127  -5.90575
  Beta  occ. eigenvalues --   -1.07747  -1.07085  -0.87595  -0.84710  -0.82005
  Beta  occ. eigenvalues --   -0.78346  -0.72924  -0.69991  -0.69812  -0.69099
  Beta  occ. eigenvalues --   -0.69065  -0.63356  -0.61294  -0.57738  -0.55483
  Beta  occ. eigenvalues --   -0.52920  -0.49970  -0.48768  -0.47590  -0.46445
  Beta  occ. eigenvalues --   -0.46009  -0.44871  -0.44623  -0.44359  -0.44069
  Beta  occ. eigenvalues --   -0.43100  -0.42078  -0.40850  -0.39876  -0.38999
  Beta  occ. eigenvalues --   -0.38593  -0.37960  -0.37086  -0.36304  -0.35976
  Beta  occ. eigenvalues --   -0.35812  -0.34583  -0.34302  -0.34044  -0.31218
  Beta  occ. eigenvalues --   -0.29704  -0.28804  -0.27609  -0.24479
  Beta virt. eigenvalues --   -0.13624  -0.03432  -0.01252  -0.00811  -0.00178
  Beta virt. eigenvalues --    0.00798   0.01278   0.01611   0.02078   0.02388
  Beta virt. eigenvalues --    0.02501   0.03166   0.03451   0.03743   0.04230

 Mulliken charges and spin densities:
               1          2
     1  C   -0.654340   0.000000
     2  C   -0.482924  -0.000000
     3  C    1.178839   0.000000
     4  C   -0.880566  -0.000000
     5  C   -0.525772  -0.000000
     6  C    1.726218  -0.000000
     7  O   -0.239575   0.000000
     8  O   -0.245850   0.000000
     9  S   -0.593529   0.000000
    10  C    0.235957   0.000000
    11  C   -0.660625  -0.000000
    12  C   -0.689412  -0.000000
    13  C    0.536204   0.000000
    14  C   -0.505923  -0.000000
    15  C   -0.701986   0.000000
    16  C   -0.701106  -0.000000
    17  H    0.251193   0.000000
    18  H    0.256969   0.000000
    19  H    0.270554  -0.000000
    20  H    0.167778   0.000000
    21  H    0.159624  -0.000000
    22  H    0.159085   0.000000
    23  H    0.147814   0.000000
    24  H    0.183795  -0.000000
    25  H    0.147869   0.000000
    26  H    0.143362   0.000000
    27  H    0.143612   0.000000
    28  H    0.183330   0.000000
    29  H    0.148545   0.000000
    30  H    0.177925   0.000000
    31  H    0.169258  -0.000000
    32  H    0.149789  -0.000000
    33  H    0.167417   0.000000
    34  H    0.176470   0.000000
 Sum of Mulliken charges =  -0.00000  -0.00000

 Dipole moment (field-independent basis, Debye):
    X=              0.2325    Y=             -2.0351    Z=              1.4890  Tot=              2.5324
 Quadrupole moment (field-independent basis, Debye-Ang):
   XX=            -93.1794   YY=           -115.8056   ZZ=           -106.6599
   XY=              7.5371   XZ=              5.4588   YZ=             -2.9122

 Normal termination of Gaussian 16 at Wed Jan 24 22:52:30 2024.
