 Gaussian 16, Revision A.03,
 Gaussian 16:  ES64L-G16RevA.03 25-Dec-2016

 --------------------------------------
 #P UB3LYP/6-311++G(d,p) nosym opt freq
 --------------------------------------

 --------
 Oxidized
 --------
 Symbolic Z-matrix:
 Charge =  0 Multiplicity = 1

 SCF Done:  E(UB3LYP) =  -1055.05174087     A.U. after   19 cycles
 Optimization completed.
    -- Stationary point found.
 Normal termination of Gaussian 16 at Wed Jan 10 16:57:57 2024.

 ----------------------------------------------------------------------
 #P Geom=AllCheck Guess=TCheck SCRF=Check GenChk UB3LYP/6-311++G(d,p) F
 req
 ----------------------------------------------------------------------

 Structure from the checkpoint file:  "103.chk"
 --------
 Oxidized
 --------
 Charge =  0 Multiplicity = 1

                          Input orientation:
 ---------------------------------------------------------------------
 Center     Atomic      Atomic             Coordinates (Angstroms)
 Number     Number       Type             X           Y           Z
 ---------------------------------------------------------------------
      1          6           0       -0.216239    1.710661    4.890223
      2          6           0        1.027519    1.126340    4.339726
      3          6           0        1.432954    1.239588    3.061044
      4          6           0        0.522704    1.994007    2.124130
      5          6           0       -0.751332    2.523145    2.648014
      6          6           0       -1.140271    2.410346    3.935707
      7          8           0       -0.450179    1.623945    6.084027
      8          8           0        0.794204    2.162137    0.943309
      9         16           0       -2.595647    3.250124    4.481813
     10          6           0       -3.435222    2.111957    5.702197
     11          6           0       -4.639676    2.894522    6.228484
     12          6           0       -3.834515    0.787488    5.057869
     13          6           0        2.743287    0.648892    2.534736
     14          6           0        3.517644   -0.082999    3.646450
     15          6           0        3.643784    1.785777    1.988675
     16          6           0        2.440360   -0.370467    1.407502
     17          1           0        1.611492    0.603257    5.086070
     18          1           0       -1.368880    3.022388    1.909875
     19          1           0       -2.719253    1.945356    6.503346
     20          1           0       -4.336321    3.826711    6.710036
     21          1           0       -5.167101    2.287926    6.970160
     22          1           0       -5.345621    3.132459    5.427233
     23          1           0       -2.967439    0.238320    4.685163
     24          1           0       -4.524636    0.944705    4.224472
     25          1           0       -4.332132    0.154955    5.800778
     26          1           0        2.949188   -0.920609    4.060310
     27          1           0        3.792037    0.587216    4.465836
     28          1           0        4.442958   -0.488294    3.229998
     29          1           0        3.867464    2.515828    2.772201
     30          1           0        3.175387    2.302520    1.152649
     31          1           0        4.592395    1.362500    1.645858
     32          1           0        1.804132   -1.180937    1.775541
     33          1           0        3.377772   -0.813982    1.059573
     34          1           0        1.948324    0.102884    0.559433
 ---------------------------------------------------------------------

 SCF Done:  E(UB3LYP) =  -1055.05174087     A.U. after    1 cycles

 Alpha  occ. eigenvalues --  -88.86347 -19.14071 -19.13467 -10.29004 -10.28339
 Alpha  occ. eigenvalues --  -10.24141 -10.22120 -10.21734 -10.20919 -10.20708
 Alpha  occ. eigenvalues --  -10.20590 -10.17693 -10.17482 -10.17130 -10.16510
 Alpha  occ. eigenvalues --  -10.16469  -7.94961  -5.91354  -5.90940  -5.90373
 Alpha  occ. eigenvalues --   -1.07303  -1.06596  -0.87624  -0.84905  -0.82287
 Alpha  occ. eigenvalues --   -0.78595  -0.72895  -0.70450  -0.70280  -0.69485
 Alpha  occ. eigenvalues --   -0.69294  -0.63375  -0.61412  -0.58000  -0.55563
 Alpha  occ. eigenvalues --   -0.52816  -0.49925  -0.48716  -0.47679  -0.46677
 Alpha  occ. eigenvalues --   -0.46052  -0.45056  -0.44643  -0.44495  -0.44321
 Alpha  occ. eigenvalues --   -0.43204  -0.42029  -0.40910  -0.40436  -0.39345
 Alpha  occ. eigenvalues --   -0.39239  -0.38218  -0.37522  -0.36621  -0.36385
 Alpha  occ. eigenvalues --   -0.36211  -0.34995  -0.34423  -0.34277  -0.31026
 Alpha  occ. eigenvalues --   -0.29821  -0.28459  -0.27249  -0.24224
 Alpha virt. eigenvalues --   -0.13384  -0.03533  -0.01362  -0.01054  -0.00670
 Alpha virt. eigenvalues --    0.00662   0.01020   0.01381   0.01815   0.01995
 Alpha virt. eigenvalues --    0.02172   0.02969   0.03416   0.03574   0.04033

  Beta  occ. eigenvalues --  -88.86347 -19.14071 -19.13467 -10.29004 -10.28339
  Beta  occ. eigenvalues --  -10.24141 -10.22120 -10.21734 -10.20919 -10.20708
  Beta  occ. eigenvalues --  -10.20590 -10.17693 -10.17482 -10.17130 -10.16510
  Beta  occ. eigenvalues --  -10.16469  -7.94961  -5.91354  -5.90940  -5.90373
  Beta  occ. eigenvalues --   -1.07303  -1.06596  -0.87624  -0.84905  -0.82287
  Beta  occ. eigenvalues --   -0.78595  -0.72895  -0.70450  -0.70280  -0.69485
  Beta  occ. eigenvalues --   -0.69294  -0.63375  -0.61412  -0.58000  -0.55563
  Beta  occ. eigenvalues --   -0.52816  -0.49925  -0.48716  -0.47679  -0.46677
  Beta  occ. eigenvalues --   -0.46052  -0.45056  -0.44643  -0.44495  -0.44321
  Beta  occ. eigenvalues --   -0.43204  -0.42029  -0.40910  -0.40436  -0.39345
  Beta  occ. eigenvalues --   -0.39239  -0.38218  -0.37522  -0.36621  -0.36385
  Beta  occ. eigenvalues --   -0.36211  -0.34995  -0.34423  -0.34277  -0.31026
  Beta  occ. eigenvalues --   -0.29821  -0.28459  -0.27249  -0.24224
  Beta virt. eigenvalues --   -0.13384  -0.03533  -0.01362  -0.01054  -0.00670
  Beta virt. eigenvalues --    0.00662   0.01020   0.01381   0.01815   0.01995
  Beta virt. eigenvalues --    0.02172   0.02969   0.03416   0.03574   0.04033

 Mulliken charges and spin densities:
               1          2
     1  C   -0.737679  -0.000000
     2  C   -0.451921   0.000000
     3  C    1.169353  -0.000000
     4  C   -0.899519  -0.000000
     5  C   -0.535011   0.000000
     6  C    1.720712  -0.000000
     7  O   -0.187280   0.000000
     8  O   -0.193637   0.000000
     9  S   -0.544707   0.000000
    10  C    0.176863  -0.000000
    11  C   -0.634889   0.000000
    12  C   -0.657588  -0.000000
    13  C    0.481275  -0.000000
    14  C   -0.472031  -0.000000
    15  C   -0.669606   0.000000
    16  C   -0.668322   0.000000
    17  H    0.236301   0.000000
    18  H    0.249084   0.000000
    19  H    0.276605   0.000000
    20  H    0.167280   0.000000
    21  H    0.146271   0.000000
    22  H    0.152550  -0.000000
    23  H    0.142109  -0.000000
    24  H    0.178870   0.000000
    25  H    0.134045  -0.000000
    26  H    0.134047   0.000000
    27  H    0.135973  -0.000000
    28  H    0.174140  -0.000000
    29  H    0.139227  -0.000000
    30  H    0.193651  -0.000000
    31  H    0.157396   0.000000
    32  H    0.138580  -0.000000
    33  H    0.155647  -0.000000
    34  H    0.192210  -0.000000
 Sum of Mulliken charges =  -0.00000  -0.00000

 Dipole moment (field-independent basis, Debye):
    X=             -0.2527    Y=             -1.6150    Z=              0.9187  Tot=              1.8752
 Quadrupole moment (field-independent basis, Debye-Ang):
   XX=            -93.2563   YY=           -111.7611   ZZ=           -109.8106
   XY=             -1.5902   XZ=             -4.5153   YZ=             -3.0752

  Exact polarizability: 222.241 -23.401 146.809 -56.417   1.894 207.442
 Approx polarizability: 281.787 -18.945 217.803 -85.166  -9.774 397.649

                      1                      2                      3
                      A                      A                      A
 Frequencies --     29.3445                32.5425                48.7857
 Red. masses --      4.2771                 3.4661                 3.4629
 Frc consts  --      0.0022                 0.0022                 0.0049
 IR Inten    --      1.5487                 1.2478                 0.5667

                      4                      5                      6
                      A                      A                      A
 Frequencies --     71.2131               102.2553               132.8758
 Red. masses --      4.0517                 3.8986                 4.3460
 Frc consts  --      0.0121                 0.0240                 0.0452
 IR Inten    --      0.2674                 1.0595                 5.2065

                      7                      8                      9
                      A                      A                      A
 Frequencies --    158.8160               182.4300               210.3953
 Red. masses --      5.7224                 4.3715                 1.3214
 Frc consts  --      0.0850                 0.0857                 0.0345
 IR Inten    --      2.6146                 0.4660                 0.4319

                     10                     11                     12
                      A                      A                      A
 Frequencies --    222.7045               225.8707               240.7932
 Red. masses --      2.0383                 1.1823                 3.9318
 Frc consts  --      0.0596                 0.0355                 0.1343
 IR Inten    --      0.2866                 0.1659                 0.0654

                     13                     14                     15
                      A                      A                      A
 Frequencies --    253.8891               257.4453               268.1975
 Red. masses --      1.2405                 1.2062                 2.3142
 Frc consts  --      0.0471                 0.0471                 0.0981
 IR Inten    --      0.1565                 0.0403                 0.3032

                     16                     17                     18
                      A                      A                      A
 Frequencies --    298.5405               326.4171               326.9557
 Red. masses --      2.9448                 3.0480                 1.0598
 Frc consts  --      0.1546                 0.1913                 0.0667
 IR Inten    --      0.7118                 4.0416                 0.1063

                     19                     20                     21
                      A                      A                      A
 Frequencies --    338.8913               370.8444               380.1280
 Red. masses --      3.2800                 4.4895                 2.4746
 Frc consts  --      0.2219                 0.3638                 0.2107
 IR Inten    --      3.2286                 4.5257                 0.9963

                     22                     23                     24
                      A                      A                      A
 Frequencies --    407.4612               415.2736               424.8104
 Red. masses --      3.1915                 2.7034                 3.3933
 Frc consts  --      0.3122                 0.2747                 0.3608
 IR Inten    --      0.1511                 0.2379                 3.8390

                     25                     26                     27
                      A                      A                      A
 Frequencies --    465.2049               494.9589               503.2214
 Red. masses --      4.9703                 4.7563                 4.5138
 Frc consts  --      0.6338                 0.6865                 0.6735
 IR Inten    --     12.7807                 5.2321                 1.2111

                     28                     29                     30
                      A                      A                      A
 Frequencies --    602.4788               609.9694               622.7217
 Red. masses --      4.2936                 5.4146                 4.4734
 Frc consts  --      0.9182                 1.1870                 1.0220
 IR Inten    --     13.6559                16.8865                 2.9807

                     31                     32                     33
                      A                      A                      A
 Frequencies --    677.6804               732.4246               790.2791
 Red. masses --      5.6932                 6.5123                 3.7714
 Frc consts  --      1.5405                 2.0583                 1.3878
 IR Inten    --      0.4999                 8.8206                 2.9856

                     34                     35                     36
                      A                      A                      A
 Frequencies --    802.7352               824.9066               880.4189
 Red. masses --      3.7978                 3.4552                 2.6787
 Frc consts  --      1.4419                 1.3853                 1.2234
 IR Inten    --      0.3823                22.1617                 1.8394

                     37                     38                     39
                      A                      A                      A
 Frequencies --    894.0881               928.5891               938.1581
 Red. masses --      1.5546                 1.7874                 1.7708
 Frc consts  --      0.7322                 0.9081                 0.9183
 IR Inten    --      1.2963                 6.5660                 0.7880

                     40                     41                     42
                      A                      A                      A
 Frequencies --    940.2135               943.9069               958.8268
 Red. masses --      1.4963                 1.1876                 4.1345
 Frc consts  --      0.7793                 0.6234                 2.2395
 IR Inten    --     30.6206                 2.6183                 6.1563

                     43                     44                     45
                      A                      A                      A
 Frequencies --    961.3682               965.7579              1033.6625
 Red. masses --      1.4973                 1.2001                 1.9246
 Frc consts  --      0.8153                 0.6595                 1.2116
 IR Inten    --      0.3661                 0.0952               123.7911

                     46                     47                     48
                      A                      A                      A
 Frequencies --   1048.2276              1061.9489              1079.2942
 Red. masses --      1.3852                 1.7119                 1.5457
 Frc consts  --      0.8967                 1.1374                 1.0609
 IR Inten    --      0.0758               111.3408                 2.7560

                     49                     50                     51
                      A                      A                      A
 Frequencies --   1129.3468              1178.0309              1201.1898
 Red. masses --      2.4115                 1.8635                 3.0967
 Frc consts  --      1.8122                 1.5237                 2.6326
 IR Inten    --      3.3051                17.5525                94.3167

                     52                     53                     54
                      A                      A                      A
 Frequencies --   1215.5956              1223.6468              1244.8287
 Red. masses --      2.6609                 1.9039                 3.8062
 Frc consts  --      2.3166                 1.6796                 3.4751
 IR Inten    --      2.5333                14.1547                93.3202

                     55                     56                     57
                      A                      A                      A
 Frequencies --   1268.3030              1272.4424              1332.9402
 Red. masses --      1.2850                 2.1973                 2.3548
 Frc consts  --      1.2179                 2.0961                 2.4650
 IR Inten    --     11.9690                19.8058                10.2140

                     58                     59                     60
                      A                      A                      A
 Frequencies --   1354.8270              1367.0820              1392.5804
 Red. masses --      2.0376                 1.2945                 1.1960
 Frc consts  --      2.2037                 1.4254                 1.3665
 IR Inten    --     43.9384                 3.1427                 9.2453

                     61                     62                     63
                      A                      A                      A
 Frequencies --   1398.7898              1404.3644              1422.0243
 Red. masses --      1.2346                 1.2492                 1.2201
 Frc consts  --      1.4233                 1.4516                 1.4537
 IR Inten    --     15.5539                 9.4433                 5.9834

                     64                     65                     66
                      A                      A                      A
 Frequencies --   1428.2748              1480.5941              1485.1276
 Red. masses --      1.2191                 1.0458                 1.0485
 Frc consts  --      1.4653                 1.3507                 1.3625
 IR Inten    --      7.9267                 0.0117                 2.5901

                     67                     68                     69
                      A                      A                      A
 Frequencies --   1486.5948              1495.7580              1498.0260
 Red. masses --      1.0406                 1.0480                 1.0428
 Frc consts  --      1.3549                 1.3814                 1.3788
 IR Inten    --      2.8713                 1.3546                10.4135

                     70                     71                     72
                      A                      A                      A
 Frequencies --   1498.5440              1503.1721              1506.4095
 Red. masses --      1.0449                 1.0536                 1.0459
 Frc consts  --      1.3826                 1.4027                 1.3984
 IR Inten    --      0.3170                18.1170                 7.3616

                     73                     74                     75
                      A                      A                      A
 Frequencies --   1512.3299              1529.5522              1605.2743
 Red. masses --      1.0488                 1.0601                 8.1916
 Frc consts  --      1.4133                 1.4613                12.4371
 IR Inten    --      8.0612                18.5077               187.7291

                     76                     77                     78
                      A                      A                      A
 Frequencies --   1661.0362              1697.1246              1714.9526
 Red. masses --      8.7971                10.6309                11.4487
 Frc consts  --     14.3004                18.0404                19.8386
 IR Inten    --     18.0368               234.3109               257.5946

                     79                     80                     81
                      A                      A                      A
 Frequencies --   3020.3958              3022.9378              3025.4425
 Red. masses --      1.0368                 1.0357                 1.0380
 Frc consts  --      5.5726                 5.5761                 5.5979
 IR Inten    --     19.5497                14.0132                36.7201

                     82                     83                     84
                      A                      A                      A
 Frequencies --   3026.5718              3030.9527              3080.6227
 Red. masses --      1.0356                 1.0386                 1.0991
 Frc consts  --      5.5890                 5.6215                 6.1457
 IR Inten    --     36.2617                30.4070                13.8046

                     85                     86                     87
                      A                      A                      A
 Frequencies --   3081.8721              3083.4867              3085.1279
 Red. masses --      1.1022                 1.1017                 1.1006
 Frc consts  --      6.1681                 6.1714                 6.1721
 IR Inten    --      6.5676                21.0085                16.7523

                     88                     89                     90
                      A                      A                      A
 Frequencies --   3089.7092              3095.1514              3100.2087
 Red. masses --      1.1022                 1.1006                 1.1005
 Frc consts  --      6.1994                 6.2120                 6.2317
 IR Inten    --     33.7942                58.9589                26.3976

                     91                     92                     93
                      A                      A                      A
 Frequencies --   3101.2462              3133.5563              3135.1814
 Red. masses --      1.1017                 1.0882                 1.0985
 Frc consts  --      6.2431                 6.2955                 6.3616
 IR Inten    --     16.1141                 9.3364                 0.1592

                     94                     95                     96
                      A                      A                      A
 Frequencies --   3137.7695              3184.3015              3200.7553
 Red. masses --      1.0978                 1.0917                 1.0903
 Frc consts  --      6.3684                 6.5221                 6.5810
 IR Inten    --     12.6075                 0.5867                 0.9653

 - Thermochemistry -
 -------------------
 Temperature   298.150 Kelvin.  Pressure   1.00000 Atm.
 Atom     1 has atomic number  6 and mass  12.00000

 Molecular mass:   238.10275 amu.
 Principal axes and moments of inertia in atomic units:
                           1         2         3
     Eigenvalues --  1628.150697726.903328391.46701
           X            0.86437   0.29300   0.40868
           Y           -0.23078  -0.49093   0.84008
           Z           -0.44677   0.82045   0.35673
 This molecule is an asymmetric top.
 Rotational symmetry number  1.
 Warning -- assumption of classical behavior for rotation
           may cause significant error
 Rotational temperatures (Kelvin)      0.05320     0.01121     0.01032
 Rotational constants (GHZ):           1.10846     0.23357     0.21507
 Zero-point vibrational energy     739483.4 (Joules/Mol)
                                  176.74078 (Kcal/Mol)
 Warning -- explicit consideration of  29 degrees of freedom as
           vibrations may cause significant error
 Vibrational temperatures:     42.22    46.82    70.19   102.46   147.12
          (Kelvin)            191.18   228.50   262.48   302.71   320.42
                              324.98   346.45   365.29   370.41   385.88
                              429.53   469.64   470.42   487.59   533.56
                              546.92   586.25   597.49   611.21   669.33
                              712.14   724.02   866.83   877.61   895.96
                              975.03  1053.80  1137.04  1154.96  1186.86
                             1266.73  1286.39  1336.03  1349.80  1352.76
                             1358.07  1379.54  1383.19  1389.51  1487.21
                             1508.17  1527.91  1552.86  1624.88  1694.92
                             1728.24  1748.97  1760.55  1791.03  1824.81
                             1830.76  1917.80  1949.29  1966.93  2003.61
                             2012.55  2020.57  2045.98  2054.97  2130.24
                             2136.77  2138.88  2152.06  2155.33  2156.07
                             2162.73  2167.39  2175.91  2200.68  2309.63
                             2389.86  2441.78  2467.43  4345.68  4349.33
                             4352.94  4354.56  4360.86  4432.33  4434.13
                             4436.45  4438.81  4445.40  4453.23  4460.51
                             4462.00  4508.49  4510.83  4514.55  4581.50
                             4605.17

 Zero-point correction=                           0.281654 (Hartree/Particle)
 Thermal correction to Energy=                    0.299531
 Thermal correction to Enthalpy=                  0.300475
 Thermal correction to Gibbs Free Energy=         0.235703
 Sum of electronic and zero-point Energies=          -1054.770087
 Sum of electronic and thermal Energies=             -1054.752210
 Sum of electronic and thermal Enthalpies=           -1054.751266
 Sum of electronic and thermal Free Energies=        -1054.816038

                     E (Thermal)             CV                S
                      KCal/Mol        Cal/Mol-Kelvin    Cal/Mol-Kelvin
 Total                  187.959             66.992            136.325
 Electronic               0.000              0.000              0.000
 Translational            0.889              2.981             42.304
 Rotational               0.889              2.981             33.023
 Vibrational            186.181             61.030             60.998
 Vibration     1          0.593              1.984              5.873
 Vibration     2          0.594              1.983              5.668
 Vibration     3          0.595              1.978              4.866
 Vibration     4          0.598              1.968              4.120
 Vibration     5          0.604              1.947              3.411
 Vibration     6          0.613              1.920              2.904
 Vibration     7          0.621              1.893              2.564
 Vibration     8          0.630              1.864              2.303
 Vibration     9          0.643              1.825              2.040
 Vibration    10          0.648              1.806              1.937
 Vibration    11          0.650              1.802              1.912
 Vibration    12          0.658              1.778              1.797
 Vibration    13          0.665              1.756              1.703
 Vibration    14          0.667              1.750              1.679
 Vibration    15          0.673              1.732              1.608
 Vibration    16          0.692              1.676              1.425
 Vibration    17          0.710              1.623              1.278
 Vibration    18          0.711              1.622              1.275
 Vibration    19          0.719              1.598              1.217
 Vibration    20          0.743              1.532              1.076
 Vibration    21          0.750              1.513              1.039
 Vibration    22          0.772              1.454              0.936
 Vibration    23          0.779              1.437              0.908
 Vibration    24          0.787              1.416              0.876
 Vibration    25          0.823              1.327              0.751
 Vibration    26          0.851              1.261              0.671
 Vibration    27          0.859              1.243              0.650
 Vibration    28          0.961              1.027              0.445
 Vibration    29          0.969              1.011              0.433

 Optimization completed.
    -- Stationary point found.
 Normal termination of Gaussian 16 at Wed Jan 10 18:13:31 2024.
