 Q-Chem 5.4, Q-Chem, Inc., Pleasanton, CA (2021)
 Q-Chem 5.4.0 for Intel X86 EM64T Linux

User input:
--------------------------------------------------------------
$molecule
-1 2
C                  3.0001140000     -1.1071070000     -0.1393680000
C                  1.6832440000     -0.3880580000     -0.0107770000
C                  1.6061340000      0.9275740000      0.3646370000
C                  0.3604640000      1.6463660000      0.4973760000
O                  0.3324690000      2.8648510000      0.8475820000
C                 -0.8529510000      0.8892570000      0.2057430000
C                 -0.7938760000     -0.4368610000     -0.1739140000
C                 -2.0480440000     -1.2207770000     -0.4760220000
C                  0.4752000000     -1.1451490000     -0.3020650000
O                  0.5376530000     -2.3636290000     -0.6502080000
C                 -2.1692960000      1.6149330000      0.3360880000
H                  3.1385640000     -1.4960770000     -1.1541820000
H                  3.8347640000     -0.4420810000      0.1020720000
H                  3.0385520000     -1.9792240000      0.5226510000
H                  2.5080590000      1.4954390000      0.5827660000
H                 -2.7205840000     -1.2618080000      0.3906660000
H                 -1.7775210000     -2.2392890000     -0.7568560000
H                 -2.6215850000     -0.7699860000     -1.2963130000
H                 -2.8261130000      1.1391440000      1.0760110000
H                 -1.9819260000      2.6439620000      0.6457500000
H                 -2.7233210000      1.6285180000     -0.6116370000
$end
$rem
MAX_SCF_CYCLES=200
BASIS  =  6-311++G(d,p)
GUI  =  2
JOB_TYPE  =  SP
METHOD  =  B3LYP
SOLVENT_METHOD = COSMO
$end
$solvent
dielectric 37.219
opticaldielectric 1.43
$end

--------------------------------------------------------------

             Standard Nuclear Orientation (Angstroms)
    I     Atom           X                Y                Z
 ----------------------------------------------------------------
    1      C       2.9316626084     0.9851219341    -0.0001075907
    2      C       1.4619561249     0.6569808857    -0.0000014217
    3      C       0.4987359786     1.6316480763     0.0000090665
    4      C      -0.9180993597     1.3513750807     0.0000562631
    5      O      -1.7780505703     2.2833716289    -0.0000295905
    6      C      -1.2945233554    -0.0589244538     0.0001285303
    7      C      -0.3374077609    -1.0539862427    -0.0000055626
    8      C      -0.7254840862    -2.5127965931    -0.0002013285
    9      C       1.0894917088    -0.7496733142     0.0000868205
   10      O       1.9749387838    -1.6583981944     0.0001615496
   11      C      -2.7683785329    -0.3815861108     0.0000506381
   12      H       3.4314159455     0.5521423476    -0.8736571301
   13      H       3.0913521780     2.0675691639    -0.0009519570
   14      H       3.4312707234     0.5535958099     0.8742559684
   15      H       0.7750270041     2.6838756498    -0.0001562382
   16      H      -1.3254431560    -2.7740726865     0.8812325042
   17      H       0.1766188772    -3.1256747649    -0.0029786102
   18      H      -1.3302337196    -2.7725218946    -0.8787568348
   19      H      -3.0569557439    -0.9720555898     0.8794474641
   20      H      -3.3386512415     0.5482991527     0.0011408344
   21      H      -3.0572265297    -0.9699002371    -0.8807241639
 ----------------------------------------------------------------

   10    -499.6240193857      5.67e-06  Convergence criterion met
 Total energy in the final basis set =     -499.6240193857
    4    -499.7105865469      7.38e-06  Convergence criterion met
 Total energy in the final basis set =     -499.7105865469

                    Orbital Energies (a.u.)
 --------------------------------------------------------------

 Alpha MOs
 -- Occupied --
-19.0754 -19.0744 -10.2146 -10.2132 -10.1675 -10.1639 -10.1629 -10.1535
-10.1527 -10.1498 -10.1496  -0.9966  -0.9941  -0.8259  -0.7813  -0.7200
 -0.7039  -0.6580  -0.6321  -0.5591  -0.5383  -0.4904  -0.4518  -0.4333
 -0.4235  -0.4089  -0.4048  -0.3931  -0.3914  -0.3843  -0.3800  -0.3737
 -0.3652  -0.3599  -0.3444  -0.3358  -0.2723  -0.2450  -0.2338  -0.2337
 -0.1577

 Beta MOs
 -- Occupied --
-19.0688 -19.0677 -10.2130 -10.2114 -10.1662 -10.1630 -10.1619 -10.1536
-10.1518 -10.1499 -10.1497  -0.9849  -0.9822  -0.8203  -0.7791  -0.7167
 -0.7015  -0.6534  -0.6269  -0.5554  -0.5340  -0.4885  -0.4476  -0.4258
 -0.4183  -0.4056  -0.4032  -0.3895  -0.3867  -0.3830  -0.3794  -0.3642
 -0.3576  -0.3420  -0.3353  -0.3338  -0.2429  -0.2388  -0.2279  -0.2258

          Ground-State Mulliken Net Atomic Charges

     Atom                 Charge (a.u.)    Spin (a.u.)
  --------------------------------------------------------
      1 C                    -0.327548       0.008867
      2 C                     0.902595       0.090585
      3 C                    -0.525881       0.033856
      4 C                    -0.829993       0.111735
      5 O                    -0.552175       0.229355
      6 C                     0.888437       0.110306
      7 C                     0.241950       0.037109
      8 C                    -0.594544      -0.008046
      9 C                    -0.819081       0.128822
     10 O                    -0.531366       0.240055
     11 C                    -0.502111       0.005981
     12 H                     0.169086       0.004818
     13 H                     0.158611      -0.000158
     14 H                     0.169216       0.004831
     15 H                     0.161334      -0.007726
     16 H                     0.156359       0.002889
     17 H                     0.183874      -0.001775
     18 H                     0.155945       0.002866
     19 H                     0.158048       0.003699
     20 H                     0.179023      -0.001779
     21 H                     0.158220       0.003712
  --------------------------------------------------------
  Sum of atomic charges =    -1.000000

                    Cartesian Multipole Moments
 -----------------------------------------------------------------
    Charge (ESU x 10^10)
                -4.8032
    Dipole Moment (Debye)
         X      -0.3055      Y      -2.1750      Z      -0.0025
       Tot       2.1964
    Quadrupole Moments (Debye-Ang)
        XX     -86.9486     XY      23.1997     YY     -91.5444
        XZ      -0.0021     YZ      -0.0011     ZZ     -69.7463

 Total job time:  42.15s(wall), 230.76s(cpu)
        *  Thank you very much for using Q-Chem.  Have a nice day.  *
