 Gaussian 16, Revision A.03,
 Gaussian 16:  ES64L-G16RevA.03 25-Dec-2016

 --------------------------------------
 #P UB3LYP/6-311++G(d,p) nosym opt freq
 --------------------------------------

 -------
 Radical
 -------
 Symbolic Z-matrix:
 Charge = -1 Multiplicity = 2

 SCF Done:  E(UB3LYP) =  -499.623921479     A.U. after   20 cycles
 Optimization completed.
    -- Stationary point found.
 Normal termination of Gaussian 16 at Sat Jan  6 05:39:29 2024.

 ----------------------------------------------------------------------
 #P Geom=AllCheck Guess=TCheck SCRF=Check GenChk UB3LYP/6-311++G(d,p) F
 req
 ----------------------------------------------------------------------

 Structure from the checkpoint file:  "049-rad.chk"
 -------
 Radical
 -------
 Charge = -1 Multiplicity = 2

                          Input orientation:
 ---------------------------------------------------------------------
 Center     Atomic      Atomic             Coordinates (Angstroms)
 Number     Number       Type             X           Y           Z
 ---------------------------------------------------------------------
      1          6           0        3.000114   -1.107107   -0.139368
      2          6           0        1.683244   -0.388058   -0.010777
      3          6           0        1.606134    0.927574    0.364637
      4          6           0        0.360464    1.646366    0.497376
      5          8           0        0.332469    2.864851    0.847582
      6          6           0       -0.852951    0.889257    0.205743
      7          6           0       -0.793876   -0.436861   -0.173914
      8          6           0       -2.048044   -1.220777   -0.476022
      9          6           0        0.475200   -1.145149   -0.302065
     10          8           0        0.537653   -2.363629   -0.650208
     11          6           0       -2.169296    1.614933    0.336088
     12          1           0        3.138564   -1.496077   -1.154182
     13          1           0        3.834764   -0.442081    0.102072
     14          1           0        3.038552   -1.979224    0.522651
     15          1           0        2.508059    1.495439    0.582766
     16          1           0       -2.720584   -1.261808    0.390666
     17          1           0       -1.777521   -2.239289   -0.756856
     18          1           0       -2.621585   -0.769986   -1.296313
     19          1           0       -2.826113    1.139144    1.076011
     20          1           0       -1.981926    2.643962    0.645750
     21          1           0       -2.723321    1.628518   -0.611637
 ---------------------------------------------------------------------

 SCF Done:  E(UB3LYP) =  -499.623921479     A.U. after    1 cycles

 Alpha  occ. eigenvalues --  -18.92686 -18.92556 -10.07026 -10.06997 -10.03374
 Alpha  occ. eigenvalues --  -10.03001 -10.02901 -10.02893 -10.02759 -10.02660
 Alpha  occ. eigenvalues --  -10.01611  -0.84822  -0.84457  -0.68864  -0.65002
 Alpha  occ. eigenvalues --   -0.59175  -0.57613  -0.52522  -0.50032  -0.42520
 Alpha  occ. eigenvalues --   -0.40256  -0.35432  -0.31206  -0.30448  -0.28524
 Alpha  occ. eigenvalues --   -0.28431  -0.27627  -0.26816  -0.25603  -0.25469
 Alpha  occ. eigenvalues --   -0.24847  -0.23930  -0.23551  -0.21631  -0.20761
 Alpha  occ. eigenvalues --   -0.20337  -0.12789  -0.09966  -0.09515  -0.08632
 Alpha  occ. eigenvalues --   -0.01199
 Alpha virt. eigenvalues --    0.09201   0.09771   0.11411   0.12362   0.12390
 Alpha virt. eigenvalues --    0.12933   0.13539   0.14249   0.14557   0.15756
 Alpha virt. eigenvalues --    0.16016   0.16507   0.17420   0.17795   0.19595

  Beta  occ. eigenvalues --  -18.91985 -18.91830 -10.06882 -10.06881 -10.03383
  Beta  occ. eigenvalues --  -10.02909 -10.02903 -10.02878 -10.02667 -10.02542
  Beta  occ. eigenvalues --  -10.01505  -0.83604  -0.83185  -0.68329  -0.64795
  Beta  occ. eigenvalues --   -0.58931  -0.57384  -0.52149  -0.49378  -0.42161
  Beta  occ. eigenvalues --   -0.39868  -0.35259  -0.30828  -0.30023  -0.28272
  Beta  occ. eigenvalues --   -0.28123  -0.27429  -0.26628  -0.25509  -0.25424
  Beta  occ. eigenvalues --   -0.24233  -0.23796  -0.21835  -0.20436  -0.20115
  Beta  occ. eigenvalues --   -0.18821  -0.09710  -0.08937  -0.08850  -0.07982
  Beta virt. eigenvalues --    0.06010   0.09207   0.09767   0.11416   0.12366
  Beta virt. eigenvalues --    0.12424   0.13431   0.13546   0.14557   0.14809
  Beta virt. eigenvalues --    0.16026   0.16114   0.16513   0.17794   0.18779

 Mulliken charges and spin densities:
               1          2
     1  C   -0.330754   0.008380
     2  C    1.184613   0.080339
     3  C   -0.406529   0.057237
     4  C   -1.107386   0.066116
     5  O   -0.417330   0.259587
     6  C    1.001322   0.123079
     7  C    0.374173   0.047694
     8  C   -0.633029  -0.007611
     9  C   -1.088631   0.093007
    10  O   -0.412019   0.257317
    11  C   -0.522847   0.005332
    12  H    0.145975   0.004755
    13  H    0.120517  -0.000241
    14  H    0.145914   0.004769
    15  H    0.106805  -0.008962
    16  H    0.110231   0.003082
    17  H    0.199065  -0.002359
    18  H    0.110068   0.003052
    19  H    0.112818   0.003978
    20  H    0.194195  -0.002544
    21  H    0.112830   0.003995
 Sum of Mulliken charges =  -1.00000   1.00000

 Dipole moment (field-independent basis, Debye):
    X=             -1.8335    Y=             -1.3634    Z=             -0.5049  Tot=              2.3400
 Quadrupole moment (field-independent basis, Debye-Ang):
   XX=            -75.0095   YY=           -105.5372   ZZ=            -73.3684
   XY=              0.9179   XZ=             -0.0092   YZ=            -10.0765

  Exact polarizability: 150.988  -9.092 167.637   1.742  25.234  85.762
 Approx polarizability: 194.271  -9.315 291.018   1.767  48.787 134.326

                      1                      2                      3
                      A                      A                      A
 Frequencies --     85.3205                96.3022               122.3790
 Red. masses --      1.0640                 4.0603                 1.1249
 Frc consts  --      0.0046                 0.0222                 0.0099
 IR Inten    --      0.1358                11.2437                 0.3900

                      4                      5                      6
                      A                      A                      A
 Frequencies --    123.5087               136.4468               180.3961
 Red. masses --      1.2724                 1.9143                 3.7254
 Frc consts  --      0.0114                 0.0210                 0.0714
 IR Inten    --      0.0287                 0.4131                 0.3936

                      7                      8                      9
                      A                      A                      A
 Frequencies --    271.9118               279.0886               310.3481
 Red. masses --      3.4348                 2.6920                 2.5345
 Frc consts  --      0.1496                 0.1235                 0.1438
 IR Inten    --      0.1760                 2.9597                 1.4353

                     10                     11                     12
                      A                      A                      A
 Frequencies --    334.4760               374.8741               396.3389
 Red. masses --      3.9976                 4.8490                 9.3639
 Frc consts  --      0.2635                 0.4015                 0.8666
 IR Inten    --      0.9924                 0.2133                15.8725

                     13                     14                     15
                      A                      A                      A
 Frequencies --    435.9261               485.9836               506.5024
 Red. masses --      5.3290                 7.6346                 3.4912
 Frc consts  --      0.5967                 1.0624                 0.5277
 IR Inten    --      0.3593                 0.7606                 0.2957

                     16                     17                     18
                      A                      A                      A
 Frequencies --    573.0608               646.0961               676.5367
 Red. masses --      5.3946                 3.4248                 3.5889
 Frc consts  --      1.0438                 0.8423                 0.9678
 IR Inten    --      5.1135                 0.8068                 1.6443

                     19                     20                     21
                      A                      A                      A
 Frequencies --    710.1687               762.6551               846.3065
 Red. masses --      5.4852                 5.2769                 2.2955
 Frc consts  --      1.6299                 1.8084                 0.9687
 IR Inten    --     18.4585                 2.0609                 8.1674

                     22                     23                     24
                      A                      A                      A
 Frequencies --    864.3519               935.9466              1001.0121
 Red. masses --      1.4907                 2.7865                 1.6415
 Frc consts  --      0.6562                 1.4381                 0.9691
 IR Inten    --     20.9312                 3.6236                22.3496

                     25                     26                     27
                      A                      A                      A
 Frequencies --   1025.1854              1031.5065              1049.0743
 Red. masses --      1.4033                 1.6488                 1.4952
 Frc consts  --      0.8690                 1.0336                 0.9695
 IR Inten    --      0.0010                 5.7757                 0.7578

                     28                     29                     30
                      A                      A                      A
 Frequencies --   1055.2794              1109.4470              1128.3771
 Red. masses --      1.5119                 2.6262                 4.0736
 Frc consts  --      0.9920                 1.9046                 3.0559
 IR Inten    --      0.0730                15.0301                 3.6568

                     31                     32                     33
                      A                      A                      A
 Frequencies --   1201.3060              1217.3412              1318.3800
 Red. masses --      2.0224                 5.5690                 2.2946
 Frc consts  --      1.7196                 4.8624                 2.3498
 IR Inten    --     36.5231                13.4031                 4.7784

                     34                     35                     36
                      A                      A                      A
 Frequencies --   1374.3983              1384.5925              1394.1511
 Red. masses --      1.3867                 1.2779                 1.3243
 Frc consts  --      1.5433                 1.4435                 1.5165
 IR Inten    --     26.7207                 3.3348                18.3688

                     37                     38                     39
                      A                      A                      A
 Frequencies --   1428.1688              1464.0978              1475.1274
 Red. masses --      3.3124                 1.0468                 1.1790
 Frc consts  --      3.9806                 1.3221                 1.5116
 IR Inten    --     19.1880                 3.9989                 0.4189

                     40                     41                     42
                      A                      A                      A
 Frequencies --   1477.5215              1484.4162              1491.4529
 Red. masses --      1.3339                 1.2839                 1.0486
 Frc consts  --      1.7156                 1.6669                 1.3743
 IR Inten    --     24.4718               105.6904                 0.0097

                     43                     44                     45
                      A                      A                      A
 Frequencies --   1497.7134              1505.7969              1514.5147
 Red. masses --      5.0421                 1.0482                 3.7508
 Frc consts  --      6.6637                 1.4003                 5.0690
 IR Inten    --     15.8324                11.5280               353.5185

                     46                     47                     48
                      A                      A                      A
 Frequencies --   1534.9635              1640.7590              2983.9730
 Red. masses --      4.8022                 7.2709                 1.0413
 Frc consts  --      6.6663                11.5327                 5.4629
 IR Inten    --     38.9307                 2.9108                29.1065

                     49                     50                     51
                      A                      A                      A
 Frequencies --   2985.9787              3004.1537              3014.2397
 Red. masses --      1.0404                 1.0341                 1.0989
 Frc consts  --      5.4655                 5.4988                 5.8826
 IR Inten    --    180.2806                80.3923                96.9957

                     52                     53                     54
                      A                      A                      A
 Frequencies --   3017.5532              3045.7435              3073.3147
 Red. masses --      1.0987                 1.0988                 1.1023
 Frc consts  --      5.8944                 6.0055                 6.1345
 IR Inten    --      4.9272                37.0869                28.9351

                     55                     56                     57
                      A                      A                      A
 Frequencies --   3104.2663              3106.3993              3127.9055
 Red. masses --      1.0941                 1.0942                 1.0889
 Frc consts  --      6.2121                 6.2208                 6.2767
 IR Inten    --      6.9461                10.7371                41.5631

 - Thermochemistry -
 -------------------
 Temperature   298.150 Kelvin.  Pressure   1.00000 Atm.
 Atom     1 has atomic number  6 and mass  12.00000

 Molecular mass:   150.06808 amu.
 Principal axes and moments of inertia in atomic units:
                           1         2         3
     Eigenvalues --  1199.046201661.751012827.50279
           X           -0.61700   0.78484  -0.05771
           Y            0.76517   0.58117  -0.27706
           Z            0.18391   0.21510   0.95912
 This molecule is an asymmetric top.
 Rotational symmetry number  1.
 Warning -- assumption of classical behavior for rotation
           may cause significant error
 Rotational temperatures (Kelvin)      0.07224     0.05212     0.03063
 Rotational constants (GHZ):           1.50515     1.08605     0.63828
 Zero-point vibrational energy     433186.0 (Joules/Mol)
                                  103.53393 (Kcal/Mol)
 Warning -- explicit consideration of  16 degrees of freedom as
           vibrations may cause significant error
 Vibrational temperatures:    122.76   138.56   176.08   177.70   196.32
          (Kelvin)            259.55   391.22   401.55   446.52   481.24
                              539.36   570.24   627.20   699.22   728.74
                              824.51   929.59   973.39  1021.77  1097.29
                             1217.65  1243.61  1346.62  1440.23  1475.01
                             1484.11  1509.38  1518.31  1596.25  1623.48
                             1728.41  1751.48  1896.85  1977.45  1992.12
                             2005.87  2054.82  2106.51  2122.38  2125.82
                             2135.74  2145.87  2154.88  2166.51  2179.05
                             2208.47  2360.69  4293.27  4296.16  4322.31
                             4336.82  4341.59  4382.15  4421.81  4466.35
                             4469.42  4500.36

 Zero-point correction=                           0.164992 (Hartree/Particle)
 Thermal correction to Energy=                    0.176177
 Thermal correction to Enthalpy=                  0.177121
 Thermal correction to Gibbs Free Energy=         0.127732
 Sum of electronic and zero-point Energies=           -499.458930
 Sum of electronic and thermal Energies=              -499.447744
 Sum of electronic and thermal Enthalpies=            -499.446800
 Sum of electronic and thermal Free Energies=         -499.496189

                     E (Thermal)             CV                S
                      KCal/Mol        Cal/Mol-Kelvin    Cal/Mol-Kelvin
 Total                  110.553             41.081            103.948
 Electronic               0.000              0.000              1.377
 Translational            0.889              2.981             40.928
 Rotational               0.889              2.981             30.111
 Vibrational            108.775             35.119             31.531
 Vibration     1          0.601              1.959              3.765
 Vibration     2          0.603              1.952              3.528
 Vibration     3          0.610              1.930              3.062
 Vibration     4          0.610              1.929              3.045
 Vibration     5          0.614              1.917              2.853
 Vibration     6          0.629              1.866              2.324
 Vibration     7          0.675              1.725              1.584
 Vibration     8          0.679              1.712              1.539
 Vibration     9          0.699              1.654              1.360
 Vibration    10          0.716              1.607              1.238
 Vibration    11          0.746              1.524              1.060
 Vibration    12          0.763              1.478              0.976
 Vibration    13          0.796              1.392              0.840
 Vibration    14          0.842              1.281              0.694
 Vibration    15          0.862              1.236              0.642
 Vibration    16          0.929              1.090              0.498

 Optimization completed.
    -- Stationary point found.
 Normal termination of Gaussian 16 at Sat Jan  6 05:53:36 2024.
