 Q-Chem 5.4, Q-Chem, Inc., Pleasanton, CA (2021)
 Q-Chem 5.4.0 for Intel X86 EM64T Linux

User input:
--------------------------------------------------------------
$molecule
-2 2
C                 -1.8374010000      2.7944940000     -0.7927810000
C                 -2.9200650000      1.9826550000     -0.5068510000
C                 -2.6989100000      0.6628820000     -0.0669650000
C                 -0.5102210000      2.3343390000     -0.6552550000
C                 -0.2847740000      0.9922280000     -0.2079330000
C                 -1.4078100000      0.1824510000      0.0779130000
C                  0.5900990000      3.2597620000     -0.9796710000
C                  1.9770310000      2.7395760000     -0.8227770000
C                  2.1213040000      1.3688550000     -0.3646550000
C                  1.0802030000      0.5346840000     -0.0717200000
O                  0.3593780000      4.4313160000     -1.3696250000
O                  2.9837600000      3.4518070000     -1.0743240000
H                 -1.9683910000      3.8159610000     -1.1336890000
H                 -3.9342380000      2.3599490000     -0.6205740000
H                 -3.5410160000      0.0142220000      0.1612530000
H                 -1.2403830000     -0.8311850000      0.4158100000
H                  3.1344970000      0.9996610000     -0.2536390000
S                  1.4558180000     -1.1717380000      0.4958960000
O                  2.9411030000     -1.2733070000      0.5117610000
O                  0.8102590000     -2.0750350000     -0.5040960000
O                  0.8391080000     -1.2849740000      1.8521880000
$end

$rem
BASIS  =  6-311++G(d,p)
GUI  =  2
JOB_TYPE  =  SP
METHOD  =  B3LYP
SCF_CONVERGENCE  = 8
SOLVENT_METHOD = sm12
$end

$smx
solvent dimethylformamide
charges CM5
$end

--------------------------------------------------------------

             Standard Nuclear Orientation (Angstroms)
    I     Atom           X                Y                Z
 ----------------------------------------------------------------
    1      C      -1.8374010000     2.7944940000    -0.7927810000
    2      C      -2.9200650000     1.9826550000    -0.5068510000
    3      C      -2.6989100000     0.6628820000    -0.0669650000
    4      C      -0.5102210000     2.3343390000    -0.6552550000
    5      C      -0.2847740000     0.9922280000    -0.2079330000
    6      C      -1.4078100000     0.1824510000     0.0779130000
    7      C       0.5900990000     3.2597620000    -0.9796710000
    8      C       1.9770310000     2.7395760000    -0.8227770000
    9      C       2.1213040000     1.3688550000    -0.3646550000
   10      C       1.0802030000     0.5346840000    -0.0717200000
   11      O       0.3593780000     4.4313160000    -1.3696250000
   12      O       2.9837600000     3.4518070000    -1.0743240000
   13      H      -1.9683910000     3.8159610000    -1.1336890000
   14      H      -3.9342380000     2.3599490000    -0.6205740000
   15      H      -3.5410160000     0.0142220000     0.1612530000
   16      H      -1.2403830000    -0.8311850000     0.4158100000
   17      H       3.1344970000     0.9996610000    -0.2536390000
   18      S       1.4558180000    -1.1717380000     0.4958960000
   19      O       2.9411030000    -1.2733070000     0.5117610000
   20      O       0.8102590000    -2.0750350000    -0.5040960000
   21      O       0.8391080000    -1.2849740000     1.8521880000
 ----------------------------------------------------------------

   19   -1158.6079741783      7.61e-09  Convergence criterion met
 Total energy in the final basis set =    -1158.8743527168

                    Orbital Energies (a.u.)
 --------------------------------------------------------------

 Alpha MOs
 -- Occupied --
-89.0289 -19.0812 -19.0768 -19.0735 -19.0718 -19.0718 -10.2226 -10.2180
-10.1942 -10.1935 -10.1850 -10.1844 -10.1821 -10.1807 -10.1804 -10.1684
 -8.0874  -6.0502  -6.0500  -6.0493  -1.0880  -1.0121  -0.9848  -0.9533
 -0.9494  -0.8712  -0.8155  -0.7637  -0.7381  -0.6964  -0.6263  -0.6149
 -0.5969  -0.5528  -0.5130  -0.5047  -0.4836  -0.4568  -0.4472  -0.4363
 -0.4347  -0.4292  -0.4206  -0.4191  -0.4051  -0.3905  -0.3761  -0.3598
 -0.3553  -0.3497  -0.3208  -0.3131  -0.3121  -0.2813  -0.2750  -0.2732
 -0.2643  -0.2541  -0.2374  -0.2349  -0.2229  -0.1612

 Beta MOs
 -- Occupied --
-89.0290 -19.0748 -19.0736 -19.0716 -19.0716 -19.0698 -10.2213 -10.2169
-10.1934 -10.1915 -10.1848 -10.1838 -10.1816 -10.1806 -10.1804 -10.1683
 -8.0875  -6.0502  -6.0500  -6.0494  -1.0878  -1.0008  -0.9721  -0.9531
 -0.9489  -0.8690  -0.8120  -0.7612  -0.7363  -0.6886  -0.6243  -0.6125
 -0.5935  -0.5513  -0.5115  -0.5021  -0.4817  -0.4554  -0.4457  -0.4358
 -0.4331  -0.4283  -0.4161  -0.4066  -0.3998  -0.3872  -0.3626  -0.3583
 -0.3540  -0.3294  -0.3138  -0.3117  -0.3024  -0.2800  -0.2738  -0.2679
 -0.2569  -0.2479  -0.2349  -0.2255  -0.2169

          Ground-State Mulliken Net Atomic Charges

     Atom                 Charge (a.u.)    Spin (a.u.)
  --------------------------------------------------------
      1 C                     0.672626       0.058500
      2 C                     1.914103       0.007336
      3 C                     1.619511       0.061988
      4 C                    -0.087441       0.031404
      5 C                    -1.354470       0.033064
      6 C                    -0.912962       0.001001
      7 C                    -0.942399       0.092752
      8 C                    -0.374870       0.125857
      9 C                    -0.799369      -0.026014
     10 C                    -1.885318       0.109753
     11 O                    -0.242799       0.244507
     12 O                    -0.318938       0.261142
     13 H                     0.194133      -0.004448
     14 H                     0.474298      -0.001200
     15 H                     0.384144      -0.004132
     16 H                     0.033563       0.001538
     17 H                     0.123885      -0.003386
     18 S                     0.381557      -0.001509
     19 O                    -0.246596       0.000069
     20 O                    -0.315544       0.005872
     21 O                    -0.317114       0.005906
  --------------------------------------------------------
  Sum of atomic charges =    -2.000000

                    Cartesian Multipole Moments
 -----------------------------------------------------------------
    Charge (ESU x 10^10)
                -9.6064
    Dipole Moment (Debye)
         X     -13.7267      Y      -8.6202      Z       1.9012
       Tot      16.3200
    Quadrupole Moments (Debye-Ang)
        XX    -145.7756     XY     -12.4672     YY    -190.0659
        XZ       2.9103     YZ      24.1895     ZZ    -123.2425

 Total job time:  406.52s(wall), 3127.16s(cpu)
        *  Thank you very much for using Q-Chem.  Have a nice day.  *
