 Gaussian 16, Revision A.03,
 Gaussian 16:  ES64L-G16RevA.03 25-Dec-2016

 --------------------------------------
 #P UB3LYP/6-311++G(d,p) nosym opt freq
 --------------------------------------

 -------
 Radical
 -------
 Symbolic Z-matrix:
 Charge = -1 Multiplicity = 2

 SCF Done:  E(UB3LYP) =  -838.507846109     A.U. after   25 cycles
 Optimization completed.
    -- Stationary point found.
 Normal termination of Gaussian 16 at Mon Jan  8 01:35:08 2024.

 ----------------------------------------------------------------------
 #P Geom=AllCheck Guess=TCheck SCRF=Check GenChk UB3LYP/6-311++G(d,p) F
 req
 ----------------------------------------------------------------------

 Structure from the checkpoint file:  "263-rad.chk"
 -------
 Radical
 -------
 Charge = -1 Multiplicity = 2

                          Input orientation:
 ---------------------------------------------------------------------
 Center     Atomic      Atomic             Coordinates (Angstroms)
 Number     Number       Type             X           Y           Z
 ---------------------------------------------------------------------
      1          6           0       -1.264774    2.850554    0.244211
      2          6           0       -2.593079    2.445744    0.170322
      3          6           0       -2.920672    1.106096   -0.059486
      4          6           0       -0.206158    1.921896    0.059617
      5          6           0       -0.561183    0.557303   -0.195827
      6          6           0       -1.922118    0.163730   -0.218954
      7          6           0        1.220114    2.323110    0.117244
      8          6           0        2.173886    1.269279   -0.135795
      9          6           0        1.825137   -0.023555   -0.427496
     10          6           0        0.461902   -0.456244   -0.500011
     11          8           0        1.604297    3.490597    0.366754
     12          8           0        0.135733   -1.632553   -0.825051
     13          8           0       -0.983033    4.168465    0.486189
     14          1           0       -3.961377    0.802837   -0.099782
     15          1           0        2.581767   -0.775259   -0.633830
     16          6           0       -2.346487   -1.262439   -0.391523
     17          8           0       -2.968169   -1.698015   -1.335530
     18          8           0       -2.128194   -1.984340    0.739218
     19          6           0       -2.292736   -3.397045    0.599677
     20          1           0       -3.381821    3.183110    0.303741
     21          1           0        3.216544    1.570282   -0.092955
     22          1           0       -1.824750    4.630679    0.563939
     23          1           0       -2.085739   -3.817553    1.583723
     24          1           0       -1.575719   -3.773948   -0.132818
     25          1           0       -3.307821   -3.648868    0.283014
 ---------------------------------------------------------------------

 SCF Done:  E(UB3LYP) =  -838.507846109     A.U. after    1 cycles

 Alpha  occ. eigenvalues --  -19.04361 -19.04321 -18.98858 -18.94698 -18.94158
 Alpha  occ. eigenvalues --  -10.18371 -10.12889 -10.11290 -10.09594 -10.09310
 Alpha  occ. eigenvalues --  -10.06980 -10.06643 -10.06448 -10.06313 -10.06047
 Alpha  occ. eigenvalues --  -10.03856 -10.03759  -0.98493  -0.95641  -0.89823
 Alpha  occ. eigenvalues --   -0.87102  -0.86707  -0.74603  -0.68407  -0.65359
 Alpha  occ. eigenvalues --   -0.62912  -0.60761  -0.55459  -0.52342  -0.50672
 Alpha  occ. eigenvalues --   -0.47235  -0.45250  -0.42585  -0.39780  -0.37734
 Alpha  occ. eigenvalues --   -0.36628  -0.36188  -0.35451  -0.33863  -0.33561
 Alpha  occ. eigenvalues --   -0.31269  -0.30903  -0.29990  -0.28865  -0.27289
 Alpha  occ. eigenvalues --   -0.27124  -0.26784  -0.25905  -0.24665  -0.24434
 Alpha  occ. eigenvalues --   -0.23874  -0.23399  -0.22092  -0.18585  -0.16365
 Alpha  occ. eigenvalues --   -0.14905  -0.13744  -0.11857  -0.11275  -0.10138
 Alpha  occ. eigenvalues --   -0.02426
 Alpha virt. eigenvalues --    0.07296   0.08086   0.08707   0.09572   0.09857
 Alpha virt. eigenvalues --    0.10282   0.11520   0.12190   0.12792   0.13112
 Alpha virt. eigenvalues --    0.13941   0.15062   0.15302   0.15894   0.16861

  Beta  occ. eigenvalues --  -19.04361 -19.04323 -18.98851 -18.94010 -18.93465
  Beta  occ. eigenvalues --  -10.18371 -10.12919 -10.11290 -10.09531 -10.09168
  Beta  occ. eigenvalues --  -10.06951 -10.06628 -10.06371 -10.06227 -10.05978
  Beta  occ. eigenvalues --  -10.03762 -10.03576  -0.98487  -0.95643  -0.89815
  Beta  occ. eigenvalues --   -0.85931  -0.85513  -0.74414  -0.67875  -0.65247
  Beta  occ. eigenvalues --   -0.62680  -0.60687  -0.54648  -0.52190  -0.50368
  Beta  occ. eigenvalues --   -0.47054  -0.45122  -0.42492  -0.39620  -0.37552
  Beta  occ. eigenvalues --   -0.36558  -0.36073  -0.35358  -0.33735  -0.33350
  Beta  occ. eigenvalues --   -0.31134  -0.30566  -0.29810  -0.28811  -0.26922
  Beta  occ. eigenvalues --   -0.26385  -0.25887  -0.25771  -0.24393  -0.23711
  Beta  occ. eigenvalues --   -0.23204  -0.22272  -0.21024  -0.18495  -0.16277
  Beta  occ. eigenvalues --   -0.13110  -0.11716  -0.11252  -0.10639  -0.09497
  Beta virt. eigenvalues --    0.04259   0.07297   0.08156   0.09242   0.09839
  Beta virt. eigenvalues --    0.10291   0.10825   0.11521   0.12202   0.12839
  Beta virt. eigenvalues --    0.13247   0.13955   0.15101   0.15403   0.15951

 Mulliken charges and spin densities:
               1          2
     1  C    0.143952   0.013477
     2  C   -0.015265   0.065141
     3  C   -0.350611   0.016805
     4  C    0.020152   0.043708
     5  C    0.586086   0.082534
     6  C    0.844705   0.027401
     7  C   -0.584194   0.002050
     8  C   -0.039463   0.143650
     9  C   -0.109200   0.056659
    10  C   -0.701334   0.057619
    11  O   -0.372220   0.256879
    12  O   -0.349227   0.251281
    13  O   -0.169459  -0.002132
    14  H    0.139939  -0.002034
    15  H    0.145763  -0.007413
    16  C   -0.676113   0.010848
    17  O   -0.215646   0.001625
    18  O    0.025002  -0.002003
    19  C   -0.241357   0.002217
    20  H    0.080529  -0.005147
    21  H    0.148144  -0.012045
    22  H    0.237550  -0.000529
    23  H    0.128106   0.000039
    24  H    0.189624  -0.000586
    25  H    0.134538  -0.000043
 Sum of Mulliken charges =  -1.00000   1.00000

 Dipole moment (field-independent basis, Debye):
    X=             -1.2036    Y=             -3.3055    Z=              2.3803  Tot=              4.2475
 Quadrupole moment (field-independent basis, Debye-Ang):
   XX=           -112.1059   YY=           -128.8934   ZZ=           -109.3603
   XY=            -21.8568   XZ=             -8.2082   YZ=             -9.0563

  Exact polarizability: 220.338  12.987 230.850   0.093  19.808 103.108
 Approx polarizability: 345.644  19.303 380.155   7.572  47.795 168.422

                      1                      2                      3
                      A                      A                      A
 Frequencies --     36.4545                68.0438                75.2886
 Red. masses --      7.3590                 5.2220                 5.8564
 Frc consts  --      0.0058                 0.0142                 0.0196
 IR Inten    --      2.0445                 2.8883                 4.4706

                      4                      5                      6
                      A                      A                      A
 Frequencies --     89.2479               118.2669               147.6253
 Red. masses --      3.2318                 5.6749                 1.1932
 Frc consts  --      0.0152                 0.0468                 0.0153
 IR Inten    --      5.6739                 6.1931                 0.4455

                      7                      8                      9
                      A                      A                      A
 Frequencies --    178.3324               227.3970               235.5122
 Red. masses --      6.5276                 4.6388                 5.6621
 Frc consts  --      0.1223                 0.1413                 0.1850
 IR Inten    --      0.5517                 0.8949                 1.8628

                     10                     11                     12
                      A                      A                      A
 Frequencies --    275.7486               298.3577               314.9833
 Red. masses --      7.1230                 6.8187                 1.7985
 Frc consts  --      0.3191                 0.3576                 0.1051
 IR Inten    --      3.6998                 5.0278                62.1345

                     13                     14                     15
                      A                      A                      A
 Frequencies --    324.1653               336.7397               357.9229
 Red. masses --      5.1405                 2.2941                 9.8761
 Frc consts  --      0.3183                 0.1533                 0.7454
 IR Inten    --      1.8158                20.5559                22.0534

                     16                     17                     18
                      A                      A                      A
 Frequencies --    384.2143               433.7947               458.2382
 Red. masses --      9.3418                 5.0144                 8.7068
 Frc consts  --      0.8125                 0.5560                 1.0772
 IR Inten    --      3.5850                 1.7180                 0.6825

                     19                     20                     21
                      A                      A                      A
 Frequencies --    473.7345               489.8448               561.2852
 Red. masses --      5.4721                 5.9388                 3.0691
 Frc consts  --      0.7236                 0.8396                 0.5697
 IR Inten    --      9.6128                 2.8118                 0.3322

                     22                     23                     24
                      A                      A                      A
 Frequencies --    571.9889               628.9793               669.5382
 Red. masses --      7.6058                 4.6536                 5.9172
 Frc consts  --      1.4661                 1.0847                 1.5628
 IR Inten    --      2.9027                 3.9584                16.7323

                     25                     26                     27
                      A                      A                      A
 Frequencies --    674.8313               690.9055               742.3033
 Red. masses --      2.8687                 4.8249                 6.6401
 Frc consts  --      0.7697                 1.3570                 2.1557
 IR Inten    --     15.2482                 5.5194                65.0550

                     28                     29                     30
                      A                      A                      A
 Frequencies --    765.6527               779.8650               789.8463
 Red. masses --      6.0779                 1.8202                 7.0746
 Frc consts  --      2.0993                 0.6523                 2.6004
 IR Inten    --     17.2843                31.6651                 0.0447

                     31                     32                     33
                      A                      A                      A
 Frequencies --    802.2944               834.2852               879.5858
 Red. masses --      5.6542                 2.1246                 5.4471
 Frc consts  --      2.1443                 0.8713                 2.4830
 IR Inten    --      4.7575                43.2612                14.9211

                     34                     35                     36
                      A                      A                      A
 Frequencies --    902.7039               939.9332               951.4308
 Red. masses --      1.4479                 1.2829                 6.6318
 Frc consts  --      0.6951                 0.6678                 3.5370
 IR Inten    --      7.3061                 0.1450                66.3456

                     37                     38                     39
                      A                      A                      A
 Frequencies --   1010.0484              1087.7159              1116.7568
 Red. masses --      6.8248                 2.0734                 3.4854
 Frc consts  --      4.1023                 1.4453                 2.5610
 IR Inten    --     11.0830                 5.9843               235.4087

                     40                     41                     42
                      A                      A                      A
 Frequencies --   1143.2979              1167.1821              1176.1118
 Red. masses --      2.4267                 1.3034                 1.4514
 Frc consts  --      1.8689                 1.0462                 1.1829
 IR Inten    --     49.7452                 7.0145                25.7365

                     43                     44                     45
                      A                      A                      A
 Frequencies --   1208.7628              1210.2213              1221.4897
 Red. masses --      1.5028                 1.7097                 2.7712
 Frc consts  --      1.2937                 1.4754                 2.4361
 IR Inten    --      7.1540               153.4367                39.4946

                     46                     47                     48
                      A                      A                      A
 Frequencies --   1255.7804              1290.3809              1320.6987
 Red. masses --      5.2636                 2.3355                 2.4625
 Frc consts  --      4.8906                 2.2912                 2.5306
 IR Inten    --    255.3365                50.7942                 2.3941

                     49                     50                     51
                      A                      A                      A
 Frequencies --   1341.5652              1399.7339              1420.5748
 Red. masses --      6.2569                 3.3738                 4.2709
 Frc consts  --      6.6349                 3.8946                 5.0781
 IR Inten    --      5.9300                57.2084                70.4888

                     52                     53                     54
                      A                      A                      A
 Frequencies --   1456.9055              1472.5896              1478.5350
 Red. masses --      1.2234                 2.6891                 1.0669
 Frc consts  --      1.5300                 3.4358                 1.3741
 IR Inten    --      2.1266               248.4780                12.2883

                     55                     56                     57
                      A                      A                      A
 Frequencies --   1499.0023              1507.2675              1553.1631
 Red. masses --      1.0598                 8.4500                 5.3764
 Frc consts  --      1.4030                11.3107                 7.6415
 IR Inten    --      4.7044                25.9868               550.8557

                     58                     59                     60
                      A                      A                      A
 Frequencies --   1563.4444              1611.6547              1633.5709
 Red. masses --      6.0825                 6.3300                 7.1727
 Frc consts  --      8.7598                 9.6872                11.2774
 IR Inten    --     63.1410                31.4254                27.5368

                     61                     62                     63
                      A                      A                      A
 Frequencies --   1753.3224              3029.8225              3099.7542
 Red. masses --     11.9252                 1.0295                 1.1050
 Frc consts  --     21.5992                 5.5680                 6.2558
 IR Inten    --    368.8968                83.5493                21.2695

                     64                     65                     66
                      A                      A                      A
 Frequencies --   3121.5803              3124.6839              3139.0437
 Red. masses --      1.0878                 1.1055                 1.0852
 Frc consts  --      6.2450                 6.3596                 6.3000
 IR Inten    --     40.0055                27.4124                20.1136

                     67                     68                     69
                      A                      A                      A
 Frequencies --   3160.7150              3167.3265              3807.0555
 Red. masses --      1.0942                 1.0920                 1.0654
 Frc consts  --      6.4406                 6.4543                 9.0980
 IR Inten    --     40.9933                17.3144                18.5048

 - Thermochemistry -
 -------------------
 Temperature   298.150 Kelvin.  Pressure   1.00000 Atm.
 Atom     1 has atomic number  6 and mass  12.00000

 Molecular mass:   232.03717 amu.
 Principal axes and moments of inertia in atomic units:
                           1         2         3
     Eigenvalues --  2156.867764751.546316472.41094
           X            0.45491   0.88910   0.05053
           Y            0.88805  -0.44867  -0.10034
           Z            0.06654  -0.09052   0.99367
 This molecule is an asymmetric top.
 Rotational symmetry number  1.
 Warning -- assumption of classical behavior for rotation
           may cause significant error
 Rotational temperatures (Kelvin)      0.04016     0.01823     0.01338
 Rotational constants (GHZ):           0.83674     0.37982     0.27884
 Zero-point vibrational energy     460915.8 (Joules/Mol)
                                  110.16151 (Kcal/Mol)
 Warning -- explicit consideration of  22 degrees of freedom as
           vibrations may cause significant error
 Vibrational temperatures:     52.45    97.90   108.32   128.41   170.16
          (Kelvin)            212.40   256.58   327.17   338.85   396.74
                              429.27   453.19   466.40   484.49   514.97
                              552.80   624.13   659.30   681.60   704.78
                              807.56   822.96   904.96   963.32   970.93
                              994.06  1068.01  1101.60  1122.05  1136.41
                             1154.32  1200.35  1265.53  1298.79  1352.35
                             1368.90  1453.23  1564.98  1606.76  1644.95
                             1679.31  1692.16  1739.14  1741.24  1757.45
                             1806.79  1856.57  1900.19  1930.21  2013.90
                             2043.89  2096.16  2118.73  2127.28  2156.73
                             2168.62  2234.66  2249.45  2318.81  2350.34
                             2522.64  4359.24  4459.85  4491.26  4495.72
                             4516.38  4547.56  4557.08  5477.50

 Zero-point correction=                           0.175554 (Hartree/Particle)
 Thermal correction to Energy=                    0.190147
 Thermal correction to Enthalpy=                  0.191091
 Thermal correction to Gibbs Free Energy=         0.132922
 Sum of electronic and zero-point Energies=           -838.332293
 Sum of electronic and thermal Energies=              -838.317699
 Sum of electronic and thermal Enthalpies=            -838.316755
 Sum of electronic and thermal Free Energies=         -838.374924

                     E (Thermal)             CV                S
                      KCal/Mol        Cal/Mol-Kelvin    Cal/Mol-Kelvin
 Total                  119.319             55.183            122.427
 Electronic               0.000              0.000              1.377
 Translational            0.889              2.981             42.227
 Rotational               0.889              2.981             32.561
 Vibrational            117.542             49.221             46.261
 Vibration     1          0.594              1.982              5.443
 Vibration     2          0.598              1.969              4.209
 Vibration     3          0.599              1.965              4.010
 Vibration     4          0.602              1.957              3.676
 Vibration     5          0.608              1.934              3.128
 Vibration     6          0.617              1.905              2.703
 Vibration     7          0.629              1.869              2.346
 Vibration     8          0.651              1.799              1.899
 Vibration     9          0.655              1.786              1.837
 Vibration    10          0.677              1.718              1.560
 Vibration    11          0.691              1.677              1.426
 Vibration    12          0.702              1.645              1.336
 Vibration    13          0.709              1.627              1.289
 Vibration    14          0.717              1.602              1.228
 Vibration    15          0.733              1.559              1.131
 Vibration    16          0.753              1.504              1.023
 Vibration    17          0.795              1.397              0.846
 Vibration    18          0.816              1.343              0.771
 Vibration    19          0.831              1.308              0.727
 Vibration    20          0.846              1.273              0.684
 Vibration    21          0.917              1.115              0.521
 Vibration    22          0.928              1.092              0.500

 Optimization completed.
    -- Stationary point found.
 Normal termination of Gaussian 16 at Mon Jan  8 02:43:21 2024.
