 Q-Chem 5.4, Q-Chem, Inc., Pleasanton, CA (2021)
 Q-Chem 5.4.0 for Intel X86 EM64T Linux

User input:
--------------------------------------------------------------
$molecule
-1 2
C                 -1.2647740000      2.8505540000      0.2442110000
C                 -2.5930790000      2.4457440000      0.1703220000
C                 -2.9206720000      1.1060960000     -0.0594860000
C                 -0.2061580000      1.9218960000      0.0596170000
C                 -0.5611830000      0.5573030000     -0.1958270000
C                 -1.9221180000      0.1637300000     -0.2189540000
C                  1.2201140000      2.3231100000      0.1172440000
C                  2.1738860000      1.2692790000     -0.1357950000
C                  1.8251370000     -0.0235550000     -0.4274960000
C                  0.4619020000     -0.4562440000     -0.5000110000
O                  1.6042970000      3.4905970000      0.3667540000
O                  0.1357330000     -1.6325530000     -0.8250510000
O                 -0.9830330000      4.1684650000      0.4861890000
H                 -3.9613770000      0.8028370000     -0.0997820000
H                  2.5817670000     -0.7752590000     -0.6338300000
C                 -2.3464870000     -1.2624390000     -0.3915230000
O                 -2.9681690000     -1.6980150000     -1.3355300000
O                 -2.1281940000     -1.9843400000      0.7392180000
C                 -2.2927360000     -3.3970450000      0.5996770000
H                 -3.3818210000      3.1831100000      0.3037410000
H                  3.2165440000      1.5702820000     -0.0929550000
H                 -1.8247500000      4.6306790000      0.5639390000
H                 -2.0857390000     -3.8175530000      1.5837230000
H                 -1.5757190000     -3.7739480000     -0.1328180000
H                 -3.3078210000     -3.6488680000      0.2830140000
$end
$rem
MAX_SCF_CYCLES=200
BASIS  =  6-311++G(d,p)
GUI  =  2
JOB_TYPE  =  SP
METHOD  =  B3LYP
SOLVENT_METHOD = PCM
$end
$pcm
theory = CPCM
$end
$solvent
dielectric 37.219
opticaldielectric 1.43
$end

--------------------------------------------------------------

             Standard Nuclear Orientation (Angstroms)
    I     Atom           X                Y                Z
 ----------------------------------------------------------------
    1      C      -1.2647740000     2.8505540000     0.2442110000
    2      C      -2.5930790000     2.4457440000     0.1703220000
    3      C      -2.9206720000     1.1060960000    -0.0594860000
    4      C      -0.2061580000     1.9218960000     0.0596170000
    5      C      -0.5611830000     0.5573030000    -0.1958270000
    6      C      -1.9221180000     0.1637300000    -0.2189540000
    7      C       1.2201140000     2.3231100000     0.1172440000
    8      C       2.1738860000     1.2692790000    -0.1357950000
    9      C       1.8251370000    -0.0235550000    -0.4274960000
   10      C       0.4619020000    -0.4562440000    -0.5000110000
   11      O       1.6042970000     3.4905970000     0.3667540000
   12      O       0.1357330000    -1.6325530000    -0.8250510000
   13      O      -0.9830330000     4.1684650000     0.4861890000
   14      H      -3.9613770000     0.8028370000    -0.0997820000
   15      H       2.5817670000    -0.7752590000    -0.6338300000
   16      C      -2.3464870000    -1.2624390000    -0.3915230000
   17      O      -2.9681690000    -1.6980150000    -1.3355300000
   18      O      -2.1281940000    -1.9843400000     0.7392180000
   19      C      -2.2927360000    -3.3970450000     0.5996770000
   20      H      -3.3818210000     3.1831100000     0.3037410000
   21      H       3.2165440000     1.5702820000    -0.0929550000
   22      H      -1.8247500000     4.6306790000     0.5639390000
   23      H      -2.0857390000    -3.8175530000     1.5837230000
   24      H      -1.5757190000    -3.7739480000    -0.1328180000
   25      H      -3.3078210000    -3.6488680000     0.2830140000
 ----------------------------------------------------------------

    8    -838.6023753005      8.74e-06  Convergence criterion met
 Total energy in the final basis set =     -838.6023753005

                    Orbital Energies (a.u.)
 --------------------------------------------------------------

 Alpha MOs
 -- Occupied --
-19.1625 -19.1557 -19.1159 -19.0825 -19.0782 -10.3088 -10.2474 -10.2304
-10.2263 -10.2130 -10.1892 -10.1879 -10.1856 -10.1854 -10.1766 -10.1655
-10.1645  -1.1066  -1.0689  -1.0228  -1.0072  -1.0047  -0.8678  -0.8104
 -0.7725  -0.7509  -0.7188  -0.6818  -0.6416  -0.6275  -0.5918  -0.5685
 -0.5434  -0.5178  -0.5003  -0.4850  -0.4838  -0.4751  -0.4611  -0.4569
 -0.4334  -0.4286  -0.4217  -0.4069  -0.4044  -0.3991  -0.3880  -0.3807
 -0.3771  -0.3756  -0.3572  -0.3567  -0.3429  -0.3058  -0.2908  -0.2809
 -0.2605  -0.2492  -0.2407  -0.2385  -0.1569

 Beta MOs
 -- Occupied --
-19.1625 -19.1557 -19.1158 -19.0764 -19.0722 -10.3088 -10.2475 -10.2291
-10.2244 -10.2130 -10.1886 -10.1876 -10.1853 -10.1852 -10.1759 -10.1643
-10.1627  -1.1065  -1.0687  -1.0226  -0.9966  -0.9940  -0.8659  -0.8050
 -0.7711  -0.7488  -0.7179  -0.6731  -0.6398  -0.6247  -0.5896  -0.5673
 -0.5424  -0.5159  -0.4981  -0.4835  -0.4827  -0.4740  -0.4596  -0.4556
 -0.4289  -0.4256  -0.4185  -0.4053  -0.4012  -0.3874  -0.3854  -0.3756
 -0.3740  -0.3575  -0.3558  -0.3550  -0.3356  -0.3051  -0.2895  -0.2551
 -0.2528  -0.2434  -0.2344  -0.2328

          Ground-State Mulliken Net Atomic Charges

     Atom                 Charge (a.u.)    Spin (a.u.)
  --------------------------------------------------------
      1 C                     0.116430       0.026177
      2 C                    -0.045683       0.059361
      3 C                    -0.302147       0.006466
      4 C                     0.009634       0.018312
      5 C                     0.564725       0.059487
      6 C                     0.706908       0.045757
      7 C                    -0.404802       0.053729
      8 C                    -0.169745       0.137125
      9 C                    -0.221687       0.066558
     10 C                    -0.575674       0.090049
     11 O                    -0.492076       0.224071
     12 O                    -0.453118       0.226844
     13 O                    -0.254452      -0.000154
     14 H                     0.211801      -0.001303
     15 H                     0.198888      -0.008062
     16 C                    -0.557452       0.010027
     17 O                    -0.288283       0.002602
     18 O                    -0.016163      -0.002198
     19 C                    -0.268205       0.001627
     20 H                     0.197157      -0.004383
     21 H                     0.196193      -0.011394
     22 H                     0.317194      -0.000339
     23 H                     0.175684       0.000100
     24 H                     0.187427      -0.000400
     25 H                     0.167447      -0.000060
  --------------------------------------------------------
  Sum of atomic charges =    -1.000000

                    Cartesian Multipole Moments
 -----------------------------------------------------------------
    Charge (ESU x 10^10)
                -4.8032
    Dipole Moment (Debye)
         X      -3.5458      Y      -3.0753      Z       3.2020
       Tot       5.6818
    Quadrupole Moments (Debye-Ang)
        XX    -102.7521     XY     -28.0344     YY    -125.1498
        XZ     -10.7821     YZ     -10.9081     ZZ    -109.6772

 Total job time:  52.61s(wall), 331.14s(cpu)
        *  Thank you very much for using Q-Chem.  Have a nice day.  *
