 Gaussian 16, Revision A.03,
 Gaussian 16:  ES64L-G16RevA.03 25-Dec-2016

 --------------------------------------
 #P UB3LYP/6-311++G(d,p) nosym opt freq
 --------------------------------------

 --------
 Oxidized
 --------
 Symbolic Z-matrix:
 Charge =  0 Multiplicity = 1

 SCF Done:  E(UB3LYP) =  -939.659729720     A.U. after   16 cycles
 SCF Done:  E(UB3LYP) =  -939.686456577     A.U. after   14 cycles
 SCF Done:  E(UB3LYP) =  -939.695220108     A.U. after   14 cycles
 SCF Done:  E(UB3LYP) =  -939.697509426     A.U. after   14 cycles
 SCF Done:  E(UB3LYP) =  -939.699343786     A.U. after   14 cycles
 SCF Done:  E(UB3LYP) =  -939.700895735     A.U. after   16 cycles
 SCF Done:  E(UB3LYP) =  -939.704261679     A.U. after   14 cycles
 SCF Done:  E(UB3LYP) =  -939.708760204     A.U. after   15 cycles
 SCF Done:  E(UB3LYP) =  -939.709473092     A.U. after   16 cycles
 SCF Done:  E(UB3LYP) =  -939.710311507     A.U. after   14 cycles
 SCF Done:  E(UB3LYP) =  -939.710652196     A.U. after   13 cycles
 SCF Done:  E(UB3LYP) =  -939.710695163     A.U. after   12 cycles
 SCF Done:  E(UB3LYP) =  -939.710709191     A.U. after   12 cycles
 SCF Done:  E(UB3LYP) =  -939.710715332     A.U. after   11 cycles
 SCF Done:  E(UB3LYP) =  -939.710715918     A.U. after   10 cycles
 SCF Done:  E(UB3LYP) =  -939.710716059     A.U. after    9 cycles
 SCF Done:  E(UB3LYP) =  -939.710716114     A.U. after    8 cycles
 SCF Done:  E(UB3LYP) =  -939.710716179     A.U. after    8 cycles
 SCF Done:  E(UB3LYP) =  -939.710716223     A.U. after    8 cycles
 Optimization completed.
    -- Stationary point found.
 Normal termination of Gaussian 16 at Thu Dec 21 21:19:47 2023.

 ----------------------------------------------------------------------
 #P Geom=AllCheck Guess=TCheck SCRF=Check GenChk UB3LYP/6-311++G(d,p) F
 req
 ----------------------------------------------------------------------

 Structure from the checkpoint file:  "212.chk"
 --------
 Oxidized
 --------
 Charge =  0 Multiplicity = 1

                          Input orientation:
 ---------------------------------------------------------------------
 Center     Atomic      Atomic             Coordinates (Angstroms)
 Number     Number       Type             X           Y           Z
 ---------------------------------------------------------------------
      1          8           0        3.781728   -2.479500    0.383073
      2          6           0        3.000903   -1.549365    0.251243
      3          6           0        3.402010   -0.156710    0.574991
      4          6           0        4.681131    0.098344    1.081040
      5          6           0        5.071907    1.402196    1.357267
      6          6           0        4.190077    2.460721    1.117667
      7          6           0        2.921714    2.213443    0.605651
      8          6           0        2.514226    0.902049    0.339537
      9          6           0        1.134648    0.669104   -0.197670
     10          8           0        0.488397    1.627163   -0.610032
     11          6           0        0.643896   -0.725184   -0.267830
     12          6           0       -0.715036   -1.043643   -0.601315
     13          6           0       -0.972895   -2.338212   -1.121078
     14          6           0        0.006699   -3.313045   -1.156691
     15          6           0        1.286925   -3.055415   -0.668458
     16          6           0        1.602952   -1.774618   -0.235468
     17          7           0       -1.759552   -0.172975   -0.411782
     18          6           0       -1.778041    0.789817    0.699474
     19          6           0       -3.154740    0.809211    1.368656
     20          6           0       -4.253965    1.266556    0.386898
     21          6           0       -3.887822    0.878279   -1.060605
     22          6           0       -3.037216   -0.391623   -1.104287
     23          1           0        5.349101   -0.738741    1.242538
     24          1           0        6.061997    1.599644    1.752383
     25          1           0        4.497066    3.478929    1.329428
     26          1           0        2.229198    3.020921    0.403933
     27          1           0       -1.972000   -2.594095   -1.444038
     28          1           0       -0.241292   -4.299157   -1.533960
     29          1           0        2.049691   -3.821695   -0.634528
     30          1           0       -1.498434    1.787813    0.348959
     31          1           0       -1.014628    0.486378    1.419497
     32          1           0       -3.112790    1.470147    2.238729
     33          1           0       -3.379624   -0.192705    1.749060
     34          1           0       -4.390858    2.349892    0.448497
     35          1           0       -5.209669    0.815844    0.670834
     36          1           0       -4.787566    0.723532   -1.661996
     37          1           0       -3.323458    1.684296   -1.538511
     38          1           0       -2.826702   -0.659686   -2.142239
     39          1           0       -3.597978   -1.227910   -0.657669
 ---------------------------------------------------------------------

 SCF Done:  E(UB3LYP) =  -939.710716223     A.U. after    1 cycles

 Alpha  occ. eigenvalues --  -19.11383 -19.10808 -14.34622 -10.26648 -10.26467
 Alpha  occ. eigenvalues --  -10.23828 -10.21651 -10.20550 -10.19819 -10.19756
 Alpha  occ. eigenvalues --  -10.19622 -10.19605 -10.19346 -10.19223 -10.19135
 Alpha  occ. eigenvalues --  -10.18961 -10.18864 -10.18750 -10.18140 -10.17903
 Alpha  occ. eigenvalues --  -10.17848 -10.17830  -1.04824  -1.04326  -0.96661
 Alpha  occ. eigenvalues --   -0.88225  -0.86862  -0.81753  -0.80221  -0.77455
 Alpha  occ. eigenvalues --   -0.76929  -0.76015  -0.75442  -0.68488  -0.67459
 Alpha  occ. eigenvalues --   -0.65784  -0.64919  -0.62790  -0.60345  -0.57912
 Alpha  occ. eigenvalues --   -0.55631  -0.55234  -0.54612  -0.51595  -0.51286
 Alpha  occ. eigenvalues --   -0.49112  -0.48660  -0.47923  -0.47515  -0.45095
 Alpha  occ. eigenvalues --   -0.44636  -0.44396  -0.44339  -0.44152  -0.43665
 Alpha  occ. eigenvalues --   -0.42672  -0.42199  -0.41958  -0.40575  -0.39625
 Alpha  occ. eigenvalues --   -0.39017  -0.38474  -0.38150  -0.37505  -0.36821
 Alpha  occ. eigenvalues --   -0.36070  -0.35856  -0.34595  -0.33738  -0.33140
 Alpha  occ. eigenvalues --   -0.29450  -0.27733  -0.27060  -0.26899  -0.26552
 Alpha  occ. eigenvalues --   -0.25695  -0.21218
 Alpha virt. eigenvalues --   -0.10212  -0.05898  -0.03035  -0.01844  -0.01404
 Alpha virt. eigenvalues --   -0.00385  -0.00086   0.00482   0.00842   0.01534
 Alpha virt. eigenvalues --    0.01759   0.02480   0.03211   0.03314   0.03518

  Beta  occ. eigenvalues --  -19.11383 -19.10808 -14.34622 -10.26648 -10.26467
  Beta  occ. eigenvalues --  -10.23828 -10.21651 -10.20550 -10.19819 -10.19756
  Beta  occ. eigenvalues --  -10.19622 -10.19605 -10.19346 -10.19223 -10.19135
  Beta  occ. eigenvalues --  -10.18961 -10.18864 -10.18750 -10.18140 -10.17903
  Beta  occ. eigenvalues --  -10.17848 -10.17830  -1.04824  -1.04326  -0.96661
  Beta  occ. eigenvalues --   -0.88225  -0.86862  -0.81753  -0.80221  -0.77455
  Beta  occ. eigenvalues --   -0.76929  -0.76015  -0.75442  -0.68488  -0.67459
  Beta  occ. eigenvalues --   -0.65784  -0.64919  -0.62790  -0.60345  -0.57912
  Beta  occ. eigenvalues --   -0.55631  -0.55234  -0.54612  -0.51595  -0.51286
  Beta  occ. eigenvalues --   -0.49112  -0.48660  -0.47923  -0.47515  -0.45095
  Beta  occ. eigenvalues --   -0.44636  -0.44396  -0.44339  -0.44152  -0.43665
  Beta  occ. eigenvalues --   -0.42672  -0.42199  -0.41958  -0.40575  -0.39625
  Beta  occ. eigenvalues --   -0.39017  -0.38474  -0.38150  -0.37505  -0.36821
  Beta  occ. eigenvalues --   -0.36070  -0.35856  -0.34595  -0.33738  -0.33140
  Beta  occ. eigenvalues --   -0.29450  -0.27733  -0.27060  -0.26899  -0.26552
  Beta  occ. eigenvalues --   -0.25695  -0.21218
  Beta virt. eigenvalues --   -0.10212  -0.05898  -0.03035  -0.01844  -0.01404
  Beta virt. eigenvalues --   -0.00385  -0.00086   0.00482   0.00842   0.01534
  Beta virt. eigenvalues --    0.01759   0.02480   0.03211   0.03314   0.03518

 Mulliken charges and spin densities:
               1          2
     1  O   -0.219953   0.000000
     2  C   -0.705264   0.000000
     3  C    0.383537  -0.000000
     4  C    0.100108   0.000000
     5  C   -0.535985  -0.000000
     6  C   -0.405959   0.000000
     7  C   -0.016848   0.000000
     8  C    0.382360  -0.000000
     9  C   -0.603973  -0.000000
    10  O   -0.229797  -0.000000
    11  C    0.198026   0.000000
    12  C    0.013536  -0.000000
    13  C   -0.088092   0.000000
    14  C   -0.362744  -0.000000
    15  C   -0.026110  -0.000000
    16  C    0.440856   0.000000
    17  N    0.490315   0.000000
    18  C   -0.251175  -0.000000
    19  C   -0.521754   0.000000
    20  C   -0.481477  -0.000000
    21  C   -0.445541   0.000000
    22  C   -0.086413   0.000000
    23  H    0.196308  -0.000000
    24  H    0.169686  -0.000000
    25  H    0.174410  -0.000000
    26  H    0.186449   0.000000
    27  H    0.144747   0.000000
    28  H    0.191466  -0.000000
    29  H    0.182359   0.000000
    30  H    0.222046  -0.000000
    31  H    0.161626   0.000000
    32  H    0.173782  -0.000000
    33  H    0.170911  -0.000000
    34  H    0.153408   0.000000
    35  H    0.148232   0.000000
    36  H    0.172385   0.000000
    37  H    0.186885  -0.000000
    38  H    0.180820   0.000000
    39  H    0.156825  -0.000000
 Sum of Mulliken charges =  -0.00000  -0.00000

 Dipole moment (field-independent basis, Debye):
    X=             -3.5897    Y=              1.1088    Z=              0.7014  Tot=              3.8220
 Quadrupole moment (field-independent basis, Debye-Ang):
   XX=           -118.8073   YY=           -128.6022   ZZ=           -129.4646
   XY=             13.4887   XZ=              5.1766   YZ=              7.9895

  Exact polarizability: 326.823   6.187 263.953  41.438  30.855 155.531
 Approx polarizability: 470.704 -12.670 463.068  68.127  35.483 248.297

                      1                      2                      3
                      A                      A                      A
 Frequencies --     33.5757                43.6824                67.8630
 Red. masses --      5.4130                 4.7911                 3.7760
 Frc consts  --      0.0036                 0.0054                 0.0102
 IR Inten    --      3.7434                 0.1513                 0.3573

                      4                      5                      6
                      A                      A                      A
 Frequencies --     86.5072               112.3022               129.8056
 Red. masses --      3.1953                 4.3368                 2.4210
 Frc consts  --      0.0141                 0.0322                 0.0240
 IR Inten    --      0.6629                 0.4200                 1.9553

                      7                      8                      9
                      A                      A                      A
 Frequencies --    152.3592               191.0291               201.1502
 Red. masses --      5.5660                 6.1321                 4.3580
 Frc consts  --      0.0761                 0.1318                 0.1039
 IR Inten    --      2.0625                 3.0860                 3.3672

                     10                     11                     12
                      A                      A                      A
 Frequencies --    214.2735               257.2814               267.2577
 Red. masses --      3.7716                 4.2363                 4.4304
 Frc consts  --      0.1020                 0.1652                 0.1864
 IR Inten    --      0.5309                 0.6222                 0.7029

                     13                     14                     15
                      A                      A                      A
 Frequencies --    289.8283               310.9789               333.1877
 Red. masses --      1.9831                 5.9815                 2.7705
 Frc consts  --      0.0981                 0.3408                 0.1812
 IR Inten    --      0.2313                 0.1916                 4.0244

                     16                     17                     18
                      A                      A                      A
 Frequencies --    347.1220               393.9646               414.5000
 Red. masses --      5.4377                 9.8264                 6.0741
 Frc consts  --      0.3860                 0.8986                 0.6149
 IR Inten    --      1.8414                28.3350                 1.2939

                     19                     20                     21
                      A                      A                      A
 Frequencies --    431.7927               436.0583               466.2262
 Red. masses --      3.7889                 5.5762                 4.1864
 Frc consts  --      0.4162                 0.6247                 0.5361
 IR Inten    --      0.5524                 2.1192                 0.1208

                     22                     23                     24
                      A                      A                      A
 Frequencies --    480.6408               492.0328               511.0229
 Red. masses --      4.3054                 4.9227                 4.7611
 Frc consts  --      0.5860                 0.7022                 0.7325
 IR Inten    --      3.8290                 2.6587                 4.4115

                     25                     26                     27
                      A                      A                      A
 Frequencies --    541.4641               570.0607               612.6194
 Red. masses --      3.7393                 4.0477                 2.1967
 Frc consts  --      0.6459                 0.7750                 0.4857
 IR Inten    --      0.2766                 7.5118                 1.2348

                     28                     29                     30
                      A                      A                      A
 Frequencies --    628.8917               666.3560               676.0203
 Red. masses --      5.9962                 5.6072                 4.7151
 Frc consts  --      1.3973                 1.4669                 1.2696
 IR Inten    --      4.4467                 7.8614                 5.0091

                     31                     32                     33
                      A                      A                      A
 Frequencies --    696.7452               727.8439               746.4964
 Red. masses --      6.2735                 2.3781                 2.4911
 Frc consts  --      1.7944                 0.7422                 0.8179
 IR Inten    --      0.3223                62.1524                11.0251

                     34                     35                     36
                      A                      A                      A
 Frequencies --    764.5914               779.3738               790.8786
 Red. masses --      4.5449                 1.3196                 1.9037
 Frc consts  --      1.5654                 0.4723                 0.7016
 IR Inten    --      1.7807                 0.8816                13.4549

                     37                     38                     39
                      A                      A                      A
 Frequencies --    809.8655               819.7572               839.8932
 Red. masses --      2.5747                 3.6730                 3.7295
 Frc consts  --      0.9950                 1.4542                 1.5501
 IR Inten    --     15.7813                 8.7363                10.0828

                     40                     41                     42
                      A                      A                      A
 Frequencies --    851.7161               892.4560               911.6615
 Red. masses --      3.4275                 1.4506                 1.4176
 Frc consts  --      1.4649                 0.6807                 0.6942
 IR Inten    --      3.1119                 1.6985                 0.5891

                     43                     44                     45
                      A                      A                      A
 Frequencies --    918.2991               922.6048               922.7281
 Red. masses --      2.4052                 1.8695                 3.2810
 Frc consts  --      1.1950                 0.9376                 1.6459
 IR Inten    --     10.7838                 2.2750                26.4327

                     46                     47                     48
                      A                      A                      A
 Frequencies --    934.2576               996.9698               998.1464
 Red. masses --      4.7091                 1.3848                 1.4699
 Frc consts  --      2.4217                 0.8110                 0.8628
 IR Inten    --     53.9494                 2.8036                 1.5778

                     49                     50                     51
                      A                      A                      A
 Frequencies --    999.5516              1014.5298              1015.3664
 Red. masses --      1.3946                 1.3354                 2.5225
 Frc consts  --      0.8209                 0.8098                 1.5322
 IR Inten    --      2.8451                 0.4078                30.2961

                     52                     53                     54
                      A                      A                      A
 Frequencies --   1038.8186              1054.3157              1085.7148
 Red. masses --      2.0862                 2.1214                 2.3322
 Frc consts  --      1.3264                 1.3893                 1.6197
 IR Inten    --     15.6395                 6.2115                17.7980

                     55                     56                     57
                      A                      A                      A
 Frequencies --   1093.3947              1102.2578              1112.7765
 Red. masses --      2.1341                 2.2955                 2.3724
 Frc consts  --      1.5032                 1.6432                 1.7308
 IR Inten    --     18.6040                13.2060                 1.1416

                     58                     59                     60
                      A                      A                      A
 Frequencies --   1134.9643              1149.5641              1172.2837
 Red. masses --      2.1924                 2.3126                 1.9477
 Frc consts  --      1.6640                 1.8006                 1.5771
 IR Inten    --      1.6195                14.0233                 7.6763

                     61                     62                     63
                      A                      A                      A
 Frequencies --   1182.3182              1200.9121              1203.6128
 Red. masses --      1.2594                 1.5150                 1.2030
 Frc consts  --      1.0373                 1.2873                 1.0268
 IR Inten    --     17.3420                45.1738                 1.1274

                     64                     65                     66
                      A                      A                      A
 Frequencies --   1212.4371              1243.5312              1264.6874
 Red. masses --      1.5520                 2.0341                 1.2024
 Frc consts  --      1.3442                 1.8533                 1.1331
 IR Inten    --      0.4010               151.8151                 4.6894

                     67                     68                     69
                      A                      A                      A
 Frequencies --   1276.1032              1279.2221              1288.0860
 Red. masses --      1.8594                 1.8292                 2.0080
 Frc consts  --      1.7840                 1.7636                 1.9629
 IR Inten    --    151.9221                87.9689               251.6629

                     70                     71                     72
                      A                      A                      A
 Frequencies --   1300.2571              1321.5997              1351.5443
 Red. masses --      1.2333                 2.5935                 2.6663
 Frc consts  --      1.2285                 2.6689                 2.8695
 IR Inten    --     31.4086               100.4235                32.0310

                     73                     74                     75
                      A                      A                      A
 Frequencies --   1356.6244              1360.2119              1369.0405
 Red. masses --      2.8120                 2.8329                 1.3095
 Frc consts  --      3.0492                 3.0881                 1.4460
 IR Inten    --      3.9587                 5.9142                 6.9930

                     76                     77                     78
                      A                      A                      A
 Frequencies --   1384.9299              1389.3931              1401.5387
 Red. masses --      1.4435                 1.4118                 1.5381
 Frc consts  --      1.6313                 1.6058                 1.7801
 IR Inten    --      7.9099                 0.2646                 1.8739

                     79                     80                     81
                      A                      A                      A
 Frequencies --   1417.6587              1449.2651              1480.0780
 Red. masses --      2.7231                 3.6475                 2.3896
 Frc consts  --      3.2245                 4.5137                 3.0842
 IR Inten    --    169.6745                49.8804                23.1304

                     82                     83                     84
                      A                      A                      A
 Frequencies --   1485.3884              1490.6935              1494.0899
 Red. masses --      1.2620                 1.7632                 1.0852
 Frc consts  --      1.6405                 2.3085                 1.4273
 IR Inten    --     47.7180               122.1979                 8.8122

                     85                     86                     87
                      A                      A                      A
 Frequencies --   1506.4989              1507.3105              1515.7683
 Red. masses --      1.4634                 1.8205                 1.0874
 Frc consts  --      1.9569                 2.4369                 1.4720
 IR Inten    --      0.3588                 0.1560                 1.7561

                     88                     89                     90
                      A                      A                      A
 Frequencies --   1523.5064              1581.6224              1614.7668
 Red. masses --      1.1317                 5.4199                 6.4911
 Frc consts  --      1.5476                 7.9882                 9.9722
 IR Inten    --      2.2652                46.3974                51.2646

                     91                     92                     93
                      A                      A                      A
 Frequencies --   1620.5039              1629.6972              1686.6702
 Red. masses --      6.1692                 5.8834                11.2540
 Frc consts  --      9.5451                 9.2064                18.8633
 IR Inten    --    109.7185                66.4738               119.9804

                     94                     95                     96
                      A                      A                      A
 Frequencies --   1718.3412              2948.5406              3023.0266
 Red. masses --     12.1585                 1.0728                 1.0669
 Frc consts  --     21.1518                 5.4950                 5.7447
 IR Inten    --    239.9139                77.7069                17.2006

                     97                     98                     99
                      A                      A                      A
 Frequencies --   3029.4310              3034.8241              3040.4295
 Red. masses --      1.0624                 1.0594                 1.0647
 Frc consts  --      5.7444                 5.7486                 5.7990
 IR Inten    --     29.2152                26.2394                28.4787

                    100                    101                    102
                      A                      A                      A
 Frequencies --   3056.0153              3064.2229              3072.3501
 Red. masses --      1.0987                 1.0891                 1.0978
 Frc consts  --      6.0459                 6.0248                 6.1056
 IR Inten    --     17.1934                34.8075                16.2082

                    103                    104                    105
                      A                      A                      A
 Frequencies --   3074.2883              3085.0772              3167.1281
 Red. masses --      1.1044                 1.1055                 1.0868
 Frc consts  --      6.1501                 6.1992                 6.4231
 IR Inten    --     29.7876                59.6660                 3.5482

                    106                    107                    108
                      A                      A                      A
 Frequencies --   3170.2097              3182.1215              3199.4226
 Red. masses --      1.0889                 1.0919                 1.0927
 Frc consts  --      6.4481                 6.5144                 6.5903
 IR Inten    --     13.2825                14.4571                 2.6044

                    109                    110                    111
                      A                      A                      A
 Frequencies --   3202.4694              3209.6513              3214.1016
 Red. masses --      1.0941                 1.0912                 1.0921
 Frc consts  --      6.6109                 6.6234                 6.6468
 IR Inten    --     11.7362                 0.4049                10.8714

 - Thermochemistry -
 -------------------
 Temperature   298.150 Kelvin.  Pressure   1.00000 Atm.
 Atom     1 has atomic number  8 and mass  15.99491

 Molecular mass:   291.12593 amu.
 Principal axes and moments of inertia in atomic units:
                           1         2         3
     Eigenvalues --  3526.556758933.14082**********
           X            0.98976  -0.04082  -0.13676
           Y            0.00221   0.96251  -0.27122
           Z            0.14271   0.26814   0.95275
 This molecule is an asymmetric top.
 Rotational symmetry number  1.
 Warning -- assumption of classical behavior for rotation
           may cause significant error
 Rotational temperatures (Kelvin)      0.02456     0.00970     0.00739
 Rotational constants (GHZ):           0.51176     0.20203     0.15392
 Zero-point vibrational energy     834627.9 (Joules/Mol)
                                  199.48087 (Kcal/Mol)
 Warning -- explicit consideration of  27 degrees of freedom as
           vibrations may cause significant error
 Vibrational temperatures:     48.31    62.85    97.64   124.46   161.58
          (Kelvin)            186.76   219.21   274.85   289.41   308.29
                              370.17   384.52   417.00   447.43   479.38
                              499.43   566.83   596.37   621.25   627.39
                              670.80   691.53   707.93   735.25   779.05
                              820.19   881.42   904.83   958.74   972.64
                             1002.46  1047.21  1074.04  1100.08  1121.35
                             1137.90  1165.22  1179.45  1208.42  1225.43
                             1284.05  1311.68  1321.23  1327.42  1327.60
                             1344.19  1434.42  1436.11  1438.13  1459.68
                             1460.89  1494.63  1516.93  1562.10  1573.15
                             1585.90  1601.04  1632.96  1653.97  1686.65
                             1701.09  1727.84  1731.73  1744.43  1789.16
                             1819.60  1836.03  1840.52  1853.27  1870.78
                             1901.49  1944.57  1951.88  1957.04  1969.74
                             1992.61  1999.03  2016.50  2039.69  2085.17
                             2129.50  2137.14  2144.78  2149.66  2167.52
                             2168.68  2180.85  2191.99  2275.60  2323.29
                             2331.54  2344.77  2426.74  2472.31  4242.29
                             4349.46  4358.68  4366.43  4374.50  4396.92
                             4408.73  4420.43  4423.22  4438.74  4556.79
                             4561.22  4578.36  4603.26  4607.64  4617.97
                             4624.38

 Zero-point correction=                           0.317893 (Hartree/Particle)
 Thermal correction to Energy=                    0.335083
 Thermal correction to Enthalpy=                  0.336027
 Thermal correction to Gibbs Free Energy=         0.272739
 Sum of electronic and zero-point Energies=           -939.392823
 Sum of electronic and thermal Energies=              -939.375633
 Sum of electronic and thermal Enthalpies=            -939.374689
 Sum of electronic and thermal Free Energies=         -939.437977

                     E (Thermal)             CV                S
                      KCal/Mol        Cal/Mol-Kelvin    Cal/Mol-Kelvin
 Total                  210.268             69.823            133.201
 Electronic               0.000              0.000              0.000
 Translational            0.889              2.981             42.903
 Rotational               0.889              2.981             34.268
 Vibrational            208.490             63.861             56.030
 Vibration     1          0.594              1.983              5.606
 Vibration     2          0.595              1.980              5.085
 Vibration     3          0.598              1.970              4.214
 Vibration     4          0.601              1.959              3.738
 Vibration     5          0.607              1.939              3.229
 Vibration     6          0.612              1.923              2.949
 Vibration     7          0.619              1.900              2.643
 Vibration     8          0.634              1.852              2.218
 Vibration     9          0.638              1.838              2.123
 Vibration    10          0.644              1.819              2.007
 Vibration    11          0.667              1.750              1.680
 Vibration    12          0.672              1.733              1.614
 Vibration    13          0.686              1.693              1.475
 Vibration    14          0.700              1.653              1.357
 Vibration    15          0.715              1.609              1.245
 Vibration    16          0.725              1.581              1.179
 Vibration    17          0.761              1.483              0.985
 Vibration    18          0.778              1.439              0.911
 Vibration    19          0.793              1.401              0.853
 Vibration    20          0.797              1.392              0.839
 Vibration    21          0.824              1.325              0.748
 Vibration    22          0.837              1.293              0.708
 Vibration    23          0.848              1.268              0.678
 Vibration    24          0.866              1.226              0.631
 Vibration    25          0.897              1.158              0.562
 Vibration    26          0.926              1.096              0.504
 Vibration    27          0.972              1.005              0.428

                           ! Non-Optimized Parameters !
 Normal termination of Gaussian 16 at Thu Dec 21 22:48:10 2023.
