 Gaussian 16, Revision A.03,
 Gaussian 16:  ES64L-G16RevA.03 25-Dec-2016

 --------------------------------------
 #P UB3LYP/6-311++G(d,p) nosym opt freq
 --------------------------------------

 -------
 Radical
 -------
 Symbolic Z-matrix:
 Charge = -1 Multiplicity = 2

 SCF Done:  E(UB3LYP) =  -817.292060409     A.U. after   28 cycles
 SCF Done:  E(UB3LYP) =  -817.313944908     A.U. after   23 cycles
 SCF Done:  E(UB3LYP) =  -817.314133063     A.U. after   21 cycles
 SCF Done:  E(UB3LYP) =  -817.313063831     A.U. after   23 cycles
 SCF Done:  E(UB3LYP) =  -817.316042332     A.U. after   22 cycles
 SCF Done:  E(UB3LYP) =  -817.318222986     A.U. after   22 cycles
 SCF Done:  E(UB3LYP) =  -817.318205804     A.U. after   22 cycles
 SCF Done:  E(UB3LYP) =  -817.318830196     A.U. after   21 cycles
 SCF Done:  E(UB3LYP) =  -817.318894368     A.U. after   17 cycles
 SCF Done:  E(UB3LYP) =  -817.318955215     A.U. after   17 cycles
 SCF Done:  E(UB3LYP) =  -817.318962535     A.U. after   17 cycles
 SCF Done:  E(UB3LYP) =  -817.318965106     A.U. after   16 cycles
 SCF Done:  E(UB3LYP) =  -817.318965319     A.U. after   13 cycles
 Optimization completed.
    -- Stationary point found.
 Normal termination of Gaussian 16 at Wed Dec 20 02:52:46 2023.

 ----------------------------------------------------------------------
 #P Geom=AllCheck Guess=TCheck SCRF=Check GenChk UB3LYP/6-311++G(d,p) F
 req
 ----------------------------------------------------------------------

 Structure from the checkpoint file:  "099-rad.chk"
 -------
 Radical
 -------
 Charge = -1 Multiplicity = 2

                          Input orientation:
 ---------------------------------------------------------------------
 Center     Atomic      Atomic             Coordinates (Angstroms)
 Number     Number       Type             X           Y           Z
 ---------------------------------------------------------------------
      1          6           0       -0.089243   -0.794477    1.463572
      2          6           0       -0.120676   -0.795633   -0.000787
      3          6           0       -0.662070   -1.860776   -0.693573
      4          6           0       -1.233324   -3.020472   -0.052454
      5          6           0       -1.191750   -3.007835    1.398954
      6          6           0       -0.652087   -1.969965    2.100293
      7          8           0        0.413255    0.147502    2.128046
      8          8           0       -1.731077   -3.980388   -0.706629
      9          6           0        0.547287    0.303096   -0.724142
     10          1           0       -1.615054   -3.870588    1.906000
     11          1           0       -0.700555   -1.850216   -1.778957
     12          1           0       -0.627009   -1.974613    3.186127
     13          6           0        0.445772    1.672859   -0.411767
     14          6           0        1.199995    2.651099   -1.056433
     15          6           0        2.065477    2.297649   -2.083409
     16          6           0        2.171486    0.954168   -2.446027
     17          6           0        1.438568   -0.012083   -1.768775
     18          7           0       -0.563596    2.191045    0.539156
     19          8           0       -0.270359    3.191836    1.186985
     20          8           0       -1.660578    1.654030    0.555146
     21          1           0        1.082853    3.681485   -0.748496
     22          1           0        2.645404    3.059289   -2.592257
     23          1           0        2.844415    0.655300   -3.243164
     24          1           0        1.569713   -1.058364   -2.017182
 ---------------------------------------------------------------------

 SCF Done:  E(UB3LYP) =  -817.318965319     A.U. after    1 cycles

 Alpha  occ. eigenvalues --  -19.04629 -19.04519 -18.95172 -18.94769 -14.43953
 Alpha  occ. eigenvalues --  -10.13166 -10.10377 -10.10011 -10.09760 -10.09617
 Alpha  occ. eigenvalues --  -10.09443 -10.09255 -10.08826 -10.06033 -10.04544
 Alpha  occ. eigenvalues --  -10.04459 -10.04367  -1.12279  -0.94878  -0.87702
 Alpha  occ. eigenvalues --   -0.86724  -0.78752  -0.71139  -0.70150  -0.67438
 Alpha  occ. eigenvalues --   -0.62465  -0.59287  -0.56192  -0.52966  -0.49828
 Alpha  occ. eigenvalues --   -0.47881  -0.45796  -0.43750  -0.42511  -0.40805
 Alpha  occ. eigenvalues --   -0.40205  -0.37064  -0.35883  -0.34788  -0.34705
 Alpha  occ. eigenvalues --   -0.33336  -0.31047  -0.29384  -0.28796  -0.27688
 Alpha  occ. eigenvalues --   -0.27491  -0.27244  -0.24956  -0.24550  -0.23936
 Alpha  occ. eigenvalues --   -0.20632  -0.20414  -0.19864  -0.18045  -0.16855
 Alpha  occ. eigenvalues --   -0.15304  -0.13225  -0.11588  -0.10930  -0.03665
 Alpha virt. eigenvalues --    0.02067   0.06506   0.06588   0.08394   0.08758
 Alpha virt. eigenvalues --    0.10082   0.10562   0.11573   0.11917   0.12521
 Alpha virt. eigenvalues --    0.12721   0.14226   0.14870   0.15309   0.15836

  Beta  occ. eigenvalues --  -19.04621 -19.04522 -18.94512 -18.93981 -14.43955
  Beta  occ. eigenvalues --  -10.13139 -10.10384 -10.09916 -10.09770 -10.09622
  Beta  occ. eigenvalues --  -10.09420 -10.09181 -10.08809 -10.05919 -10.04373
  Beta  occ. eigenvalues --  -10.04358 -10.04271  -1.12276  -0.94873  -0.86575
  Beta  occ. eigenvalues --   -0.85356  -0.78703  -0.70709  -0.70086  -0.67197
  Beta  occ. eigenvalues --   -0.62261  -0.59175  -0.55377  -0.52711  -0.49748
  Beta  occ. eigenvalues --   -0.47577  -0.45629  -0.43591  -0.42461  -0.40792
  Beta  occ. eigenvalues --   -0.40131  -0.37005  -0.35769  -0.34570  -0.34414
  Beta  occ. eigenvalues --   -0.33122  -0.30881  -0.29037  -0.28703  -0.27273
  Beta  occ. eigenvalues --   -0.26769  -0.26104  -0.24452  -0.23706  -0.21931
  Beta  occ. eigenvalues --   -0.20497  -0.20332  -0.19692  -0.17704  -0.16777
  Beta  occ. eigenvalues --   -0.12679  -0.11720  -0.10946  -0.10206
  Beta virt. eigenvalues --    0.02071   0.03419   0.06577   0.06957   0.08516
  Beta virt. eigenvalues --    0.08833   0.10094   0.10575   0.11879   0.12330
  Beta virt. eigenvalues --    0.12739   0.12957   0.14324   0.14884   0.15840

 Mulliken charges and spin densities:
               1          2
     1  C   -1.589755   0.041950
     2  C    2.159723   0.076731
     3  C   -0.252313   0.111554
     4  C   -0.572957   0.082296
     5  C    0.079967   0.065682
     6  C    0.021557   0.068585
     7  O   -0.323605   0.242364
     8  O   -0.404510   0.280818
     9  C    1.237081   0.016300
    10  H    0.156876  -0.005568
    11  H    0.175685  -0.011762
    12  H    0.157914  -0.007058
    13  C   -0.606017   0.029353
    14  C   -0.163667  -0.008512
    15  C   -0.412280   0.018206
    16  C   -0.386307  -0.005139
    17  C   -0.768482   0.005348
    18  N   -0.175071  -0.000399
    19  O   -0.003497  -0.001049
    20  O   -0.000334   0.002496
    21  H    0.210778   0.000459
    22  H    0.140878  -0.001421
    23  H    0.146239   0.000576
    24  H    0.172096  -0.001813
 Sum of Mulliken charges =  -1.00000   1.00000

 Dipole moment (field-independent basis, Debye):
    X=              4.7254    Y=              4.7272    Z=             -4.1052  Tot=              7.8440
 Quadrupole moment (field-independent basis, Debye-Ang):
   XX=           -111.7127   YY=           -143.2059   ZZ=           -111.3337
   XY=            -11.6242   XZ=             -6.6242   YZ=            -14.2887

  Exact polarizability: 151.054  61.227 251.186 -33.018  -9.450 189.102
 Approx polarizability: 248.059 102.414 398.459 -30.308  32.975 312.662

                      1                      2                      3
                      A                      A                      A
 Frequencies --     50.5105                72.6231                80.2927
 Red. masses --     10.3883                 4.7354                 9.4568
 Frc consts  --      0.0156                 0.0147                 0.0359
 IR Inten    --      1.6177                 2.6042                 0.6016

                      4                      5                      6
                      A                      A                      A
 Frequencies --    106.0440               135.6594               148.5356
 Red. masses --      6.8536                 9.0020                 7.4534
 Frc consts  --      0.0454                 0.0976                 0.0969
 IR Inten    --      1.8248                 9.4170                 1.2504

                      7                      8                      9
                      A                      A                      A
 Frequencies --    189.9555               251.1348               267.9018
 Red. masses --      8.1565                 6.7998                 7.4317
 Frc consts  --      0.1734                 0.2527                 0.3143
 IR Inten    --      1.1921                 3.3604                 5.2245

                     10                     11                     12
                      A                      A                      A
 Frequencies --    308.9277               342.1251               389.3445
 Red. masses --      7.3094                 5.2899                 8.0852
 Frc consts  --      0.4110                 0.3648                 0.7221
 IR Inten    --      1.8403                 0.3278                 3.8621

                     13                     14                     15
                      A                      A                      A
 Frequencies --    415.3584               422.7872               462.1661
 Red. masses --      4.7258                 5.6778                 4.6969
 Frc consts  --      0.4804                 0.5980                 0.5911
 IR Inten    --      1.6352                 1.9045                 6.9759

                     16                     17                     18
                      A                      A                      A
 Frequencies --    476.9855               511.1795               570.4275
 Red. masses --     10.3994                 3.3448                 4.6408
 Frc consts  --      1.3940                 0.5150                 0.8897
 IR Inten    --      3.2094                 0.2488                 4.4075

                     19                     20                     21
                      A                      A                      A
 Frequencies --    572.0917               621.3050               638.8079
 Red. masses --      4.6411                 3.3236                 5.9398
 Frc consts  --      0.8950                 0.7559                 1.4281
 IR Inten    --      0.7071                 5.2175                 1.0063

                     22                     23                     24
                      A                      A                      A
 Frequencies --    671.7827               716.4145               727.5859
 Red. masses --      6.4639                 4.1315                 6.9330
 Frc consts  --      1.7187                 1.2493                 2.1624
 IR Inten    --      1.0194                27.7787                 9.5004

                     25                     26                     27
                      A                      A                      A
 Frequencies --    746.8244               761.5718               787.9101
 Red. masses --      2.4268                 2.2688                 2.5999
 Frc consts  --      0.7975                 0.7753                 0.9510
 IR Inten    --     31.7714                10.3860                10.6414

                     28                     29                     30
                      A                      A                      A
 Frequencies --    820.4464               828.7455               861.4774
 Red. masses --      4.7063                 1.9974                 8.5778
 Frc consts  --      1.8665                 0.8083                 3.7507
 IR Inten    --     26.2015                22.3026                12.2071

                     31                     32                     33
                      A                      A                      A
 Frequencies --    877.3386               886.2059               896.4369
 Red. masses --      1.6037                 2.1298                 3.0987
 Frc consts  --      0.7273                 0.9855                 1.4672
 IR Inten    --     13.5294                31.1765                 2.3693

                     34                     35                     36
                      A                      A                      A
 Frequencies --    960.6624               964.7190               984.3271
 Red. masses --      1.3802                 1.2845                 1.3159
 Frc consts  --      0.7505                 0.7044                 0.7512
 IR Inten    --      1.6365                 0.7471                 0.5150

                     37                     38                     39
                      A                      A                      A
 Frequencies --   1000.2770              1062.1604              1090.6436
 Red. masses --      3.3382                 2.6445                 2.5573
 Frc consts  --      1.9679                 1.7578                 1.7922
 IR Inten    --     20.6864                19.2868                 1.3392

                     40                     41                     42
                      A                      A                      A
 Frequencies --   1106.8777              1153.7341              1176.0515
 Red. masses --      1.8553                 1.8453                 1.1496
 Frc consts  --      1.3392                 1.4472                 0.9368
 IR Inten    --      2.8145                24.9176                15.0103

                     43                     44                     45
                      A                      A                      A
 Frequencies --   1193.4225              1247.1419              1254.0416
 Red. masses --      1.8910                 1.5163                 3.1369
 Frc consts  --      1.5868                 1.3895                 2.9066
 IR Inten    --     54.9005                38.8494                 6.2309

                     46                     47                     48
                      A                      A                      A
 Frequencies --   1279.3667              1335.6040              1346.4805
 Red. masses --      1.9919                 4.3942                 2.2345
 Frc consts  --      1.9209                 4.6184                 2.3869
 IR Inten    --      4.0189                45.3144                 8.9312

                     49                     50                     51
                      A                      A                      A
 Frequencies --   1375.8622              1420.5803              1464.5406
 Red. masses --     11.0313                 4.1163                 2.3718
 Frc consts  --     12.3034                 4.8943                 2.9974
 IR Inten    --    174.1712                38.9778                 4.1909

                     52                     53                     54
                      A                      A                      A
 Frequencies --   1484.4615              1494.2834              1512.7070
 Red. masses --      6.5153                 2.9863                 5.5492
 Frc consts  --      8.4591                 3.9287                 7.4815
 IR Inten    --    143.2262                71.5991               111.6485

                     55                     56                     57
                      A                      A                      A
 Frequencies --   1540.6130              1574.4330              1599.9352
 Red. masses --      6.6489                 9.2135                 6.3876
 Frc consts  --      9.2980                13.4562                 9.6336
 IR Inten    --    343.9856               108.3624               113.8458

                     58                     59                     60
                      A                      A                      A
 Frequencies --   1631.9642              1644.6273              3138.4699
 Red. masses --      6.4897                 7.0492                 1.0854
 Frc consts  --     10.1835                11.2337                 6.2990
 IR Inten    --    109.5576                40.3211                16.0544

                     61                     62                     63
                      A                      A                      A
 Frequencies --   3150.0229              3154.1355              3161.0014
 Red. masses --      1.0890                 1.0860                 1.0949
 Frc consts  --      6.3667                 6.3654                 6.4455
 IR Inten    --     18.7471                 6.8751                40.7219

                     64                     65                     66
                      A                      A                      A
 Frequencies --   3174.2211              3187.8300              3208.2112
 Red. masses --      1.0916                 1.0932                 1.0928
 Frc consts  --      6.4799                 6.5453                 6.6271
 IR Inten    --     25.5956                12.2482                 5.6835

 - Thermochemistry -
 -------------------
 Temperature   298.150 Kelvin.  Pressure   1.00000 Atm.
 Atom     1 has atomic number  6 and mass  12.00000

 Molecular mass:   229.03751 amu.
 Principal axes and moments of inertia in atomic units:
                           1         2         3
     Eigenvalues --  2212.847324846.470836195.81413
           X            0.35794  -0.40022   0.84362
           Y            0.90804   0.35974  -0.21461
           Z           -0.21759   0.84286   0.49218
 This molecule is an asymmetric top.
 Rotational symmetry number  1.
 Warning -- assumption of classical behavior for rotation
           may cause significant error
 Rotational temperatures (Kelvin)      0.03914     0.01787     0.01398
 Rotational constants (GHZ):           0.81557     0.37238     0.29128
 Zero-point vibrational energy     434784.6 (Joules/Mol)
                                  103.91602 (Kcal/Mol)
 Warning -- explicit consideration of  19 degrees of freedom as
           vibrations may cause significant error
 Vibrational temperatures:     72.67   104.49   115.52   152.57   195.18
          (Kelvin)            213.71   273.30   361.33   385.45   444.48
                              492.24   560.18   597.61   608.30   664.95
                              686.28   735.47   820.72   823.11   893.92
                              919.10   966.55  1030.76  1046.83  1074.51
                             1095.73  1133.63  1180.44  1192.38  1239.47
                             1262.29  1275.05  1289.77  1382.18  1388.02
                             1416.23  1439.18  1528.21  1569.19  1592.55
                             1659.97  1692.08  1717.07  1794.36  1804.29
                             1840.72  1921.64  1937.29  1979.56  2043.90
                             2107.15  2135.81  2149.94  2176.45  2216.60
                             2265.26  2301.95  2348.03  2366.25  4515.56
                             4532.18  4538.10  4547.98  4567.00  4586.58
                             4615.90

 Zero-point correction=                           0.165601 (Hartree/Particle)
 Thermal correction to Energy=                    0.178807
 Thermal correction to Enthalpy=                  0.179751
 Thermal correction to Gibbs Free Energy=         0.124523
 Sum of electronic and zero-point Energies=           -817.153365
 Sum of electronic and thermal Energies=              -817.140159
 Sum of electronic and thermal Enthalpies=            -817.139215
 Sum of electronic and thermal Free Energies=         -817.194443

                     E (Thermal)             CV                S
                      KCal/Mol        Cal/Mol-Kelvin    Cal/Mol-Kelvin
 Total                  112.203             51.199            116.237
 Electronic               0.000              0.000              1.377
 Translational            0.889              2.981             42.188
 Rotational               0.889              2.981             32.563
 Vibrational            110.425             45.238             40.108
 Vibration     1          0.595              1.977              4.797
 Vibration     2          0.599              1.967              4.081
 Vibration     3          0.600              1.963              3.884
 Vibration     4          0.605              1.944              3.340
 Vibration     5          0.613              1.918              2.864
 Vibration     6          0.618              1.904              2.691
 Vibration     7          0.633              1.854              2.228
 Vibration     8          0.663              1.761              1.723
 Vibration     9          0.673              1.732              1.610
 Vibration    10          0.698              1.657              1.368
 Vibration    11          0.721              1.591              1.202
 Vibration    12          0.757              1.493              1.003
 Vibration    13          0.779              1.437              0.908
 Vibration    14          0.785              1.421              0.883
 Vibration    15          0.820              1.334              0.760
 Vibration    16          0.834              1.301              0.718
 Vibration    17          0.866              1.225              0.631
 Vibration    18          0.927              1.095              0.503
 Vibration    19          0.928              1.092              0.500

                           ! Non-Optimized Parameters !
 Normal termination of Gaussian 16 at Wed Dec 20 03:37:13 2023.
