 Q-Chem 5.4, Q-Chem, Inc., Pleasanton, CA (2021)
 Q-Chem 5.4.0 for Intel X86 EM64T Linux

User input:
--------------------------------------------------------------
$molecule
-1 2
O                 -0.0188080000     -2.4876740000     -0.5749750000
C                 -0.0200970000     -1.2748830000     -0.2093370000
C                  1.2362020000     -0.5846950000      0.0813990000
C                  2.4366280000     -1.3390220000      0.1266000000
C                  3.6364800000     -0.7731280000      0.5125360000
C                  3.7099400000      0.5836310000      0.8815860000
C                  2.5593470000      1.3611930000      0.8244960000
C                  1.3542220000      0.7906750000      0.4171170000
S                 -0.0206500000      1.8821940000      0.1481030000
O                 -0.0138530000      2.3269080000     -1.2620650000
C                 -1.3987740000      0.7916600000      0.4041600000
C                 -2.6072710000      1.3630420000      0.8001780000
C                 -3.7589060000      0.5863020000      0.8464450000
C                 -3.6829410000     -0.7705170000      0.4781190000
C                 -2.4799160000     -1.3372700000      0.1034920000
C                 -1.2785810000     -0.5837990000      0.0695740000
H                  2.3628130000     -2.3868100000     -0.1381120000
H                  4.5325130000     -1.3864270000      0.5408490000
H                  4.6500690000      1.0216430000      1.1982620000
H                  2.5808600000      2.4127540000      1.0874050000
H                 -2.6305060000      2.4146210000      1.0628660000
H                 -4.7016600000      1.0249870000      1.1542580000
H                 -4.5796380000     -1.3831780000      0.4980060000
H                 -2.4043620000     -2.3851150000     -0.1605050000
O                 -0.0250550000      2.9566940000      1.1666240000
$end
$rem
MAX_SCF_CYCLES=200
BASIS  =  6-311++G(d,p)
GUI  =  2
JOB_TYPE  =  SP
METHOD  =  B3LYP
SOLVENT_METHOD = COSMO
$end
$solvent
dielectric 37.219
opticaldielectric 1.43
$end

--------------------------------------------------------------

             Standard Nuclear Orientation (Angstroms)
    I     Atom           X                Y                Z
 ----------------------------------------------------------------
    1      O      -0.0000015719     2.9239502614    -0.4969987084
    2      C       0.0000007510     1.6758429934    -0.2807047745
    3      C      -1.2574052629     0.9558307581    -0.0814898865
    4      C      -2.4582998839     1.6994128356     0.0489430010
    5      C      -3.6597516801     1.0912577531     0.3579549980
    6      C      -3.7344621618    -0.3001575270     0.5598735967
    7      C      -2.5833357698    -1.0653556639     0.4145944708
    8      C      -1.3765118275    -0.4500185407     0.0848811093
    9      S      -0.0000000413    -1.5012895956    -0.3076742977
   10      O      -0.0000055062    -1.7722064753    -1.7612886115
   11      C       1.3765148396    -0.4500194002     0.0848726556
   12      C       2.5833397902    -1.0653575460     0.4145772967
   13      C       3.7344669847    -0.3001599280     0.5598619258
   14      C       3.6597507021     1.0912593808     0.3579651541
   15      C       2.4582987323     1.6994145082     0.0489602867
   16      C       1.2574056983     0.9558324027    -0.0814863842
   17      H      -2.3836148187     2.7715069655    -0.0867666443
   18      H      -4.5561268936     1.6968238729     0.4560038514
   19      H      -4.6759137542    -0.7730491709     0.8168232608
   20      H      -2.6057095892    -2.1409882751     0.5483045529
   21      H       2.6057145188    -2.1409908893     0.5482766841
   22      H       4.6759193721    -0.7730513398     0.8168047047
   23      H       4.5561254035     1.6968269496     0.4560203317
   24      H       2.3836130759     2.7715107652    -0.0867365645
   25      O      -0.0000019377    -2.6910747244     0.5734420561
 ----------------------------------------------------------------

   10   -1124.2735557818      6.48e-06  Convergence criterion met
 Total energy in the final basis set =    -1124.2735557818
    5   -1124.3591912758      5.42e-06  Convergence criterion met
 Total energy in the final basis set =    -1124.3591912758

                    Orbital Energies (a.u.)
 --------------------------------------------------------------

 Alpha MOs
 -- Occupied --
-89.0520 -19.1208 -19.1195 -19.0736 -10.2221 -10.2062 -10.2062 -10.1895
-10.1895 -10.1878 -10.1878 -10.1787 -10.1787 -10.1765 -10.1764 -10.1744
-10.1744  -8.1164  -6.0792  -6.0779  -6.0774  -1.1122  -1.0049  -0.9993
 -0.8768  -0.8650  -0.7977  -0.7686  -0.7635  -0.7530  -0.6963  -0.6542
 -0.6313  -0.6019  -0.5855  -0.5535  -0.5494  -0.5090  -0.4833  -0.4769
 -0.4691  -0.4678  -0.4607  -0.4423  -0.4341  -0.4272  -0.4178  -0.4085
 -0.3866  -0.3831  -0.3667  -0.3607  -0.3593  -0.3588  -0.3361  -0.3337
 -0.3207  -0.3001  -0.2754  -0.2668  -0.2662  -0.2600  -0.2464  -0.1389

 Beta MOs
 -- Occupied --
-89.0521 -19.1205 -19.1190 -19.0669 -10.2186 -10.2046 -10.2046 -10.1893
-10.1893 -10.1885 -10.1885 -10.1791 -10.1791 -10.1747 -10.1747 -10.1734
-10.1734  -8.1164  -6.0792  -6.0780  -6.0774  -1.1111  -1.0038  -0.9870
 -0.8740  -0.8633  -0.7947  -0.7649  -0.7617  -0.7505  -0.6932  -0.6493
 -0.6286  -0.6008  -0.5832  -0.5506  -0.5478  -0.5072  -0.4819  -0.4751
 -0.4677  -0.4667  -0.4587  -0.4414  -0.4335  -0.4258  -0.4070  -0.3999
 -0.3853  -0.3790  -0.3654  -0.3583  -0.3578  -0.3404  -0.3338  -0.3326
 -0.3180  -0.2988  -0.2676  -0.2620  -0.2530  -0.2491  -0.2403

          Ground-State Mulliken Net Atomic Charges

     Atom                 Charge (a.u.)    Spin (a.u.)
  --------------------------------------------------------
      1 O                    -0.521724       0.251032
      2 C                    -0.010611       0.222885
      3 C                     1.507108      -0.017390
      4 C                     0.171869       0.121025
      5 C                    -0.636385      -0.027784
      6 C                    -0.217602       0.136361
      7 C                    -0.177792      -0.050006
      8 C                    -1.696794       0.081252
      9 S                     0.435186       0.047665
     10 O                    -0.174832       0.003121
     11 C                    -1.696496       0.081211
     12 C                    -0.178188      -0.049998
     13 C                    -0.217733       0.136368
     14 C                    -0.636330      -0.027783
     15 C                     0.172054       0.120993
     16 C                     1.508414      -0.017482
     17 H                     0.202808      -0.007239
     18 H                     0.203184       0.001070
     19 H                     0.214227      -0.009441
     20 H                     0.230686       0.003450
     21 H                     0.230931       0.003449
     22 H                     0.214245      -0.009442
     23 H                     0.203186       0.001070
     24 H                     0.202716      -0.007241
     25 O                    -0.332126       0.012855
  --------------------------------------------------------
  Sum of atomic charges =    -1.000000

                    Cartesian Multipole Moments
 -----------------------------------------------------------------
    Charge (ESU x 10^10)
                -4.8032
    Dipole Moment (Debye)
         X      -0.0001      Y      -0.9719      Z       3.9692
       Tot       4.0864
    Quadrupole Moments (Debye-Ang)
        XX     -92.4687     XY      -0.0019     YY    -142.6764
        XZ      -0.0000     YZ       0.2147     ZZ    -121.8606

 Total job time:  83.92s(wall), 641.15s(cpu)
        *  Thank you very much for using Q-Chem.  Have a nice day.  *
