 Gaussian 16, Revision A.03,
 Gaussian 16:  ES64L-G16RevA.03 25-Dec-2016

 ----------------------------------------------------------------------
 #P UB3LYP/6-311++G(d,p) nosym opt freq SCRF=(PCM,Solvent=n,n-DiMethylF
 ormamide)
 ----------------------------------------------------------------------

 -------
 Reduced
 -------
 Symbolic Z-matrix:
 Charge = -2 Multiplicity = 1

 SCF Done:  E(UB3LYP) =  -614.151772428     A.U. after   18 cycles
 SCF Done:  E(UB3LYP) =  -614.152596403     A.U. after   13 cycles
 SCF Done:  E(UB3LYP) =  -614.152759089     A.U. after   14 cycles
 SCF Done:  E(UB3LYP) =  -614.152777315     A.U. after   11 cycles
 SCF Done:  E(UB3LYP) =  -614.152778035     A.U. after   10 cycles
 SCF Done:  E(UB3LYP) =  -614.152779763     A.U. after   10 cycles
 SCF Done:  E(UB3LYP) =  -614.152779947     A.U. after    9 cycles
 SCF Done:  E(UB3LYP) =  -614.152779990     A.U. after    9 cycles
 Optimization completed.
    -- Stationary point found.
 Normal termination of Gaussian 16 at Sun Feb 11 02:11:39 2024.

 ----------------------------------------------------------------------
 #P Geom=AllCheck Guess=TCheck SCRF=Check GenChk UB3LYP/6-311++G(d,p) F
 req
 ----------------------------------------------------------------------

 Structure from the checkpoint file:  "244-an.chk"
 -------
 Reduced
 -------
 Charge = -2 Multiplicity = 1

                          Input orientation:
 ---------------------------------------------------------------------
 Center     Atomic      Atomic             Coordinates (Angstroms)
 Number     Number       Type             X           Y           Z
 ---------------------------------------------------------------------
      1          6           0        5.707661   -5.349773    1.211701
      2          6           0        6.649751   -5.190717    0.205576
      3          6           0        6.581167   -4.129322   -0.725316
      4          6           0        4.611496   -4.420145    1.332911
      5          6           0        4.552081   -3.329053    0.370601
      6          6           0        5.550373   -3.225175   -0.632860
      7          6           0        3.585698   -4.542117    2.366762
      8          6           0        2.572609   -3.549906    2.357220
      9          6           0        2.549117   -2.500801    1.412621
     10          6           0        3.498812   -2.330303    0.393780
     11          8           0        3.581821   -5.502148    3.259289
     12          8           0        3.451875   -1.347508   -0.480450
     13          6           0        5.906589   -6.530437    2.142242
     14          1           0        7.465082   -5.905630    0.135107
     15          6           0        1.482536   -3.626150    3.399162
     16          1           0        1.739971   -1.771826    1.467802
     17          1           0        5.465371   -2.398033   -1.328172
     18          1           0        7.336445   -4.036398   -1.500498
     19          1           0        6.807760   -7.079592    1.849741
     20          1           0        5.055351   -7.212265    2.121773
     21          1           0        6.005693   -6.217237    3.182604
     22          1           0        1.881904   -3.568898    4.420017
     23          1           0        0.931665   -4.573932    3.348009
     24          1           0        0.762810   -2.811222    3.274780
 ---------------------------------------------------------------------

 SCF Done:  E(UB3LYP) =  -614.152779990     A.U. after    1 cycles

 Alpha  occ. eigenvalues --  -19.00829 -19.00352 -10.16149 -10.16091 -10.15639
 Alpha  occ. eigenvalues --  -10.14273 -10.13904 -10.13862 -10.13779 -10.13741
 Alpha  occ. eigenvalues --  -10.13647 -10.13226 -10.12129 -10.11255  -0.91563
 Alpha  occ. eigenvalues --   -0.91129  -0.82122  -0.76757  -0.74126  -0.71662
 Alpha  occ. eigenvalues --   -0.66364  -0.65972  -0.61880  -0.57235  -0.55674
 Alpha  occ. eigenvalues --   -0.50304  -0.47011  -0.45706  -0.43265  -0.41150
 Alpha  occ. eigenvalues --   -0.39698  -0.39371  -0.38613  -0.37591  -0.36538
 Alpha  occ. eigenvalues --   -0.35207  -0.34872  -0.34803  -0.34281  -0.32550
 Alpha  occ. eigenvalues --   -0.30683  -0.30354  -0.29976  -0.29527  -0.21868
 Alpha  occ. eigenvalues --   -0.21325  -0.20396  -0.18909  -0.18105  -0.10637
 Alpha virt. eigenvalues --    0.00010   0.00118   0.00957   0.01331   0.01414
 Alpha virt. eigenvalues --    0.02736   0.03039   0.03455   0.04645   0.05109
 Alpha virt. eigenvalues --    0.05567   0.05926   0.06437   0.07239   0.08000

  Beta  occ. eigenvalues --  -19.00829 -19.00352 -10.16149 -10.16091 -10.15639
  Beta  occ. eigenvalues --  -10.14273 -10.13904 -10.13862 -10.13779 -10.13741
  Beta  occ. eigenvalues --  -10.13647 -10.13226 -10.12129 -10.11255  -0.91563
  Beta  occ. eigenvalues --   -0.91129  -0.82122  -0.76757  -0.74126  -0.71662
  Beta  occ. eigenvalues --   -0.66364  -0.65972  -0.61880  -0.57235  -0.55674
  Beta  occ. eigenvalues --   -0.50304  -0.47011  -0.45706  -0.43265  -0.41150
  Beta  occ. eigenvalues --   -0.39698  -0.39371  -0.38613  -0.37591  -0.36538
  Beta  occ. eigenvalues --   -0.35207  -0.34872  -0.34803  -0.34281  -0.32550
  Beta  occ. eigenvalues --   -0.30683  -0.30354  -0.29976  -0.29527  -0.21868
  Beta  occ. eigenvalues --   -0.21325  -0.20396  -0.18909  -0.18105  -0.10637
  Beta virt. eigenvalues --    0.00010   0.00118   0.00957   0.01331   0.01414
  Beta virt. eigenvalues --    0.02736   0.03039   0.03455   0.04645   0.05109
  Beta virt. eigenvalues --    0.05567   0.05926   0.06437   0.07239   0.08000

 Mulliken charges and spin densities:
               1          2
     1  C    0.566552  -0.000000
     2  C   -0.543623   0.000000
     3  C   -0.476323  -0.000000
     4  C    0.506264   0.000000
     5  C    0.513709  -0.000000
     6  C   -0.150024  -0.000000
     7  C   -0.927567  -0.000000
     8  C    0.556172   0.000000
     9  C   -0.320139  -0.000000
    10  C   -0.821744   0.000000
    11  O   -0.672947   0.000000
    12  O   -0.738927  -0.000000
    13  C   -0.460226  -0.000000
    14  H    0.098287   0.000000
    15  C   -0.348775   0.000000
    16  H    0.090986  -0.000000
    17  H    0.143968   0.000000
    18  H    0.159883  -0.000000
    19  H    0.125270   0.000000
    20  H    0.145095  -0.000000
    21  H    0.145809  -0.000000
    22  H    0.137163  -0.000000
    23  H    0.137552  -0.000000
    24  H    0.133588   0.000000
 Sum of Mulliken charges =  -2.00000  -0.00000

 Dipole moment (field-independent basis, Debye):
    X=            -35.8940    Y=             32.9739    Z=            -11.5207  Tot=             50.0838
 Quadrupole moment (field-independent basis, Debye-Ang):
   XX=           -234.4834   YY=           -240.4296   ZZ=           -136.0879
   XY=            126.3849   XZ=            -40.4955   YZ=             67.2711

  Exact polarizability: 297.090 -60.638 258.476 -80.936 -50.570 265.328
 Approx polarizability: 325.676 -66.942 287.875 -88.880 -59.800 294.532

                      1                      2                      3
                      A                      A                      A
 Frequencies --     65.8292                80.9299               127.4303
 Red. masses --      3.4805                 3.7715                 1.1572
 Frc consts  --      0.0089                 0.0146                 0.0111
 IR Inten    --      9.0304                12.5578                 5.5187

                      4                      5                      6
                      A                      A                      A
 Frequencies --    174.8627               191.1416               209.5966
 Red. masses --      3.6591                 1.1876                 3.1862
 Frc consts  --      0.0659                 0.0256                 0.0825
 IR Inten    --      0.7564                 2.0892                 4.0426

                      7                      8                      9
                      A                      A                      A
 Frequencies --    241.9599               259.3626               314.4702
 Red. masses --      3.8923                 3.6456                 4.1469
 Frc consts  --      0.1343                 0.1445                 0.2416
 IR Inten    --     19.4877                 1.0338                 0.3084

                     10                     11                     12
                      A                      A                      A
 Frequencies --    352.4664               360.3738               367.4890
 Red. masses --      4.1969                 6.2499                 6.5642
 Frc consts  --      0.3072                 0.4782                 0.5223
 IR Inten    --     18.9806                 1.8525                 0.9677

                     13                     14                     15
                      A                      A                      A
 Frequencies --    419.3533               477.7554               480.6433
 Red. masses --      5.3934                 6.3455                 3.5074
 Frc consts  --      0.5588                 0.8533                 0.4774
 IR Inten    --      3.6676                 1.5174                 0.1087

                     16                     17                     18
                      A                      A                      A
 Frequencies --    524.8440               526.4841               561.8813
 Red. masses --      3.9225                 6.7790                 4.9634
 Frc consts  --      0.6366                 1.1071                 0.9232
 IR Inten    --      1.7740                 0.7441                17.9207

                     19                     20                     21
                      A                      A                      A
 Frequencies --    654.7361               659.8475               686.6029
 Red. masses --      3.2836                 4.4590                 2.9366
 Frc consts  --      0.8293                 1.1439                 0.8157
 IR Inten    --      2.0518                 5.3421                26.8866

                     22                     23                     24
                      A                      A                      A
 Frequencies --    701.8511               767.7505               798.8300
 Red. masses --      6.4894                 1.6406                 3.8510
 Frc consts  --      1.8834                 0.5698                 1.4479
 IR Inten    --    125.1853                67.6477                25.4008

                     25                     26                     27
                      A                      A                      A
 Frequencies --    800.6459               835.7595               873.7948
 Red. masses --      4.5518                 1.6343                 1.3792
 Frc consts  --      1.7191                 0.6726                 0.6204
 IR Inten    --     20.4207                41.2906                 0.1379

                     28                     29                     30
                      A                      A                      A
 Frequencies --    887.0643               953.9464               969.8216
 Red. masses --      4.5787                 3.1923                 1.2782
 Frc consts  --      2.1228                 1.7116                 0.7083
 IR Inten    --     29.7866               179.0017                 2.5596

                     31                     32                     33
                      A                      A                      A
 Frequencies --   1008.7042              1015.6645              1042.7190
 Red. masses --      1.7487                 1.7423                 1.4520
 Frc consts  --      1.0483                 1.0589                 0.9302
 IR Inten    --     59.9800                97.1762                 2.1814

                     34                     35                     36
                      A                      A                      A
 Frequencies --   1047.7901              1082.6106              1123.3089
 Red. masses --      1.5286                 2.2368                 1.9863
 Frc consts  --      0.9887                 1.5447                 1.4767
 IR Inten    --      3.8873               139.0092               145.4166

                     37                     38                     39
                      A                      A                      A
 Frequencies --   1152.6922              1187.8591              1198.6921
 Red. masses --      1.9210                 2.9321                 2.8051
 Frc consts  --      1.5039                 2.4376                 2.3747
 IR Inten    --     27.7397                 8.2977               537.2189

                     40                     41                     42
                      A                      A                      A
 Frequencies --   1232.1362              1278.9512              1298.2841
 Red. masses --      2.4865                 2.0540                 5.8292
 Frc consts  --      2.2241                 1.9795                 5.7889
 IR Inten    --    193.9408               124.2323               274.4455

                     43                     44                     45
                      A                      A                      A
 Frequencies --   1347.9757              1358.5626              1395.3309
 Red. masses --      4.4112                 6.1216                 2.6780
 Frc consts  --      4.7225                 6.6570                 3.0720
 IR Inten    --   1572.4300                71.1390                 6.0192

                     46                     47                     48
                      A                      A                      A
 Frequencies --   1398.8332              1406.0768              1431.8981
 Red. masses --      1.4084                 1.2468                 2.8862
 Frc consts  --      1.6237                 1.4523                 3.4866
 IR Inten    --    163.5611                 4.0546                15.1987

                     49                     50                     51
                      A                      A                      A
 Frequencies --   1449.0751              1459.3580              1469.2606
 Red. masses --      1.0495                 1.0501                 1.1536
 Frc consts  --      1.2984                 1.3176                 1.4673
 IR Inten    --      6.3580                 5.4291                32.9339

                     52                     53                     54
                      A                      A                      A
 Frequencies --   1479.0600              1510.5706              1533.8225
 Red. masses --      1.3034                 2.5977                 5.4715
 Frc consts  --      1.6800                 3.4924                 7.5842
 IR Inten    --     17.8593                97.0034               321.7992

                     55                     56                     57
                      A                      A                      A
 Frequencies --   1594.9438              1602.1465              2983.1072
 Red. masses --      6.5691                 5.0727                 1.0381
 Frc consts  --      9.8457                 7.6718                 5.4427
 IR Inten    --      0.9591                18.3005               223.3758

                     58                     59                     60
                      A                      A                      A
 Frequencies --   3011.3723              3016.0938              3061.5837
 Red. masses --      1.0982                 1.0436                 1.0982
 Frc consts  --      5.8677                 5.5934                 6.0649
 IR Inten    --     96.5881               120.8969                38.8889

                     61                     62                     63
                      A                      A                      A
 Frequencies --   3084.1160              3086.4294              3094.7190
 Red. masses --      1.0879                 1.0932                 1.0988
 Frc consts  --      6.0966                 6.1359                 6.2001
 IR Inten    --    188.6758                28.6380                30.5174

                     64                     65                     66
                      A                      A                      A
 Frequencies --   3128.8315              3147.5685              3174.8396
 Red. masses --      1.0852                 1.0911                 1.0919
 Frc consts  --      6.2593                 6.3689                 6.4848
 IR Inten    --     43.6862                72.5028                48.6356

 - Thermochemistry -
 -------------------
 Temperature   298.150 Kelvin.  Pressure   1.00000 Atm.
 Atom     1 has atomic number  6 and mass  12.00000

 Molecular mass:   186.06808 amu.
 Principal axes and moments of inertia in atomic units:
                           1         2         3
     Eigenvalues --  1957.269352428.561004363.91622
           X            0.83409  -0.03503   0.55051
           Y           -0.34399   0.74714   0.56873
           Z           -0.43123  -0.66374   0.61113
 This molecule is an asymmetric top.
 Rotational symmetry number  1.
 Warning -- assumption of classical behavior for rotation
           may cause significant error
 Rotational temperatures (Kelvin)      0.04425     0.03566     0.01985
 Rotational constants (GHZ):           0.92207     0.74313     0.41356
 Zero-point vibrational energy     479837.2 (Joules/Mol)
                                  114.68384 (Kcal/Mol)
 Warning -- explicit consideration of  18 degrees of freedom as
           vibrations may cause significant error
 Vibrational temperatures:     94.71   116.44   183.34   251.59   275.01
          (Kelvin)            301.56   348.13   373.16   452.45   507.12
                              518.50   528.73   603.36   687.38   691.54
                              755.13   757.49   808.42   942.02   949.37
                              987.87  1009.81  1104.62  1149.34  1151.95
                             1202.47  1257.20  1276.29  1372.52  1395.36
                             1451.30  1461.31  1500.24  1507.54  1557.64
                             1616.19  1658.47  1709.06  1724.65  1772.77
                             1840.13  1867.94  1939.44  1954.67  2007.57
                             2012.61  2023.03  2060.18  2084.90  2099.69
                             2113.94  2128.04  2173.37  2206.83  2294.77
                             2305.13  4292.03  4332.69  4339.49  4404.94
                             4437.35  4440.68  4452.61  4501.69  4528.65
                             4567.89

 Zero-point correction=                           0.182760 (Hartree/Particle)
 Thermal correction to Energy=                    0.194729
 Thermal correction to Enthalpy=                  0.195673
 Thermal correction to Gibbs Free Energy=         0.145057
 Sum of electronic and zero-point Energies=           -613.970020
 Sum of electronic and thermal Energies=              -613.958051
 Sum of electronic and thermal Enthalpies=            -613.957107
 Sum of electronic and thermal Free Energies=         -614.007723

                     E (Thermal)             CV                S
                      KCal/Mol        Cal/Mol-Kelvin    Cal/Mol-Kelvin
 Total                  122.194             47.069            106.531
 Electronic               0.000              0.000              0.000
 Translational            0.889              2.981             41.569
 Rotational               0.889              2.981             31.406
 Vibrational            120.417             41.107             33.555
 Vibration     1          0.597              1.971              4.274
 Vibration     2          0.600              1.962              3.868
 Vibration     3          0.611              1.926              2.984
 Vibration     4          0.627              1.873              2.383
 Vibration     5          0.634              1.852              2.217
 Vibration     6          0.642              1.826              2.047
 Vibration     7          0.658              1.776              1.788
 Vibration     8          0.668              1.747              1.666
 Vibration     9          0.702              1.646              1.339
 Vibration    10          0.729              1.570              1.155
 Vibration    11          0.735              1.554              1.120
 Vibration    12          0.740              1.539              1.090
 Vibration    13          0.782              1.428              0.894
 Vibration    14          0.834              1.299              0.716
 Vibration    15          0.837              1.293              0.708
 Vibration    16          0.880              1.195              0.599
 Vibration    17          0.881              1.191              0.595
 Vibration    18          0.918              1.114              0.520

                           ! Non-Optimized Parameters !
 Normal termination of Gaussian 16 at Sun Feb 11 02:31:02 2024.
