 Gaussian 16, Revision A.03,
 Gaussian 16:  ES64L-G16RevA.03 25-Dec-2016

 --------------------------------------
 #P UB3LYP/6-311++G(d,p) nosym opt freq
 --------------------------------------

 -------
 Radical
 -------
 Symbolic Z-matrix:
 Charge = -2 Multiplicity = 2

 SCF Done:  E(UB3LYP) =  -1367.70606362     A.U. after   25 cycles
 Optimization completed.
    -- Stationary point found.
 Normal termination of Gaussian 16 at Wed Dec 27 21:14:16 2023.

 ----------------------------------------------------------------------
 #P Geom=AllCheck Guess=TCheck SCRF=Check GenChk UB3LYP/6-311++G(d,p) F
 req
 ----------------------------------------------------------------------

 Structure from the checkpoint file:  "157-rad.chk"
 -------
 Radical
 -------
 Charge = -2 Multiplicity = 2

                          Input orientation:
 ---------------------------------------------------------------------
 Center     Atomic      Atomic             Coordinates (Angstroms)
 Number     Number       Type             X           Y           Z
 ---------------------------------------------------------------------
      1          6           0       -1.736487    1.884809   -5.152003
      2          6           0       -1.638055    0.561539   -5.539752
      3          6           0       -1.270031   -0.422301   -4.590454
      4          6           0       -1.476249    2.286518   -3.823684
      5          6           0       -1.106486    1.295228   -2.868222
      6          6           0       -1.012321   -0.053121   -3.285489
      7          6           0       -1.594259    3.704041   -3.469575
      8          6           0       -0.833643    1.646557   -1.481976
      9          6           0       -1.304478    4.072499   -2.087980
     10          6           0       -0.954249    3.066894   -1.128059
     11          6           0       -1.390055    5.452964   -1.654485
     12          6           0       -1.153827    5.762905   -0.293487
     13          6           0       -0.830604    4.750416    0.611361
     14          6           0       -0.724353    3.430230    0.210772
     15          8           0       -1.943231    4.535040   -4.365473
     16          8           0       -0.514601    0.768641   -0.632846
     17          7           0       -1.684284    6.435268   -2.550428
     18          1           0       -2.016160    2.660805   -5.855685
     19          1           0       -1.841829    0.276771   -6.568949
     20          1           0       -1.191345   -1.464763   -4.889771
     21          1           0       -0.729524   -0.782577   -2.534312
     22         16           0       -1.156082    7.480735    0.333522
     23          1           0       -0.672992    5.032358    1.646125
     24          1           0       -1.963799    6.109750   -3.470920
     25          1           0       -1.982706    7.323815   -2.159917
     26          1           0       -0.470107    2.645044    0.911489
     27          8           0       -2.246468    8.180076   -0.425292
     28          8           0       -1.436893    7.366324    1.790824
     29          8           0        0.192125    8.035798    0.033418
 ---------------------------------------------------------------------

 SCF Done:  E(UB3LYP) =  -1367.70606362     A.U. after    2 cycles

 Alpha  occ. eigenvalues --  -88.80287 -18.86508 -18.85873 -18.84725 -18.84597
 Alpha  occ. eigenvalues --  -18.84317 -14.08090 -10.01687 -10.00811 -10.00510
 Alpha  occ. eigenvalues --   -9.98371  -9.98254  -9.97491  -9.97484  -9.96797
 Alpha  occ. eigenvalues --   -9.96652  -9.95944  -9.95910  -9.95787  -9.95389
 Alpha  occ. eigenvalues --   -9.94016  -7.86127  -5.82406  -5.82379  -5.82317
 Alpha  occ. eigenvalues --   -0.86190  -0.79019  -0.78197  -0.72787  -0.72359
 Alpha  occ. eigenvalues --   -0.69506  -0.65767  -0.62141  -0.57691  -0.55256
 Alpha  occ. eigenvalues --   -0.53383  -0.51182  -0.45812  -0.43580  -0.41675
 Alpha  occ. eigenvalues --   -0.38525  -0.35792  -0.35087  -0.33385  -0.30976
 Alpha  occ. eigenvalues --   -0.28487  -0.26679  -0.26511  -0.25894  -0.23337
 Alpha  occ. eigenvalues --   -0.23043  -0.22659  -0.21365  -0.21223  -0.20608
 Alpha  occ. eigenvalues --   -0.20398  -0.19745  -0.18530  -0.17572  -0.16980
 Alpha  occ. eigenvalues --   -0.16269  -0.15471  -0.14330  -0.13833  -0.13157
 Alpha  occ. eigenvalues --   -0.09353  -0.08725  -0.08420  -0.06284  -0.05890
 Alpha  occ. eigenvalues --   -0.05800  -0.05320  -0.04912  -0.03175  -0.02655
 Alpha  occ. eigenvalues --   -0.02228  -0.00882   0.01173   0.07259
 Alpha virt. eigenvalues --    0.13506   0.15434   0.15591   0.17647   0.18175
 Alpha virt. eigenvalues --    0.18644   0.19291   0.20924   0.21437   0.21677
 Alpha virt. eigenvalues --    0.21942   0.23123   0.24214   0.24350   0.24880

  Beta  occ. eigenvalues --  -88.80289 -18.86029 -18.85296 -18.84721 -18.84597
  Beta  occ. eigenvalues --  -18.84306 -14.08072 -10.01544 -10.00646 -10.00517
  Beta  occ. eigenvalues --   -9.98318  -9.98163  -9.97523  -9.97500  -9.96654
  Beta  occ. eigenvalues --   -9.96531  -9.95955  -9.95801  -9.95740  -9.95375
  Beta  occ. eigenvalues --   -9.93956  -7.86129  -5.82407  -5.82380  -5.82321
  Beta  occ. eigenvalues --   -0.86182  -0.78194  -0.77183  -0.72782  -0.72340
  Beta  occ. eigenvalues --   -0.69438  -0.65532  -0.61972  -0.57292  -0.55059
  Beta  occ. eigenvalues --   -0.53196  -0.50961  -0.45129  -0.43414  -0.41460
  Beta  occ. eigenvalues --   -0.38446  -0.35659  -0.34898  -0.33227  -0.30864
  Beta  occ. eigenvalues --   -0.28367  -0.26441  -0.26361  -0.25818  -0.23224
  Beta  occ. eigenvalues --   -0.22964  -0.22603  -0.21263  -0.20640  -0.20489
  Beta  occ. eigenvalues --   -0.19855  -0.19362  -0.18289  -0.17385  -0.16514
  Beta  occ. eigenvalues --   -0.15365  -0.14337  -0.14198  -0.13078  -0.12669
  Beta  occ. eigenvalues --   -0.09057  -0.08695  -0.08164  -0.05816  -0.05313
  Beta  occ. eigenvalues --   -0.05175  -0.04813  -0.04077  -0.02741  -0.02120
  Beta  occ. eigenvalues --   -0.01741  -0.00859   0.01990
  Beta virt. eigenvalues --    0.12839   0.13488   0.15422   0.16308   0.17633
  Beta virt. eigenvalues --    0.18632   0.19225   0.19279   0.20919   0.21657
  Beta virt. eigenvalues --    0.21916   0.21968   0.23133   0.24332   0.24383

 Mulliken charges and spin densities:
               1          2
     1  C    0.110932  -0.004083
     2  C   -0.510885   0.075512
     3  C   -0.386025   0.042844
     4  C    0.277017   0.082795
     5  C    0.177892   0.067413
     6  C    0.027993   0.026137
     7  C   -0.569558   0.071833
     8  C   -0.725838   0.090233
     9  C    0.218175  -0.015101
    10  C    0.584015   0.017822
    11  C    0.397768   0.007825
    12  C   -1.119079   0.067345
    13  C   -0.173151   0.011859
    14  C   -0.122989   0.071145
    15  O   -0.390737   0.176358
    16  O   -0.386870   0.217326
    17  N   -0.406328   0.009935
    18  H    0.144492   0.000862
    19  H    0.100029  -0.006138
    20  H    0.100044  -0.003658
    21  H    0.139527  -0.001620
    22  S    0.626192  -0.003221
    23  H    0.185638  -0.001270
    24  H    0.331355  -0.002523
    25  H    0.252791  -0.000890
    26  H    0.134325  -0.005371
    27  O   -0.404619   0.002507
    28  O   -0.319372   0.000487
    29  O   -0.292734   0.003638
 Sum of Mulliken charges =  -2.00000   1.00000

 Dipole moment (field-independent basis, Debye):
    X=             10.7906    Y=            -47.2872    Z=             10.7732  Tot=             49.6848
 Quadrupole moment (field-independent basis, Debye-Ang):
   XX=           -159.7919   YY=           -473.0924   ZZ=           -200.3140
   XY=             55.1849   XZ=            -16.5579   YZ=             15.2989

  Exact polarizability: 137.682 -11.210 362.605  31.129  82.362 312.353
 Approx polarizability: 228.433 -32.334 544.190  64.312  50.092 523.665

                      1                      2                      3
                      A                      A                      A
 Frequencies --     33.8869                43.9165                80.4812
 Red. masses --      8.6294                12.0874                 9.0465
 Frc consts  --      0.0058                 0.0137                 0.0345
 IR Inten    --      0.0492                 0.1095                 6.1064

                      4                      5                      6
                      A                      A                      A
 Frequencies --     89.8738               133.4558               139.6697
 Red. masses --      6.2112                 5.2194                 8.6153
 Frc consts  --      0.0296                 0.0548                 0.0990
 IR Inten    --      0.7211                 0.3810                 1.0624

                      7                      8                      9
                      A                      A                      A
 Frequencies --    175.7942               191.1057               220.8441
 Red. masses --      9.0339                 7.2294                12.1034
 Frc consts  --      0.1645                 0.1556                 0.3478
 IR Inten    --      0.9510                 0.3690                 1.2688

                     10                     11                     12
                      A                      A                      A
 Frequencies --    244.8412               271.2941               301.3863
 Red. masses --      7.2337                 5.4328                 9.8250
 Frc consts  --      0.2555                 0.2356                 0.5258
 IR Inten    --      3.9704                 0.1493                 1.4489

                     13                     14                     15
                      A                      A                      A
 Frequencies --    348.5905               355.9880               391.2699
 Red. masses --      6.0202                 7.6975                 8.0135
 Frc consts  --      0.4310                 0.5747                 0.7228
 IR Inten    --      3.4180                 0.5932                11.9960

                     16                     17                     18
                      A                      A                      A
 Frequencies --    398.4866               429.4278               433.7648
 Red. masses --      7.0425                 7.0712                 8.7363
 Frc consts  --      0.6589                 0.7683                 0.9685
 IR Inten    --      2.2193                 2.2480                15.3094

                     19                     20                     21
                      A                      A                      A
 Frequencies --    440.0483               475.3324               487.7018
 Red. masses --      3.3724                 7.6940                 6.8993
 Frc consts  --      0.3848                 1.0242                 0.9669
 IR Inten    --      0.8313                 2.2233                 4.4444

                     22                     23                     24
                      A                      A                      A
 Frequencies --    502.4327               521.5432               541.8439
 Red. masses --      7.7328                 7.7331                 7.4139
 Frc consts  --      1.1501                 1.2393                 1.2825
 IR Inten    --     30.0761                 6.2988                25.0667

                     25                     26                     27
                      A                      A                      A
 Frequencies --    572.8699               580.2533               593.5588
 Red. masses --      2.8784                 3.9866                 2.2067
 Frc consts  --      0.5566                 0.7908                 0.4581
 IR Inten    --     41.6350                97.6471                88.2843

                     28                     29                     30
                      A                      A                      A
 Frequencies --    612.6092               660.9914               664.7688
 Red. masses --      4.8471                 5.7631                 5.4467
 Frc consts  --      1.0718                 1.4835                 1.4182
 IR Inten    --    153.5214                11.9647                 6.6555

                     31                     32                     33
                      A                      A                      A
 Frequencies --    674.6582               703.9745               705.2429
 Red. masses --      6.1050                 3.8848                 2.5130
 Frc consts  --      1.6372                 1.1343                 0.7364
 IR Inten    --    109.4044                29.7695                48.8321

                     34                     35                     36
                      A                      A                      A
 Frequencies --    746.0521               755.5941               765.9800
 Red. masses --      4.5395                 1.1734                 1.9533
 Frc consts  --      1.4886                 0.3947                 0.6752
 IR Inten    --     20.1876                14.8485                 1.7245

                     37                     38                     39
                      A                      A                      A
 Frequencies --    796.5693               805.2528               830.9185
 Red. masses --      4.3684                 6.0737                 1.4759
 Frc consts  --      1.6331                 2.3204                 0.6004
 IR Inten    --      0.2792                 3.5900                15.6678

                     40                     41                     42
                      A                      A                      A
 Frequencies --    841.6820               894.4993               940.2096
 Red. masses --      1.7299                 7.0957                 8.1259
 Frc consts  --      0.7220                 3.3451                 4.2322
 IR Inten    --      3.8934                30.2524                27.5989

                     43                     44                     45
                      A                      A                      A
 Frequencies --    966.2207               967.8469               969.1597
 Red. masses --      1.2651                 2.1439                 2.3019
 Frc consts  --      0.6958                 1.1832                 1.2739
 IR Inten    --      5.9448               179.4840               197.8820

                     46                     47                     48
                      A                      A                      A
 Frequencies --    971.2216              1023.4917              1038.2901
 Red. masses --      1.3634                 2.8782                 2.4739
 Frc consts  --      0.7577                 1.7764                 1.5713
 IR Inten    --      4.1290                22.8044                37.1442

                     49                     50                     51
                      A                      A                      A
 Frequencies --   1104.5422              1107.1140              1128.5550
 Red. masses --      2.8324                 3.1460                 2.8553
 Frc consts  --      2.0360                 2.2719                 2.1426
 IR Inten    --     33.0076               130.4258               121.9204

                     52                     53                     54
                      A                      A                      A
 Frequencies --   1142.8307              1149.7740              1175.1173
 Red. masses --      1.3298                 7.9570                 1.7277
 Frc consts  --      1.0233                 6.1976                 1.4056
 IR Inten    --     34.4936               280.6505                66.4193

                     55                     56                     57
                      A                      A                      A
 Frequencies --   1177.9251              1206.4742              1233.5779
 Red. masses --      3.3439                 1.9983                 3.5869
 Frc consts  --      2.7336                 1.7138                 3.2159
 IR Inten    --      3.9843                 2.8046                25.6579

                     58                     59                     60
                      A                      A                      A
 Frequencies --   1248.6378              1304.5132              1344.8662
 Red. masses --      2.1008                 2.1549                 6.7376
 Frc consts  --      1.9298                 2.1606                 7.1798
 IR Inten    --    130.2929                17.2620                59.3507

                     61                     62                     63
                      A                      A                      A
 Frequencies --   1361.3766              1371.6041              1401.7381
 Red. masses --      7.1726                 4.3138                 2.8862
 Frc consts  --      7.8322                 4.7815                 3.3413
 IR Inten    --     48.5703                17.4697               115.0899

                     64                     65                     66
                      A                      A                      A
 Frequencies --   1435.2317              1460.6306              1473.9567
 Red. masses --      3.0415                 3.7539                 2.7800
 Frc consts  --      3.6913                 4.7185                 3.5585
 IR Inten    --     95.9840               170.9675                15.3788

                     67                     68                     69
                      A                      A                      A
 Frequencies --   1512.1200              1521.2805              1553.0549
 Red. masses --      5.2047                 5.0835                 4.4550
 Frc consts  --      7.0116                 6.9316                 6.3310
 IR Inten    --     48.8869               563.7552               128.7954

                     70                     71                     72
                      A                      A                      A
 Frequencies --   1586.3050              1604.2255              1610.8958
 Red. masses --      5.3134                 4.5784                 6.7817
 Frc consts  --      7.8777                 6.9422                10.3687
 IR Inten    --     87.0552                31.0953                49.4431

                     73                     74                     75
                      A                      A                      A
 Frequencies --   1619.5504              3114.3859              3136.2753
 Red. masses --      1.5415                 1.0837                 1.0910
 Frc consts  --      2.3822                 6.1928                 6.3229
 IR Inten    --    131.3105                28.7127                85.4018

                     76                     77                     78
                      A                      A                      A
 Frequencies --   3173.3385              3173.5027              3178.1810
 Red. masses --      1.0895                 1.0880                 1.0915
 Frc consts  --      6.4643                 6.4557                 6.4958
 IR Inten    --     21.6244                 3.8184                33.8855

                     79                     80                     81
                      A                      A                      A
 Frequencies --   3192.7627              3417.4442              3542.8037
 Red. masses --      1.0927                 1.0446                 1.1095
 Frc consts  --      6.5627                 7.1877                 8.2047
 IR Inten    --     12.9119                51.5522               342.3530

 - Thermochemistry -
 -------------------
 Temperature   298.150 Kelvin.  Pressure   1.00000 Atm.
 Atom     1 has atomic number  6 and mass  12.00000

 Molecular mass:   302.01232 amu.
 Principal axes and moments of inertia in atomic units:
                           1         2         3
     Eigenvalues --  2388.34883********************
           X            0.01746   0.25845   0.96587
           Y            0.83982  -0.52802   0.12611
           Z            0.54259   0.80895  -0.22627
 This molecule is an asymmetric top.
 Rotational symmetry number  1.
 Warning -- assumption of classical behavior for rotation
           may cause significant error
 Rotational temperatures (Kelvin)      0.03627     0.00776     0.00656
 Rotational constants (GHZ):           0.75564     0.16171     0.13678
 Zero-point vibrational energy     514989.3 (Joules/Mol)
                                  123.08540 (Kcal/Mol)
 Warning -- explicit consideration of  28 degrees of freedom as
           vibrations may cause significant error
 Vibrational temperatures:     48.76    63.19   115.79   129.31   192.01
          (Kelvin)            200.95   252.93   274.96   317.75   352.27
                              390.33   433.63   501.54   512.19   562.95
                              573.33   617.85   624.09   633.13   683.90
                              701.69   722.89   750.38   779.59   824.23
                              834.86   854.00   881.41   951.02   956.45
                              970.68  1012.86  1014.69  1073.40  1087.13
                             1102.07  1146.09  1158.58  1195.51  1210.99
                             1286.99  1352.75  1390.18  1392.52  1394.40
                             1397.37  1472.58  1493.87  1589.19  1592.89
                             1623.74  1644.28  1654.27  1690.73  1694.77
                             1735.85  1774.84  1796.51  1876.90  1934.96
                             1958.72  1973.43  2016.79  2064.98  2101.52
                             2120.69  2175.60  2188.78  2234.50  2282.34
                             2308.12  2317.72  2330.17  4480.91  4512.40
                             4565.73  4565.96  4572.69  4593.67  4916.94
                             5097.30

 Zero-point correction=                           0.196149 (Hartree/Particle)
 Thermal correction to Energy=                    0.212363
 Thermal correction to Enthalpy=                  0.213308
 Thermal correction to Gibbs Free Energy=         0.151331
 Sum of electronic and zero-point Energies=          -1367.509915
 Sum of electronic and thermal Energies=             -1367.493700
 Sum of electronic and thermal Enthalpies=           -1367.492756
 Sum of electronic and thermal Free Energies=        -1367.554732

                     E (Thermal)             CV                S
                      KCal/Mol        Cal/Mol-Kelvin    Cal/Mol-Kelvin
 Total                  133.260             64.932            130.441
 Electronic               0.000              0.000              1.377
 Translational            0.889              2.981             43.013
 Rotational               0.889              2.981             34.219
 Vibrational            131.483             58.970             51.832
 Vibration     1          0.594              1.983              5.588
 Vibration     2          0.595              1.980              5.074
 Vibration     3          0.600              1.962              3.879
 Vibration     4          0.602              1.956              3.663
 Vibration     5          0.613              1.920              2.896
 Vibration     6          0.615              1.914              2.808
 Vibration     7          0.628              1.872              2.373
 Vibration     8          0.634              1.852              2.217
 Vibration     9          0.648              1.809              1.952
 Vibration    10          0.660              1.771              1.767
 Vibration    11          0.675              1.726              1.588
 Vibration    12          0.693              1.671              1.409
 Vibration    13          0.726              1.578              1.173
 Vibration    14          0.731              1.563              1.140
 Vibration    15          0.759              1.489              0.995
 Vibration    16          0.765              1.473              0.968
 Vibration    17          0.791              1.406              0.861
 Vibration    18          0.795              1.397              0.846
 Vibration    19          0.800              1.383              0.826
 Vibration    20          0.832              1.305              0.723
 Vibration    21          0.844              1.277              0.690
 Vibration    22          0.858              1.245              0.652
 Vibration    23          0.877              1.202              0.606
 Vibration    24          0.897              1.158              0.561
 Vibration    25          0.929              1.090              0.499
 Vibration    26          0.937              1.074              0.485
 Vibration    27          0.951              1.045              0.461
 Vibration    28          0.972              1.005              0.428

 Optimization completed.
    -- Stationary point found.
 Normal termination of Gaussian 16 at Wed Dec 27 22:38:37 2023.
