 Q-Chem 5.4, Q-Chem, Inc., Pleasanton, CA (2021)
 Q-Chem 5.4.0 for Intel X86 EM64T Linux

User input:
--------------------------------------------------------------
$molecule
-2 2
C                 -1.7364870000      1.8848090000     -5.1520030000
C                 -1.6380550000      0.5615390000     -5.5397520000
C                 -1.2700310000     -0.4223010000     -4.5904540000
C                 -1.4762490000      2.2865180000     -3.8236840000
C                 -1.1064860000      1.2952280000     -2.8682220000
C                 -1.0123210000     -0.0531210000     -3.2854890000
C                 -1.5942590000      3.7040410000     -3.4695750000
C                 -0.8336430000      1.6465570000     -1.4819760000
C                 -1.3044780000      4.0724990000     -2.0879800000
C                 -0.9542490000      3.0668940000     -1.1280590000
C                 -1.3900550000      5.4529640000     -1.6544850000
C                 -1.1538270000      5.7629050000     -0.2934870000
C                 -0.8306040000      4.7504160000      0.6113610000
C                 -0.7243530000      3.4302300000      0.2107720000
O                 -1.9432310000      4.5350400000     -4.3654730000
O                 -0.5146010000      0.7686410000     -0.6328460000
N                 -1.6842840000      6.4352680000     -2.5504280000
H                 -2.0161600000      2.6608050000     -5.8556850000
H                 -1.8418290000      0.2767710000     -6.5689490000
H                 -1.1913450000     -1.4647630000     -4.8897710000
H                 -0.7295240000     -0.7825770000     -2.5343120000
S                 -1.1560820000      7.4807350000      0.3335220000
H                 -0.6729920000      5.0323580000      1.6461250000
H                 -1.9637990000      6.1097500000     -3.4709200000
H                 -1.9827060000      7.3238150000     -2.1599170000
H                 -0.4701070000      2.6450440000      0.9114890000
O                 -2.2464680000      8.1800760000     -0.4252920000
O                 -1.4368930000      7.3663240000      1.7908240000
O                  0.1921250000      8.0357980000      0.0334180000
$end
$rem
MAX_SCF_CYCLES=200
BASIS  =  6-311++G(d,p)
GUI  =  2
JOB_TYPE  =  SP
METHOD  =  B3LYP
SOLVENT_METHOD = PCM
$end
$pcm
theory = CPCM
$end
$solvent
dielectric 37.219
opticaldielectric 1.43
$end
--------------------------------------------------------------

             Standard Nuclear Orientation (Angstroms)
    I     Atom           X                Y                Z
 ----------------------------------------------------------------
    1      C      -1.7364870000     1.8848090000    -5.1520030000
    2      C      -1.6380550000     0.5615390000    -5.5397520000
    3      C      -1.2700310000    -0.4223010000    -4.5904540000
    4      C      -1.4762490000     2.2865180000    -3.8236840000
    5      C      -1.1064860000     1.2952280000    -2.8682220000
    6      C      -1.0123210000    -0.0531210000    -3.2854890000
    7      C      -1.5942590000     3.7040410000    -3.4695750000
    8      C      -0.8336430000     1.6465570000    -1.4819760000
    9      C      -1.3044780000     4.0724990000    -2.0879800000
   10      C      -0.9542490000     3.0668940000    -1.1280590000
   11      C      -1.3900550000     5.4529640000    -1.6544850000
   12      C      -1.1538270000     5.7629050000    -0.2934870000
   13      C      -0.8306040000     4.7504160000     0.6113610000
   14      C      -0.7243530000     3.4302300000     0.2107720000
   15      O      -1.9432310000     4.5350400000    -4.3654730000
   16      O      -0.5146010000     0.7686410000    -0.6328460000
   17      N      -1.6842840000     6.4352680000    -2.5504280000
   18      H      -2.0161600000     2.6608050000    -5.8556850000
   19      H      -1.8418290000     0.2767710000    -6.5689490000
   20      H      -1.1913450000    -1.4647630000    -4.8897710000
   21      H      -0.7295240000    -0.7825770000    -2.5343120000
   22      S      -1.1560820000     7.4807350000     0.3335220000
   23      H      -0.6729920000     5.0323580000     1.6461250000
   24      H      -1.9637990000     6.1097500000    -3.4709200000
   25      H      -1.9827060000     7.3238150000    -2.1599170000
   26      H      -0.4701070000     2.6450440000     0.9114890000
   27      O      -2.2464680000     8.1800760000    -0.4252920000
   28      O      -1.4368930000     7.3663240000     1.7908240000
   29      O       0.1921250000     8.0357980000     0.0334180000
 ----------------------------------------------------------------

    8   -1367.9509439495      8.50e-06  Convergence criterion met
 Total energy in the final basis set =    -1367.9509439495

                    Orbital Energies (a.u.)
 --------------------------------------------------------------

 Alpha MOs
 -- Occupied --
-89.0455 -19.0908 -19.0908 -19.0899 -19.0793 -19.0737 -14.3015 -10.2304
-10.2263 -10.2221 -10.1827 -10.1755 -10.1734 -10.1724 -10.1721 -10.1715
-10.1711 -10.1708 -10.1682 -10.1681 -10.1565  -8.1042  -6.0671  -6.0669
 -6.0657  -1.1075  -1.0053  -0.9980  -0.9730  -0.9707  -0.9170  -0.8564
 -0.8378  -0.7859  -0.7490  -0.7439  -0.7288  -0.6702  -0.6456  -0.6260
 -0.5977  -0.5775  -0.5580  -0.5461  -0.5211  -0.4995  -0.4853  -0.4776
 -0.4684  -0.4562  -0.4513  -0.4428  -0.4371  -0.4240  -0.4225  -0.4196
 -0.4134  -0.4007  -0.3857  -0.3839  -0.3768  -0.3606  -0.3512  -0.3459
 -0.3361  -0.3348  -0.3333  -0.3106  -0.3019  -0.2969  -0.2886  -0.2658
 -0.2576  -0.2555  -0.2480  -0.2464  -0.2376  -0.2096  -0.1403

 Beta MOs
 -- Occupied --
-89.0455 -19.0908 -19.0907 -19.0898 -19.0749 -19.0686 -14.3014 -10.2286
-10.2264 -10.2199 -10.1815 -10.1754 -10.1725 -10.1717 -10.1715 -10.1712
-10.1705 -10.1702 -10.1683 -10.1678 -10.1560  -8.1042  -6.0671  -6.0669
 -6.0658  -1.1074  -0.9975  -0.9885  -0.9730  -0.9705  -0.9163  -0.8541
 -0.8362  -0.7822  -0.7468  -0.7419  -0.7267  -0.6638  -0.6435  -0.6237
 -0.5968  -0.5766  -0.5559  -0.5442  -0.5201  -0.4983  -0.4842  -0.4757
 -0.4663  -0.4558  -0.4509  -0.4420  -0.4360  -0.4220  -0.4186  -0.4130
 -0.4088  -0.3985  -0.3825  -0.3779  -0.3598  -0.3585  -0.3499  -0.3375
 -0.3354  -0.3340  -0.3324  -0.3057  -0.2986  -0.2960  -0.2878  -0.2574
 -0.2492  -0.2477  -0.2439  -0.2414  -0.2332  -0.2017

          Ground-State Mulliken Net Atomic Charges

     Atom                 Charge (a.u.)    Spin (a.u.)
  --------------------------------------------------------
      1 C                     0.123170       0.015398
      2 C                    -0.553548       0.050344
      3 C                    -0.466279       0.022066
      4 C                     0.138136       0.036056
      5 C                     0.063678       0.014707
      6 C                     0.050191       0.044444
      7 C                    -0.399760       0.099975
      8 C                    -0.431433       0.124892
      9 C                     0.226682       0.002432
     10 C                     0.535297       0.052913
     11 C                     0.381181       0.003376
     12 C                    -1.228041       0.073096
     13 C                    -0.179825       0.038661
     14 C                    -0.110576       0.061701
     15 O                    -0.466922       0.166429
     16 O                    -0.485502       0.201267
     17 N                    -0.465068       0.006432
     18 H                     0.173136      -0.000394
     19 H                     0.198092      -0.003890
     20 H                     0.198882      -0.002018
     21 H                     0.167055      -0.002552
     22 S                     0.705244      -0.001318
     23 H                     0.224450      -0.002961
     24 H                     0.352238      -0.002113
     25 H                     0.290360      -0.000870
     26 H                     0.161934      -0.004159
     27 O                    -0.456708       0.002828
     28 O                    -0.382306       0.000034
     29 O                    -0.363766       0.003225
  --------------------------------------------------------
  Sum of atomic charges =    -2.000010

                    Cartesian Multipole Moments
 -----------------------------------------------------------------
    Charge (ESU x 10^10)
                -9.6065
    Dipole Moment (Debye)
         X      10.2841      Y     -51.7745      Z       7.1672
       Tot      53.2703
    Quadrupole Moments (Debye-Ang)
        XX    -158.2178     XY      59.0296     YY    -498.7276
        XZ     -10.2077     YZ      19.3679     ZZ    -176.1510

 Total job time:  72.22s(wall), 507.66s(cpu)
        *  Thank you very much for using Q-Chem.  Have a nice day.  *
