 Q-Chem 5.4, Q-Chem, Inc., Pleasanton, CA (2021)
 Q-Chem 5.4.0 for Intel X86 EM64T Linux

User input:
--------------------------------------------------------------
$molecule
-1 2
C                 -1.8396950000      1.9160740000     -5.1437300000
C                 -1.7480750000      0.6001200000     -5.5504170000
C                 -1.3240830000     -0.3904920000     -4.6371730000
C                 -1.5147440000      2.2955510000     -3.8222270000
C                 -1.0916460000      1.3015430000     -2.9053700000
C                 -1.0034910000     -0.0395750000     -3.3411020000
C                 -1.6146750000      3.6987880000     -3.4334620000
C                 -0.7578940000      1.6304950000     -1.5234770000
C                 -1.2496000000      4.0463960000     -2.0639820000
C                 -0.8689620000      3.0222160000     -1.1145020000
C                 -1.2948210000      5.4141170000     -1.6406370000
C                 -1.0057700000      5.7230710000     -0.3150780000
C                 -0.6690180000      4.7394430000      0.6164920000
C                 -0.5923780000      3.3922950000      0.2501100000
O                 -2.0151090000      4.5510630000     -4.2866450000
O                 -0.3865950000      0.6966000000     -0.7394400000
N                 -1.5660360000      6.4514510000     -2.5387620000
N                 -0.2768020000      2.4250900000      1.1810640000
C                  0.2233820000      2.7290130000      2.4917320000
H                 -2.1601880000      2.6981960000     -5.8215670000
H                 -2.0002220000      0.3257280000     -6.5706500000
H                 -1.2513000000     -1.4264950000     -4.9552700000
H                 -0.6777050000     -0.7776920000     -2.6180380000
H                 -1.0296810000      6.7649520000     -0.0051780000
H                 -0.4624120000      5.0326840000      1.6385410000
H                 -1.9558260000      6.1050130000     -3.4168800000
H                 -2.0320620000      7.2472980000     -2.1282490000
H                 -0.1496660000      1.4993270000      0.7646770000
H                 -0.5244910000      3.2383020000      3.1182710000
H                  1.1216720000      3.3698880000      2.4743390000
H                  0.4860410000      1.7931090000      2.9900890000
$end
$rem
MAX_SCF_CYCLES=200
BASIS  =  6-311++G(d,p)
GUI  =  2
JOB_TYPE  =  SP
METHOD  =  B3LYP
SOLVENT_METHOD = COSMO
$end
$solvent
dielectric 37.219
opticaldielectric 1.43
$end

--------------------------------------------------------------

             Standard Nuclear Orientation (Angstroms)
    I     Atom           X                Y                Z
 ----------------------------------------------------------------
    1      C       3.3483888186    -0.7316357448     0.0287372984
    2      C       4.3114299106     0.2571743743     0.0105748615
    3      C       3.9246769882     1.6152738199    -0.0223497066
    4      C       1.9726678238    -0.4104698559     0.0142341613
    5      C       1.5845722286     0.9519294583    -0.0164333776
    6      C       2.5852531201     1.9491776156    -0.0355392903
    7      C       0.9848409157    -1.4848543489     0.0239536869
    8      C       0.1793968742     1.3452616473    -0.0167361220
    9      C      -0.4238578311    -1.1055667355    -0.0120365180
   10      C      -0.8184671294     0.2869558418     0.0104713322
   11      C      -1.4338501204    -2.1209566072    -0.0407705656
   12      C      -2.7733138221    -1.7454193737    -0.0104638798
   13      C      -3.1643734747    -0.4064382499     0.0438547637
   14      C      -2.2186522204     0.6233236532     0.0547600697
   15      O       1.3818183644    -2.6911101671     0.0686426312
   16      O      -0.1140622587     2.5854387378    -0.0408059609
   17      N      -1.1083934134    -3.4763231408    -0.1561283173
   18      N      -2.6134187353     1.9426781623     0.1269553049
   19      C      -3.9735254899     2.3669379874    -0.0477359848
   20      H       3.6140717047    -1.7817521128     0.0524396631
   21      H       5.3648743417    -0.0072129510     0.0205059447
   22      H       4.6809459549     2.3947837707    -0.0367291754
   23      H       2.2586767215     2.9819426774    -0.0583198661
   24      H      -3.5336262108    -2.5218261329    -0.0457254728
   25      H      -4.2206383922    -0.1685938525     0.0753975659
   26      H      -0.1197088578    -3.6496818819     0.0322764340
   27      H      -1.7629102269    -4.1018308234     0.2904380083
   28      H      -1.8342465671     2.5969322607     0.0200855927
   29      H      -4.6296572264     2.0160964994     0.7632151991
   30      H      -4.4170180934     2.0189263564    -0.9964985587
   31      H      -4.0012465046     3.4589415819    -0.0426919841
 ----------------------------------------------------------------

   10    -839.0896102969      7.73e-06  Convergence criterion met
 Total energy in the final basis set =     -839.0896102969
    4    -839.1732243970      6.49e-06  Convergence criterion met
 Total energy in the final basis set =     -839.1732243970

                    Orbital Energies (a.u.)
 --------------------------------------------------------------

 Alpha MOs
 -- Occupied --
-19.0763 -19.0763 -14.3046 -14.2960 -10.2253 -10.2247 -10.2065 -10.2036
-10.1877 -10.1717 -10.1710 -10.1709 -10.1705 -10.1700 -10.1694 -10.1676
-10.1676 -10.1622 -10.1608  -1.0044  -1.0018  -0.9235  -0.9022  -0.8567
 -0.8239  -0.7798  -0.7490  -0.7384  -0.7281  -0.6753  -0.6616  -0.6305
 -0.6189  -0.5775  -0.5619  -0.5395  -0.5211  -0.5070  -0.4877  -0.4750
 -0.4617  -0.4589  -0.4478  -0.4366  -0.4308  -0.4215  -0.4182  -0.4148
 -0.4097  -0.3917  -0.3843  -0.3806  -0.3749  -0.3714  -0.3640  -0.3462
 -0.3435  -0.3351  -0.3224  -0.2710  -0.2562  -0.2555  -0.2471  -0.2453
 -0.2363  -0.1876  -0.1342

 Beta MOs
 -- Occupied --
-19.0719 -19.0717 -14.3038 -14.2953 -10.2234 -10.2230 -10.2061 -10.2030
-10.1877 -10.1717 -10.1711 -10.1705 -10.1700 -10.1693 -10.1687 -10.1676
-10.1676 -10.1610 -10.1595  -0.9966  -0.9939  -0.9217  -0.9004  -0.8547
 -0.8221  -0.7759  -0.7470  -0.7367  -0.7262  -0.6728  -0.6559  -0.6286
 -0.6170  -0.5764  -0.5601  -0.5374  -0.5199  -0.5061  -0.4863  -0.4722
 -0.4607  -0.4578  -0.4464  -0.4337  -0.4295  -0.4211  -0.4109  -0.4092
 -0.4081  -0.3901  -0.3805  -0.3748  -0.3685  -0.3631  -0.3626  -0.3448
 -0.3343  -0.3322  -0.3153  -0.2582  -0.2494  -0.2454  -0.2429  -0.2414
 -0.2323  -0.1755

          Ground-State Mulliken Net Atomic Charges

     Atom                 Charge (a.u.)    Spin (a.u.)
  --------------------------------------------------------
      1 C                     0.061873       0.024639
      2 C                    -0.613118       0.030777
      3 C                    -0.589548       0.037084
      4 C                     0.072521       0.028903
      5 C                     0.128113       0.029986
      6 C                    -0.014388       0.019683
      7 C                    -0.367251       0.101368
      8 C                    -0.170794       0.099813
      9 C                     0.665684      -0.003198
     10 C                     0.249214      -0.011016
     11 C                    -0.007171       0.052936
     12 C                    -0.454178       0.092729
     13 C                    -0.198918       0.100654
     14 C                    -0.212236       0.033975
     15 O                    -0.499941       0.162919
     16 O                    -0.513258       0.155246
     17 N                    -0.469212       0.031926
     18 N                    -0.296635       0.035778
     19 C                    -0.397758      -0.002391
     20 H                     0.183597      -0.000719
     21 H                     0.198215      -0.002739
     22 H                     0.199617      -0.003009
     23 H                     0.178070      -0.000608
     24 H                     0.197422      -0.007137
     25 H                     0.196908      -0.007174
     26 H                     0.317714      -0.002753
     27 H                     0.273527      -0.000943
     28 H                     0.399956      -0.003282
     29 H                     0.154531       0.002440
     30 H                     0.160174       0.004080
     31 H                     0.167271       0.000032
  --------------------------------------------------------
  Sum of atomic charges =    -1.000000

                    Cartesian Multipole Moments
 -----------------------------------------------------------------
    Charge (ESU x 10^10)
                -4.8032
    Dipole Moment (Debye)
         X      -3.9318      Y       1.0149      Z       0.7943
       Tot       4.1376
    Quadrupole Moments (Debye-Ang)
        XX    -108.2000     XY       7.0467     YY    -135.8771
        XZ      -1.1087     YZ      -5.1523     ZZ    -121.1758

 Total job time:  107.36s(wall), 819.12s(cpu)
        *  Thank you very much for using Q-Chem.  Have a nice day.  *
