 Q-Chem 5.4, Q-Chem, Inc., Pleasanton, CA (2021)
 Q-Chem 5.4.0 for Intel X86 EM64T Linux

User input:
--------------------------------------------------------------
$molecule
-1 2
C                 -4.2515840000     -0.5518770000     -3.5877710000
C                 -3.2729630000     -0.9088900000     -4.4982540000
C                 -1.9155310000     -0.7011700000     -4.1901070000
C                 -3.9102470000      0.0201000000     -2.3461880000
C                 -2.5461450000      0.2285510000     -2.0378830000
C                 -1.5628870000     -0.1402720000     -2.9750320000
C                 -4.9742650000      0.3864820000     -1.3967980000
C                 -4.5618120000      0.9588070000     -0.1294340000
C                 -3.2097510000      1.1723250000      0.1535130000
C                 -2.1302740000      0.8335290000     -0.7552460000
O                 -6.1874830000      0.1984810000     -1.6834740000
O                 -0.9224050000      1.0163270000     -0.4893670000
H                 -5.3043550000     -0.6996890000     -3.7982880000
H                 -3.5513030000     -1.3489370000     -5.4513460000
H                 -1.1472100000     -0.9811100000     -4.9045820000
H                 -0.5267830000      0.0327060000     -2.7081930000
C                 -5.6650660000      1.3132990000      0.8334130000
S                 -2.7484550000      2.0429440000      1.6520330000
C                 -1.8778140000      0.8556280000      2.6519750000
C                 -1.2380700000      1.3090160000      3.7912050000
C                 -0.5707900000      0.4188100000      4.6657480000
C                 -0.5505840000     -0.9798950000      4.3587180000
C                 -1.2078670000     -1.4148620000      3.1775350000
C                 -1.8518620000     -0.5320630000      2.3492550000
C                  0.0891230000      0.8616940000      5.8453020000
C                  0.7315040000     -0.0264190000      6.6762660000
C                  0.7494230000     -1.4083620000      6.3707160000
C                  0.1209620000     -1.8683560000      5.2353080000
H                 -5.8847580000      2.3883070000      0.8112520000
H                 -5.3943930000      1.0665250000      1.8620500000
H                 -6.5745880000      0.7876660000      0.5419310000
H                 -1.2382980000      2.3691600000      4.0262130000
H                 -1.1935120000     -2.4720130000      2.9294360000
H                 -2.3433550000     -0.8808630000      1.4501140000
H                  0.0782420000      1.9215830000      6.0805570000
H                  1.2297490000      0.3316260000      7.5713950000
H                  1.2597840000     -2.1005240000      7.0319540000
H                  0.1326330000     -2.9271020000      4.9937030000
$end
$rem
MAX_SCF_CYCLES=200
BASIS  =  6-311++G(d,p)
GUI  =  2
JOB_TYPE  =  SP
METHOD  =  B3LYP
SOLVENT_METHOD = PCM
$end
$pcm
theory = CPCM
$end
$solvent
dielectric 37.219
opticaldielectric 1.43
$end

--------------------------------------------------------------

             Standard Nuclear Orientation (Angstroms)
    I     Atom           X                Y                Z
 ----------------------------------------------------------------
    1      C      -4.2515840000    -0.5518770000    -3.5877710000
    2      C      -3.2729630000    -0.9088900000    -4.4982540000
    3      C      -1.9155310000    -0.7011700000    -4.1901070000
    4      C      -3.9102470000     0.0201000000    -2.3461880000
    5      C      -2.5461450000     0.2285510000    -2.0378830000
    6      C      -1.5628870000    -0.1402720000    -2.9750320000
    7      C      -4.9742650000     0.3864820000    -1.3967980000
    8      C      -4.5618120000     0.9588070000    -0.1294340000
    9      C      -3.2097510000     1.1723250000     0.1535130000
   10      C      -2.1302740000     0.8335290000    -0.7552460000
   11      O      -6.1874830000     0.1984810000    -1.6834740000
   12      O      -0.9224050000     1.0163270000    -0.4893670000
   13      H      -5.3043550000    -0.6996890000    -3.7982880000
   14      H      -3.5513030000    -1.3489370000    -5.4513460000
   15      H      -1.1472100000    -0.9811100000    -4.9045820000
   16      H      -0.5267830000     0.0327060000    -2.7081930000
   17      C      -5.6650660000     1.3132990000     0.8334130000
   18      S      -2.7484550000     2.0429440000     1.6520330000
   19      C      -1.8778140000     0.8556280000     2.6519750000
   20      C      -1.2380700000     1.3090160000     3.7912050000
   21      C      -0.5707900000     0.4188100000     4.6657480000
   22      C      -0.5505840000    -0.9798950000     4.3587180000
   23      C      -1.2078670000    -1.4148620000     3.1775350000
   24      C      -1.8518620000    -0.5320630000     2.3492550000
   25      C       0.0891230000     0.8616940000     5.8453020000
   26      C       0.7315040000    -0.0264190000     6.6762660000
   27      C       0.7494230000    -1.4083620000     6.3707160000
   28      C       0.1209620000    -1.8683560000     5.2353080000
   29      H      -5.8847580000     2.3883070000     0.8112520000
   30      H      -5.3943930000     1.0665250000     1.8620500000
   31      H      -6.5745880000     0.7876660000     0.5419310000
   32      H      -1.2382980000     2.3691600000     4.0262130000
   33      H      -1.1935120000    -2.4720130000     2.9294360000
   34      H      -2.3433550000    -0.8808630000     1.4501140000
   35      H       0.0782420000     1.9215830000     6.0805570000
   36      H       1.2297490000     0.3316260000     7.5713950000
   37      H       1.2597840000    -2.1005240000     7.0319540000
   38      H       0.1326330000    -2.9271020000     4.9937030000
 ----------------------------------------------------------------

    8   -1357.7424686790      6.47e-06  Convergence criterion met
 Total energy in the final basis set =    -1357.7424686790

                    Orbital Energies (a.u.)
 --------------------------------------------------------------

 Alpha MOs
 -- Occupied --
-88.8503 -19.0815 -19.0804 -10.2320 -10.2255 -10.2102 -10.1938 -10.1889
-10.1854 -10.1835 -10.1792 -10.1777 -10.1772 -10.1768 -10.1765 -10.1764
-10.1761 -10.1760 -10.1750 -10.1745 -10.1739 -10.1720 -10.1712 -10.1539
 -7.9365  -5.9004  -5.8963  -5.8906  -1.0112  -1.0054  -0.8829  -0.8616
 -0.8412  -0.8211  -0.7834  -0.7701  -0.7551  -0.7521  -0.7328  -0.7188
 -0.6825  -0.6596  -0.6276  -0.6193  -0.6003  -0.5993  -0.5871  -0.5573
 -0.5194  -0.5167  -0.5114  -0.4952  -0.4827  -0.4680  -0.4526  -0.4488
 -0.4423  -0.4345  -0.4267  -0.4219  -0.4213  -0.4195  -0.4174  -0.4025
 -0.3993  -0.3986  -0.3857  -0.3820  -0.3780  -0.3722  -0.3600  -0.3519
 -0.3467  -0.3453  -0.3400  -0.3365  -0.3256  -0.2982  -0.2794  -0.2720
 -0.2586  -0.2527  -0.2513  -0.2411  -0.2353  -0.2072  -0.1577

 Beta MOs
 -- Occupied --
-88.8503 -19.0765 -19.0741 -10.2305 -10.2236 -10.2101 -10.1925 -10.1889
-10.1853 -10.1811 -10.1792 -10.1777 -10.1772 -10.1768 -10.1764 -10.1761
-10.1761 -10.1756 -10.1750 -10.1743 -10.1736 -10.1719 -10.1710 -10.1540
 -7.9364  -5.9004  -5.8963  -5.8905  -1.0023  -0.9942  -0.8828  -0.8596
 -0.8402  -0.8177  -0.7828  -0.7691  -0.7532  -0.7505  -0.7322  -0.7165
 -0.6809  -0.6531  -0.6275  -0.6183  -0.6002  -0.5981  -0.5846  -0.5546
 -0.5188  -0.5150  -0.5107  -0.4936  -0.4813  -0.4657  -0.4519  -0.4487
 -0.4411  -0.4286  -0.4262  -0.4205  -0.4183  -0.4149  -0.4134  -0.4017
 -0.3979  -0.3925  -0.3838  -0.3808  -0.3709  -0.3616  -0.3555  -0.3464
 -0.3451  -0.3411  -0.3386  -0.3361  -0.3230  -0.2981  -0.2759  -0.2532
 -0.2516  -0.2477  -0.2449  -0.2368  -0.2337  -0.2058

          Ground-State Mulliken Net Atomic Charges

     Atom                 Charge (a.u.)    Spin (a.u.)
  --------------------------------------------------------
      1 C                    -0.028317       0.026308
      2 C                    -0.545403       0.010742
      3 C                    -0.577581       0.026630
      4 C                     0.152315       0.004120
      5 C                     0.201290       0.005331
      6 C                     0.060643       0.022482
      7 C                    -0.785998       0.100325
      8 C                     0.691824       0.172320
      9 C                     1.313830       0.090690
     10 C                    -0.814843       0.093840
     11 O                    -0.481784       0.238654
     12 O                    -0.411729       0.191337
     13 H                     0.190268      -0.002991
     14 H                     0.200915      -0.001376
     15 H                     0.202649      -0.002136
     16 H                     0.186962      -0.001895
     17 C                    -0.446768      -0.007576
     18 S                    -0.568225       0.007399
     19 C                     0.199520       0.025980
     20 C                    -0.199588       0.002040
     21 C                    -0.135786       0.003667
     22 C                     0.202253       0.000005
     23 C                    -0.081633      -0.002600
     24 C                    -0.360254      -0.020982
     25 C                    -0.175257      -0.000516
     26 C                    -0.281770      -0.001055
     27 C                    -0.270392       0.000586
     28 C                    -0.344348      -0.000919
     29 H                     0.200528       0.011577
     30 H                     0.141134       0.004689
     31 H                     0.177302      -0.000653
     32 H                     0.192863       0.000387
     33 H                     0.217879      -0.000010
     34 H                     0.231922       0.003584
     35 H                     0.173928       0.000027
     36 H                     0.202021       0.000007
     37 H                     0.206428      -0.000037
     38 H                     0.163129       0.000023
  --------------------------------------------------------
  Sum of atomic charges =    -1.000071

                    Cartesian Multipole Moments
 -----------------------------------------------------------------
    Charge (ESU x 10^10)
                -4.8035
    Dipole Moment (Debye)
         X      16.1930      Y      -4.5716      Z       2.9661
       Tot      17.0853
    Quadrupole Moments (Debye-Ang)
        XX    -238.5926     XY       6.6655     YY    -149.6142
        XZ     -15.9474     YZ       2.3700     ZZ    -150.9732

 Total job time:  113.28s(wall), 814.66s(cpu)
        *  Thank you very much for using Q-Chem.  Have a nice day.  *
