 Q-Chem 5.4, Q-Chem, Inc., Pleasanton, CA (2021)
 Q-Chem 5.4.0 for Intel X86 EM64T Linux

User input:
--------------------------------------------------------------
$molecule
-1 2
O                  4.9764350000      0.6038950000     -0.6554550000
C                  3.6895870000      0.1276030000     -0.4772540000
C                  3.5292690000     -1.2708900000     -0.4187460000
C                  2.2640640000     -1.7956020000     -0.2419740000
C                  1.1299520000     -0.9696700000     -0.1186400000
C                 -0.1932110000     -1.5933500000      0.0682410000
O                 -0.2965180000     -2.8337930000      0.1152260000
C                 -1.3378470000     -0.6749290000      0.1902620000
C                 -2.6625870000     -1.1501680000      0.3732800000
O                 -2.9107880000     -2.5030180000      0.4420810000
C                 -3.7235480000     -0.2609880000      0.4852060000
C                 -3.5284490000      1.1242640000      0.4223630000
C                 -2.2545920000      1.6375740000      0.2449050000
O                 -2.0895100000      2.9780450000      0.1872330000
C                 -1.1366590000      0.7512560000      0.1255940000
C                  0.1764030000      1.3307630000     -0.0586990000
O                  0.3525680000      2.6047790000     -0.1159740000
C                  1.3050270000      0.4342870000     -0.1792490000
C                  2.6028810000      0.9661010000     -0.3604080000
H                  4.9371550000      1.5656010000     -0.6762500000
H                  4.4016870000     -1.9075390000     -0.5136080000
H                  2.1065950000     -2.8666570000     -0.1927390000
H                 -3.8601360000     -2.6071040000      0.5660330000
H                 -4.7287060000     -0.6543390000      0.6250280000
H                 -4.3621100000      1.8114840000      0.5106390000
H                 -1.0928410000      3.1061070000      0.0559050000
H                  2.7058810000      2.0462890000     -0.4030020000
$end
$rem
MAX_SCF_CYCLES=200
BASIS  =  6-311++G(d,p)
GUI  =  2
JOB_TYPE  =  SP
METHOD  =  B3LYP
SOLVENT_METHOD = COSMO
$end
$solvent
dielectric 37.219
opticaldielectric 1.43
$end

--------------------------------------------------------------

             Standard Nuclear Orientation (Angstroms)
    I     Atom           X                Y                Z
 ----------------------------------------------------------------
    1      O       5.0157048553    -0.6674923011     0.0000407731
    2      C       3.7221882359    -0.1761653264     0.0000397311
    3      C       3.5717736009     1.2246498438     0.0001612623
    4      C       2.3004596185     1.7641639510     0.0001275486
    5      C       1.1504782523     0.9510662932    -0.0000431345
    6      C      -0.1784703737     1.5902510274    -0.0000514282
    7      O      -0.2726870716     2.8323065720    -0.0000263573
    8      C      -1.3397828870     0.6847505713    -0.0000750446
    9      C      -2.6715060004     1.1754615984    -0.0000562245
   10      O      -2.9109164443     2.5316411809    -0.0001822533
   11      C      -3.7482094519     0.2982407550     0.0000647516
   12      C      -3.5625954680    -1.0897374162     0.0001702805
   13      C      -2.2824823456    -1.6179424350     0.0000901525
   14      O      -2.1267839017    -2.9607747486     0.0000981860
   15      C      -1.1483668841    -0.7442428256    -0.0000393319
   16      C       0.1707406928    -1.3391203618    -0.0001195464
   17      O       0.3381427393    -2.6156029727    -0.0001237397
   18      C       1.3157336375    -0.4553869118    -0.0001077288
   19      C       2.6199058591    -1.0023828300    -0.0000726570
   20      H       4.9683664197    -1.6290601618    -0.0002795973
   21      H       4.4564123883     1.8514258064     0.0003147761
   22      H       2.1502963334     2.8373975497     0.0002486976
   23      H      -3.8670636280     2.6467132318     0.0005955419
   24      H      -4.7584119179     0.7033441754     0.0000152541
   25      H      -4.4085366993    -1.7675560280     0.0002483068
   26      H      -1.1230399758    -3.1003961215    -0.0000377997
   27      H       2.7150967447    -2.0841258952    -0.0000898339
 ----------------------------------------------------------------

   11    -914.7674619680      6.25e-06  Convergence criterion met
 Total energy in the final basis set =     -914.7674619680
    5    -914.8604901313      4.74e-06  Convergence criterion met
 Total energy in the final basis set =     -914.8604901313

                    Orbital Energies (a.u.)
 --------------------------------------------------------------

 Alpha MOs
 -- Occupied --
-19.1574 -19.1491 -19.1289 -19.0911 -19.0795 -10.2398 -10.2362 -10.2355
-10.2316 -10.2311 -10.1820 -10.1816 -10.1806 -10.1766 -10.1746 -10.1736
-10.1728 -10.1714 -10.1691  -1.0640  -1.0606  -1.0539  -1.0118  -1.0046
 -0.8649  -0.8485  -0.7895  -0.7577  -0.7447  -0.7378  -0.6750  -0.6522
 -0.6367  -0.6048  -0.5757  -0.5607  -0.5540  -0.5300  -0.5066  -0.4883
 -0.4770  -0.4641  -0.4566  -0.4410  -0.4337  -0.4278  -0.4242  -0.4172
 -0.4157  -0.4047  -0.4036  -0.3922  -0.3890  -0.3753  -0.3742  -0.3635
 -0.3592  -0.3465  -0.3312  -0.3117  -0.2720  -0.2603  -0.2600  -0.2399
 -0.2372  -0.2187  -0.1447

 Beta MOs
 -- Occupied --
-19.1574 -19.1489 -19.1283 -19.0861 -19.0750 -10.2398 -10.2355 -10.2352
-10.2305 -10.2285 -10.1821 -10.1810 -10.1802 -10.1769 -10.1739 -10.1722
-10.1720 -10.1707 -10.1684  -1.0639  -1.0601  -1.0518  -1.0041  -0.9960
 -0.8626  -0.8470  -0.7856  -0.7553  -0.7431  -0.7353  -0.6680  -0.6508
 -0.6343  -0.6037  -0.5734  -0.5593  -0.5531  -0.5286  -0.5051  -0.4851
 -0.4763  -0.4628  -0.4551  -0.4329  -0.4328  -0.4264  -0.4213  -0.4151
 -0.4123  -0.4022  -0.3969  -0.3884  -0.3830  -0.3745  -0.3624  -0.3579
 -0.3566  -0.3451  -0.3243  -0.3045  -0.2570  -0.2559  -0.2529  -0.2357
 -0.2313  -0.2087

          Ground-State Mulliken Net Atomic Charges

     Atom                 Charge (a.u.)    Spin (a.u.)
  --------------------------------------------------------
      1 O                    -0.313928       0.001858
      2 C                    -0.698613       0.000201
      3 C                    -0.231262       0.052722
      4 C                     0.111342       0.001825
      5 C                    -0.263292       0.035531
      6 C                    -0.330494       0.051189
      7 O                    -0.465684       0.166100
      8 C                     0.330123       0.052263
      9 C                    -0.304311       0.016103
     10 O                    -0.274778       0.005912
     11 C                    -0.245416       0.095551
     12 C                    -0.164014       0.046787
     13 C                    -0.287694       0.067382
     14 O                    -0.434081       0.017924
     15 C                     0.825830      -0.033173
     16 C                    -0.292766       0.184785
     17 O                    -0.526844       0.181630
     18 C                     0.386252      -0.002839
     19 C                     0.167000       0.083918
     20 H                     0.324074      -0.000133
     21 H                     0.230572      -0.004032
     22 H                     0.180866       0.000329
     23 H                     0.312276      -0.000612
     24 H                     0.196769      -0.008319
     25 H                     0.214816      -0.004485
     26 H                     0.379480      -0.004069
     27 H                     0.173778      -0.004347
  --------------------------------------------------------
  Sum of atomic charges =    -1.000000

                    Cartesian Multipole Moments
 -----------------------------------------------------------------
    Charge (ESU x 10^10)
                -4.8032
    Dipole Moment (Debye)
         X      -0.3435      Y      -0.5739      Z       0.0013
       Tot       0.6689
    Quadrupole Moments (Debye-Ang)
        XX    -105.9603     XY     -13.7896     YY    -148.1839
        XZ      -0.0093     YZ       0.0090     ZZ    -115.5775

 Total job time:  103.67s(wall), 773.35s(cpu)
        *  Thank you very much for using Q-Chem.  Have a nice day.  *
