 Q-Chem 5.4, Q-Chem, Inc., Pleasanton, CA (2021)
 Q-Chem 5.4.0 for Intel X86 EM64T Linux

User input:
--------------------------------------------------------------
$molecule
0 1
C                 17.2276580000      1.4626860000      0.1105210000
C                 16.5444550000      0.2724940000      0.7159110000
C                 16.0720350000      0.3317980000      1.9776640000
C                 16.1515450000      1.6036200000      2.7531060000
C                 16.7931470000      2.8139320000      2.1253200000
C                 17.2880360000      2.7402330000      0.8605810000
O                 17.7524020000      1.3752830000     -0.9918370000
O                 15.6911480000      1.6796160000      3.8765710000
C                 17.5146620000      4.3166420000     -0.9355160000
C                 17.1186290000      5.1846570000      2.5642500000
C                 16.4697340000     -0.9593310000     -0.1433740000
H                 18.1751230000      5.1530700000     -1.1604660000
H                 16.4873890000      4.6819420000     -0.8248180000
H                 17.5693210000      3.5740980000     -1.7297480000
H                 16.9160770000      5.7936650000      3.4437400000
H                 16.4733390000      5.5004890000      1.7412640000
H                 18.1626590000      5.2732750000      2.2697050000
C                 15.4063250000     -0.8308170000      2.6833400000
C                 13.9071150000     -0.8314280000      2.4796210000
C                 13.1261150000     -1.8337540000      2.0538260000
C                 11.6298190000     -1.6231270000      1.9320890000
C                 11.1170050000     -1.5628470000      0.4708600000
C                  9.6211090000     -1.4266290000      0.3987890000
C                  8.8914740000     -0.4075360000     -0.0770870000
C                  7.3778960000     -0.4736400000     -0.0380060000
C                  6.7230660000      0.5205740000      0.9533090000
C                  5.2212330000      0.4549990000      0.9159350000
C                  4.3700220000      0.1130170000      1.8935980000
C                  2.8765580000      0.1177600000      1.6372560000
C                 13.6160590000     -3.2160170000      1.6983150000
C                  9.4702750000      0.8470630000     -0.6846730000
C                  4.7885970000     -0.2933320000      3.2859470000
C                  2.1052860000      1.2243390000      2.4002610000
C                  0.6228650000      1.1555370000      2.1576840000
C                 -0.1703640000      2.0411700000      1.5381210000
C                 -1.6521700000      1.7599900000      1.3885920000
C                 -2.0982100000      1.4593160000     -0.0648660000
C                 -3.5835470000      1.2509690000     -0.1727230000
C                 -4.2553200000      0.1404450000     -0.5087270000
C                 -5.7706440000      0.1483760000     -0.5375910000
C                 -6.4317860000     -0.6848900000      0.5895920000
C                 -7.9317240000     -0.6968510000      0.4831930000
C                 -8.8390470000     -0.1800210000      1.3241120000
C                -10.3173730000     -0.2909320000      1.0088000000
C                -10.9890040000      1.0541160000      0.6322010000
C                -12.4653360000      0.9045480000      0.3884700000
C                -13.1504340000      1.0684100000     -0.7522310000
C                  0.3012840000      3.3543730000      0.9625780000
C                 -3.6067050000     -1.1687490000     -0.8875420000
C                 -8.5029930000      0.5226600000      2.6169590000
C                -12.5347260000      1.4830740000     -2.0664450000
C                -14.6494310000      0.8458110000     -0.7776180000
C                -15.0896910000     -0.4203560000     -1.5546530000
C                -16.5855020000     -0.5641330000     -1.6109770000
C                -17.3571170000     -1.5274140000     -1.0874470000
C                -16.8340090000     -2.7048980000     -0.3005560000
C                -18.8609830000     -1.4786470000     -1.2661930000
C                -19.4301760000     -2.6031720000     -2.1667330000
C                -20.9284610000     -2.5408330000     -2.2778900000
C                -21.6828040000     -2.3446500000     -3.3685210000
C                -21.1332600000     -2.1373940000     -4.7594170000
C                -23.1936630000     -2.3213760000     -3.2568050000
H                 15.6108690000     -0.7326980000      3.7538320000
H                 15.8547850000     -1.7652300000      2.3469910000
H                 13.4249540000      0.1076830000      2.7421600000
H                 11.3469210000     -0.6956330000      2.4374610000
H                 11.1057910000     -2.4357260000      2.4525800000
H                 11.4095130000     -2.4826930000     -0.0502360000
H                 11.6220550000     -0.7422730000     -0.0433450000
H                  9.0741320000     -2.2785350000      0.8035230000
H                  7.0617710000     -1.4866260000      0.2269840000
H                  6.9802110000     -0.2747680000     -1.0425250000
H                  7.0335620000      1.5406010000      0.6954490000
H                  7.1108920000      0.3266480000      1.9558630000
H                  4.7859060000      0.7134000000     -0.0498400000
H                  2.4566140000     -0.8567710000      1.9213080000
H                  2.6881420000      0.2388700000      0.5666320000
H                 14.6973070000     -3.3251050000      1.7795450000
H                 13.3290310000     -3.4910490000      0.6780560000
H                 13.1577230000     -3.9593240000      2.3611080000
H                 10.5584490000      0.8333190000     -0.7374580000
H                  9.1787030000      1.7349760000     -0.1137440000
H                  9.0860560000      0.9896580000     -1.7015760000
H                  5.8678080000     -0.3995280000      3.3919570000
H                  4.3283040000     -1.2504310000      3.5570960000
H                  4.4542900000      0.4362290000      4.0316430000
H                  2.5160970000      2.1961850000      2.1175320000
H                  2.2886930000      1.1112100000      3.4756200000
H                  0.1491700000      0.2486710000      2.5347350000
H                 -2.2243780000      2.6225520000      1.7562380000
H                 -1.9300780000      0.9102390000      2.0186900000
H                 -1.5413510000      0.5933880000     -0.4296320000
H                 -1.8163740000      2.3022920000     -0.7074080000
H                 -4.1780030000      2.1319820000      0.0710190000
H                 -6.1175930000     -0.2389960000     -1.5051590000
H                 -6.1337980000      1.1775900000     -0.4655780000
H                 -6.0984120000     -0.2954140000      1.5540390000
H                 -6.0691630000     -1.7182750000      0.5304750000
H                 -8.3130890000     -1.1864620000     -0.4133650000
H                -10.8435420000     -0.7111380000      1.8766470000
H                -10.4651370000     -0.9941690000      0.1841860000
H                -10.4761090000      1.4695750000     -0.2380590000
H                -10.8408850000      1.7696540000      1.4500440000
H                -13.0371450000      0.6103960000      1.2690710000
H                  1.3652460000      3.5307420000      1.1172820000
H                 -0.2474720000      4.1880430000      1.4165440000
H                  0.1112570000      3.4062810000     -0.1147380000
H                 -2.5181870000     -1.1224890000     -0.8845490000
H                 -3.9276020000     -1.4767200000     -1.8897440000
H                 -3.9049030000     -1.9713350000     -0.2046420000
H                 -7.4332820000      0.5513490000      2.8217120000
H                 -8.9937490000      0.0230150000      3.4605830000
H                 -8.8661010000      1.5558720000      2.6127960000
H                -11.4610990000      1.6559270000     -1.9993550000
H                -13.0019690000      2.4053590000     -2.4315900000
H                -12.6991900000      0.7238260000     -2.8384080000
H                -15.1390190000      1.7189030000     -1.2299060000
H                -15.0273710000      0.7727120000      0.2461950000
H                -14.6167390000     -1.2942850000     -1.1011630000
H                -14.7071310000     -0.3619880000     -2.5810240000
H                -17.0932820000      0.2407110000     -2.1432000000
H                -15.7685310000     -2.6320180000     -0.0844400000
H                -16.9987130000     -3.6470520000     -0.8347860000
H                -17.3654880000     -2.7901150000      0.6542740000
H                -19.1486570000     -0.5130520000     -1.6919660000
H                -19.3454480000     -1.5440370000     -0.2822990000
H                -19.1525790000     -3.5759960000     -1.7425140000
H                -18.9502660000     -2.5482270000     -3.1465430000
H                -21.4530650000     -2.6636180000     -1.3298760000
H                -20.0498900000     -2.0220240000     -4.7761240000
H                -21.5738830000     -1.2420730000     -5.2128010000
H                -21.3856510000     -2.9772820000     -5.4162190000
H                -23.4788340000     -2.3117130000     -2.2000840000
C                -23.9013710000     -3.5113520000     -3.9523710000
H                -23.5798810000     -1.3911710000     -3.6935820000
C                -25.3870210000     -3.5035820000     -3.7199930000
C                -26.3754320000     -3.3712520000     -4.6147510000
C                -27.8205390000     -3.3806930000     -4.1779440000
C                -26.1784180000     -3.2083030000     -6.1011340000
H                -23.4795710000     -4.4398450000     -3.5461920000
H                -23.6704430000     -3.5087070000     -5.0193470000
H                -25.6779430000     -3.6095580000     -2.6747590000
H                -27.9172040000     -3.5017230000     -3.0971500000
H                -28.3721540000     -4.1948520000     -4.6632980000
H                -28.3235110000     -2.4491190000     -4.4639190000
H                -25.1304740000     -3.1847780000     -6.3986820000
H                -26.6487980000     -2.2815600000     -6.4502550000
H                -26.6646120000     -4.0269520000     -6.6450010000
O                 17.9866400000      3.7763830000      0.3116040000
O                 16.8016820000      3.8460360000      2.9732950000
H                 17.1985820000     -1.7079350000      0.1869990000
H                 16.7012520000     -0.7140660000     -1.1784500000
H                 15.4792950000     -1.4144670000     -0.0890400000
$end
$rem
MAX_SCF_CYCLES=200
BASIS  =  6-311++G(d,p)
GUI  =  2
JOB_TYPE  =  SP
METHOD  =  B3LYP
THRESH = 14
SCF_CONVERGENCE = 8
SCF_ALGORITHM = RCA_DIIS
scf_guess = GWH
SOLVENT_METHOD = PCM
$end
$pcm
theory = CPCM
$end
$solvent
dielectric 37.219
opticaldielectric 1.43
$end
--------------------------------------------------------------

             Standard Nuclear Orientation (Angstroms)
    I     Atom           X                Y                Z
 ----------------------------------------------------------------
    1      C      17.2276580000     1.4626860000     0.1105210000
    2      C      16.5444550000     0.2724940000     0.7159110000
    3      C      16.0720350000     0.3317980000     1.9776640000
    4      C      16.1515450000     1.6036200000     2.7531060000
    5      C      16.7931470000     2.8139320000     2.1253200000
    6      C      17.2880360000     2.7402330000     0.8605810000
    7      O      17.7524020000     1.3752830000    -0.9918370000
    8      O      15.6911480000     1.6796160000     3.8765710000
    9      C      17.5146620000     4.3166420000    -0.9355160000
   10      C      17.1186290000     5.1846570000     2.5642500000
   11      C      16.4697340000    -0.9593310000    -0.1433740000
   12      H      18.1751230000     5.1530700000    -1.1604660000
   13      H      16.4873890000     4.6819420000    -0.8248180000
   14      H      17.5693210000     3.5740980000    -1.7297480000
   15      H      16.9160770000     5.7936650000     3.4437400000
   16      H      16.4733390000     5.5004890000     1.7412640000
   17      H      18.1626590000     5.2732750000     2.2697050000
   18      C      15.4063250000    -0.8308170000     2.6833400000
   19      C      13.9071150000    -0.8314280000     2.4796210000
   20      C      13.1261150000    -1.8337540000     2.0538260000
   21      C      11.6298190000    -1.6231270000     1.9320890000
   22      C      11.1170050000    -1.5628470000     0.4708600000
   23      C       9.6211090000    -1.4266290000     0.3987890000
   24      C       8.8914740000    -0.4075360000    -0.0770870000
   25      C       7.3778960000    -0.4736400000    -0.0380060000
   26      C       6.7230660000     0.5205740000     0.9533090000
   27      C       5.2212330000     0.4549990000     0.9159350000
   28      C       4.3700220000     0.1130170000     1.8935980000
   29      C       2.8765580000     0.1177600000     1.6372560000
   30      C      13.6160590000    -3.2160170000     1.6983150000
   31      C       9.4702750000     0.8470630000    -0.6846730000
   32      C       4.7885970000    -0.2933320000     3.2859470000
   33      C       2.1052860000     1.2243390000     2.4002610000
   34      C       0.6228650000     1.1555370000     2.1576840000
   35      C      -0.1703640000     2.0411700000     1.5381210000
   36      C      -1.6521700000     1.7599900000     1.3885920000
   37      C      -2.0982100000     1.4593160000    -0.0648660000
   38      C      -3.5835470000     1.2509690000    -0.1727230000
   39      C      -4.2553200000     0.1404450000    -0.5087270000
   40      C      -5.7706440000     0.1483760000    -0.5375910000
   41      C      -6.4317860000    -0.6848900000     0.5895920000
   42      C      -7.9317240000    -0.6968510000     0.4831930000
   43      C      -8.8390470000    -0.1800210000     1.3241120000
   44      C     -10.3173730000    -0.2909320000     1.0088000000
   45      C     -10.9890040000     1.0541160000     0.6322010000
   46      C     -12.4653360000     0.9045480000     0.3884700000
   47      C     -13.1504340000     1.0684100000    -0.7522310000
   48      C       0.3012840000     3.3543730000     0.9625780000
   49      C      -3.6067050000    -1.1687490000    -0.8875420000
   50      C      -8.5029930000     0.5226600000     2.6169590000
   51      C     -12.5347260000     1.4830740000    -2.0664450000
   52      C     -14.6494310000     0.8458110000    -0.7776180000
   53      C     -15.0896910000    -0.4203560000    -1.5546530000
   54      C     -16.5855020000    -0.5641330000    -1.6109770000
   55      C     -17.3571170000    -1.5274140000    -1.0874470000
   56      C     -16.8340090000    -2.7048980000    -0.3005560000
   57      C     -18.8609830000    -1.4786470000    -1.2661930000
   58      C     -19.4301760000    -2.6031720000    -2.1667330000
   59      C     -20.9284610000    -2.5408330000    -2.2778900000
   60      C     -21.6828040000    -2.3446500000    -3.3685210000
   61      C     -21.1332600000    -2.1373940000    -4.7594170000
   62      C     -23.1936630000    -2.3213760000    -3.2568050000
   63      H      15.6108690000    -0.7326980000     3.7538320000
   64      H      15.8547850000    -1.7652300000     2.3469910000
   65      H      13.4249540000     0.1076830000     2.7421600000
   66      H      11.3469210000    -0.6956330000     2.4374610000
   67      H      11.1057910000    -2.4357260000     2.4525800000
   68      H      11.4095130000    -2.4826930000    -0.0502360000
   69      H      11.6220550000    -0.7422730000    -0.0433450000
   70      H       9.0741320000    -2.2785350000     0.8035230000
   71      H       7.0617710000    -1.4866260000     0.2269840000
   72      H       6.9802110000    -0.2747680000    -1.0425250000
   73      H       7.0335620000     1.5406010000     0.6954490000
   74      H       7.1108920000     0.3266480000     1.9558630000
   75      H       4.7859060000     0.7134000000    -0.0498400000
   76      H       2.4566140000    -0.8567710000     1.9213080000
   77      H       2.6881420000     0.2388700000     0.5666320000
   78      H      14.6973070000    -3.3251050000     1.7795450000
   79      H      13.3290310000    -3.4910490000     0.6780560000
   80      H      13.1577230000    -3.9593240000     2.3611080000
   81      H      10.5584490000     0.8333190000    -0.7374580000
   82      H       9.1787030000     1.7349760000    -0.1137440000
   83      H       9.0860560000     0.9896580000    -1.7015760000
   84      H       5.8678080000    -0.3995280000     3.3919570000
   85      H       4.3283040000    -1.2504310000     3.5570960000
   86      H       4.4542900000     0.4362290000     4.0316430000
   87      H       2.5160970000     2.1961850000     2.1175320000
   88      H       2.2886930000     1.1112100000     3.4756200000
   89      H       0.1491700000     0.2486710000     2.5347350000
   90      H      -2.2243780000     2.6225520000     1.7562380000
   91      H      -1.9300780000     0.9102390000     2.0186900000
   92      H      -1.5413510000     0.5933880000    -0.4296320000
   93      H      -1.8163740000     2.3022920000    -0.7074080000
   94      H      -4.1780030000     2.1319820000     0.0710190000
   95      H      -6.1175930000    -0.2389960000    -1.5051590000
   96      H      -6.1337980000     1.1775900000    -0.4655780000
   97      H      -6.0984120000    -0.2954140000     1.5540390000
   98      H      -6.0691630000    -1.7182750000     0.5304750000
   99      H      -8.3130890000    -1.1864620000    -0.4133650000
  100      H     -10.8435420000    -0.7111380000     1.8766470000
  101      H     -10.4651370000    -0.9941690000     0.1841860000
  102      H     -10.4761090000     1.4695750000    -0.2380590000
  103      H     -10.8408850000     1.7696540000     1.4500440000
  104      H     -13.0371450000     0.6103960000     1.2690710000
  105      H       1.3652460000     3.5307420000     1.1172820000
  106      H      -0.2474720000     4.1880430000     1.4165440000
  107      H       0.1112570000     3.4062810000    -0.1147380000
  108      H      -2.5181870000    -1.1224890000    -0.8845490000
  109      H      -3.9276020000    -1.4767200000    -1.8897440000
  110      H      -3.9049030000    -1.9713350000    -0.2046420000
  111      H      -7.4332820000     0.5513490000     2.8217120000
  112      H      -8.9937490000     0.0230150000     3.4605830000
  113      H      -8.8661010000     1.5558720000     2.6127960000
  114      H     -11.4610990000     1.6559270000    -1.9993550000
  115      H     -13.0019690000     2.4053590000    -2.4315900000
  116      H     -12.6991900000     0.7238260000    -2.8384080000
  117      H     -15.1390190000     1.7189030000    -1.2299060000
  118      H     -15.0273710000     0.7727120000     0.2461950000
  119      H     -14.6167390000    -1.2942850000    -1.1011630000
  120      H     -14.7071310000    -0.3619880000    -2.5810240000
  121      H     -17.0932820000     0.2407110000    -2.1432000000
  122      H     -15.7685310000    -2.6320180000    -0.0844400000
  123      H     -16.9987130000    -3.6470520000    -0.8347860000
  124      H     -17.3654880000    -2.7901150000     0.6542740000
  125      H     -19.1486570000    -0.5130520000    -1.6919660000
  126      H     -19.3454480000    -1.5440370000    -0.2822990000
  127      H     -19.1525790000    -3.5759960000    -1.7425140000
  128      H     -18.9502660000    -2.5482270000    -3.1465430000
  129      H     -21.4530650000    -2.6636180000    -1.3298760000
  130      H     -20.0498900000    -2.0220240000    -4.7761240000
  131      H     -21.5738830000    -1.2420730000    -5.2128010000
  132      H     -21.3856510000    -2.9772820000    -5.4162190000
  133      H     -23.4788340000    -2.3117130000    -2.2000840000
  134      C     -23.9013710000    -3.5113520000    -3.9523710000
  135      H     -23.5798810000    -1.3911710000    -3.6935820000
  136      C     -25.3870210000    -3.5035820000    -3.7199930000
  137      C     -26.3754320000    -3.3712520000    -4.6147510000
  138      C     -27.8205390000    -3.3806930000    -4.1779440000
  139      C     -26.1784180000    -3.2083030000    -6.1011340000
  140      H     -23.4795710000    -4.4398450000    -3.5461920000
  141      H     -23.6704430000    -3.5087070000    -5.0193470000
  142      H     -25.6779430000    -3.6095580000    -2.6747590000
  143      H     -27.9172040000    -3.5017230000    -3.0971500000
  144      H     -28.3721540000    -4.1948520000    -4.6632980000
  145      H     -28.3235110000    -2.4491190000    -4.4639190000
  146      H     -25.1304740000    -3.1847780000    -6.3986820000
  147      H     -26.6487980000    -2.2815600000    -6.4502550000
  148      H     -26.6646120000    -4.0269520000    -6.6450010000
  149      O      17.9866400000     3.7763830000     0.3116040000
  150      O      16.8016820000     3.8460360000     2.9732950000
  151      H      17.1985820000    -1.7079350000     0.1869990000
  152      H      16.7012520000    -0.7140660000    -1.1784500000
  153      H      15.4792950000    -1.4144670000    -0.0890400000
 ----------------------------------------------------------------

   97   -2603.9479621286      4.99E-09 Convergence criterion met
 Total energy in the final basis set = -2603.94796213

                    Orbital Energies (a.u.)
 --------------------------------------------------------------

 Alpha MOs
 -- Occupied --
-19.1789 -19.1585 -19.1402 -19.1340 -10.2869 -10.2821 -10.2662 -10.2505
-10.2233 -10.2164 -10.2116 -10.2076 -10.1796 -10.1780 -10.1745 -10.1728
-10.1724 -10.1724 -10.1724 -10.1723 -10.1723 -10.1723 -10.1722 -10.1697
-10.1663 -10.1660 -10.1653 -10.1643 -10.1642 -10.1642 -10.1642 -10.1642
-10.1642 -10.1642 -10.1641 -10.1640 -10.1639 -10.1639 -10.1639 -10.1639
-10.1638 -10.1638 -10.1637 -10.1601 -10.1583 -10.1580 -10.1579 -10.1579
-10.1579 -10.1579 -10.1579 -10.1578 -10.1578 -10.1576 -10.1574 -10.1574
-10.1574 -10.1574 -10.1574 -10.1574 -10.1573 -10.1573 -10.1572  -1.1037
 -1.0807  -1.0677  -1.0548  -0.8638  -0.8300  -0.8292  -0.8276  -0.8253
 -0.8223  -0.8188  -0.8148  -0.8105  -0.8063  -0.8030  -0.8013  -0.7756
 -0.7711  -0.7649  -0.7579  -0.7506  -0.7438  -0.7417  -0.7354  -0.7286
 -0.7227  -0.7187  -0.7162  -0.6889  -0.6886  -0.6858  -0.6855  -0.6849
 -0.6839  -0.6823  -0.6800  -0.6765  -0.6717  -0.6666  -0.6654  -0.6531
 -0.6423  -0.6330  -0.6229  -0.6130  -0.6039  -0.5974  -0.5960  -0.5895
 -0.5856  -0.5822  -0.5802  -0.5555  -0.5324  -0.5222  -0.5216  -0.5201
 -0.5192  -0.5177  -0.5156  -0.5142  -0.5131  -0.5110  -0.5095  -0.5085
 -0.4950  -0.4785  -0.4771  -0.4767  -0.4759  -0.4756  -0.4746  -0.4739
 -0.4722  -0.4698  -0.4666  -0.4647  -0.4632  -0.4600  -0.4520  -0.4472
 -0.4468  -0.4443  -0.4422  -0.4417  -0.4387  -0.4353  -0.4342  -0.4322
 -0.4315  -0.4294  -0.4279  -0.4276  -0.4242  -0.4205  -0.4187  -0.4175
 -0.4144  -0.4127  -0.4117  -0.4103  -0.4093  -0.4080  -0.4064  -0.4058
 -0.4047  -0.4024  -0.4001  -0.3998  -0.3997  -0.3974  -0.3946  -0.3912
 -0.3888  -0.3871  -0.3868  -0.3813  -0.3777  -0.3711  -0.3708  -0.3707
 -0.3703  -0.3701  -0.3697  -0.3692  -0.3684  -0.3682  -0.3673  -0.3671
 -0.3660  -0.3656  -0.3642  -0.3634  -0.3619  -0.3609  -0.3587  -0.3580
 -0.3566  -0.3558  -0.3538  -0.3533  -0.3513  -0.3479  -0.3424  -0.3389
 -0.3348  -0.3346  -0.3329  -0.3317  -0.3306  -0.3286  -0.3270  -0.3253
 -0.3249  -0.3243  -0.3212  -0.3172  -0.3163  -0.3122  -0.3083  -0.3059
 -0.2886  -0.2846  -0.2747  -0.2518  -0.2506  -0.2478  -0.2447  -0.2430
 -0.2401  -0.2362  -0.2320  -0.2284  -0.2252  -0.2221

          Ground-State Mulliken Net Atomic Charges

     Atom                 Charge (a.u.)
  ----------------------------------------
      1 C                    -0.475589
      2 C                     0.699684
      3 C                     1.002948
      4 C                    -0.842473
      5 C                    -0.108515
      6 C                     0.086051
      7 O                    -0.311447
      8 O                    -0.270495
      9 C                    -0.310237
     10 C                    -0.322337
     11 C                    -0.649681
     12 H                     0.180149
     13 H                     0.152762
     14 H                     0.172365
     15 H                     0.202393
     16 H                     0.196606
     17 H                     0.201831
     18 C                     0.090104
     19 C                    -0.821264
     20 C                     0.755325
     21 C                    -0.548929
     22 C                    -0.169665
     23 C                    -0.398066
     24 C                     0.607126
     25 C                    -0.612714
     26 C                    -0.328986
     27 C                    -0.320822
     28 C                     0.591253
     29 C                    -0.412942
     30 C                    -0.774305
     31 C                    -0.778062
     32 C                    -0.735756
     33 C                    -0.370209
     34 C                    -0.327099
     35 C                     0.514673
     36 C                    -0.433494
     37 C                    -0.290741
     38 C                    -0.291460
     39 C                     0.473039
     40 C                    -0.441138
     41 C                    -0.281570
     42 C                    -0.373628
     43 C                     0.529397
     44 C                    -0.430300
     45 C                    -0.235314
     46 C                    -0.329834
     47 C                     0.568667
     48 C                    -0.729160
     49 C                    -0.753174
     50 C                    -0.742547
     51 C                    -0.751919
     52 C                    -0.590350
     53 C                    -0.319620
     54 C                    -0.331448
     55 C                     0.660173
     56 C                    -0.764297
     57 C                    -0.503146
     58 C                    -0.389038
     59 C                    -0.149564
     60 C                     0.675316
     61 C                    -0.769935
     62 C                    -0.752032
     63 H                     0.223117
     64 H                     0.224058
     65 H                     0.239629
     66 H                     0.167995
     67 H                     0.153498
     68 H                     0.145330
     69 H                     0.126730
     70 H                     0.207882
     71 H                     0.168479
     72 H                     0.147506
     73 H                     0.144468
     74 H                     0.153689
     75 H                     0.215287
     76 H                     0.159859
     77 H                     0.169051
     78 H                     0.126316
     79 H                     0.172810
     80 H                     0.176239
     81 H                     0.145172
     82 H                     0.177210
     83 H                     0.168410
     84 H                     0.139391
     85 H                     0.168098
     86 H                     0.179478
     87 H                     0.148229
     88 H                     0.140620
     89 H                     0.195601
     90 H                     0.144493
     91 H                     0.182532
     92 H                     0.154095
     93 H                     0.137148
     94 H                     0.203997
     95 H                     0.146409
     96 H                     0.176552
     97 H                     0.148023
     98 H                     0.137944
     99 H                     0.199539
    100 H                     0.142802
    101 H                     0.180303
    102 H                     0.152113
    103 H                     0.135395
    104 H                     0.211468
    105 H                     0.135817
    106 H                     0.167502
    107 H                     0.174773
    108 H                     0.136781
    109 H                     0.168308
    110 H                     0.175278
    111 H                     0.138894
    112 H                     0.168088
    113 H                     0.175188
    114 H                     0.139674
    115 H                     0.166918
    116 H                     0.174636
    117 H                     0.147832
    118 H                     0.169365
    119 H                     0.154807
    120 H                     0.145116
    121 H                     0.215596
    122 H                     0.137540
    123 H                     0.179789
    124 H                     0.169011
    125 H                     0.158364
    126 H                     0.162359
    127 H                     0.152397
    128 H                     0.147713
    129 H                     0.212964
    130 H                     0.130622
    131 H                     0.163366
    132 H                     0.180271
    133 H                     0.153835
    134 C                    -0.342459
    135 H                     0.181863
    136 C                    -0.044994
    137 C                     0.416806
    138 C                    -0.645376
    139 C                    -0.700427
    140 H                     0.173841
    141 H                     0.131313
    142 H                     0.177968
    143 H                     0.162178
    144 H                     0.150713
    145 H                     0.156419
    146 H                     0.143894
    147 H                     0.156794
    148 H                     0.152703
    149 O                    -0.219345
    150 O                    -0.208220
    151 H                     0.228883
    152 H                     0.183318
    153 H                     0.187798
  ----------------------------------------
  Sum of atomic charges =     0.000000

                    Cartesian Multipole Moments
 -----------------------------------------------------------------
    Charge (ESU x 10^10)
                 0.0000
    Dipole Moment (Debye)
         X      -1.4350      Y       0.6199      Z      -2.9578
       Tot       3.3454
    Quadrupole Moments (Debye-Ang)
        XX    -432.4306     XY      16.0293     YY    -367.7232
        XZ     -11.7513     YZ      -8.9712     ZZ    -408.1385

 Total job time:  31997.61s(wall), 181271.84s(cpu)
        *  Thank you very much for using Q-Chem.  Have a nice day.  *
