 Gaussian 16, Revision A.03,
 Gaussian 16:  ES64L-G16RevA.03 25-Dec-2016

 --------------------------------------
 #P UB3LYP/6-311++G(d,p) nosym opt freq
 --------------------------------------

 --------
 Oxidized
 --------
 Symbolic Z-matrix:
 Charge = -1 Multiplicity = 1

 SCF Done:  E(UB3LYP) =  -1367.71715869     A.U. after   19 cycles
 SCF Done:  E(UB3LYP) =  -1367.72296892     A.U. after   15 cycles
 SCF Done:  E(UB3LYP) =  -1367.72856145     A.U. after   15 cycles
 SCF Done:  E(UB3LYP) =  -1367.73043014     A.U. after   14 cycles
 SCF Done:  E(UB3LYP) =  -1367.73180245     A.U. after   14 cycles
 SCF Done:  E(UB3LYP) =  -1367.73229739     A.U. after   15 cycles
 SCF Done:  E(UB3LYP) =  -1367.73245608     A.U. after   15 cycles
 SCF Done:  E(UB3LYP) =  -1367.73274090     A.U. after   13 cycles
 SCF Done:  E(UB3LYP) =  -1367.73277194     A.U. after   13 cycles
 SCF Done:  E(UB3LYP) =  -1367.73277970     A.U. after   12 cycles
 SCF Done:  E(UB3LYP) =  -1367.73278512     A.U. after   11 cycles
 SCF Done:  E(UB3LYP) =  -1367.73278542     A.U. after   11 cycles
 SCF Done:  E(UB3LYP) =  -1367.73278561     A.U. after    9 cycles
 SCF Done:  E(UB3LYP) =  -1367.73278568     A.U. after    9 cycles
 SCF Done:  E(UB3LYP) =  -1367.73278571     A.U. after    9 cycles
 Optimization completed.
    -- Stationary point found.
 Normal termination of Gaussian 16 at Thu Dec 21 09:54:09 2023.

 ----------------------------------------------------------------------
 #P Geom=AllCheck Guess=TCheck SCRF=Check GenChk UB3LYP/6-311++G(d,p) F
 req
 ----------------------------------------------------------------------

 Structure from the checkpoint file:  "157.chk"
 --------
 Oxidized
 --------
 Charge = -1 Multiplicity = 1

                          Input orientation:
 ---------------------------------------------------------------------
 Center     Atomic      Atomic             Coordinates (Angstroms)
 Number     Number       Type             X           Y           Z
 ---------------------------------------------------------------------
      1          6           0       -1.709873    1.885108   -5.157473
      2          6           0       -1.597808    0.555620   -5.544689
      3          6           0       -1.244538   -0.421964   -4.608291
      4          6           0       -1.470487    2.258164   -3.829607
      5          6           0       -1.116870    1.277073   -2.892869
      6          6           0       -1.005852   -0.060817   -3.288899
      7          6           0       -1.598517    3.703317   -3.448558
      8          6           0       -0.859579    1.646273   -1.471334
      9          6           0       -1.335019    4.075652   -2.068321
     10          6           0       -0.986599    3.079392   -1.105049
     11          6           0       -1.443689    5.445971   -1.648487
     12          6           0       -1.168219    5.762408   -0.275453
     13          6           0       -0.854866    4.765518    0.618205
     14          6           0       -0.762758    3.425039    0.216256
     15          8           0       -1.923438    4.511163   -4.333923
     16          8           0       -0.559706    0.782564   -0.653626
     17          7           0       -1.795643    6.424299   -2.498912
     18          1           0       -1.981418    2.659981   -5.863428
     19          1           0       -1.784811    0.275636   -6.576123
     20          1           0       -1.157357   -1.459726   -4.912146
     21          1           0       -0.731156   -0.794307   -2.540576
     22         16           0       -1.103197    7.501278    0.315357
     23          1           0       -0.676471    5.048847    1.648973
     24          1           0       -2.011943    6.165042   -3.451628
     25          1           0       -2.008968    7.337875   -2.096944
     26          1           0       -0.508901    2.646195    0.923485
     27          8           0       -2.220261    8.172725   -0.417109
     28          8           0       -1.302155    7.407533    1.776256
     29          8           0        0.237108    7.966402   -0.106335
 ---------------------------------------------------------------------

 SCF Done:  E(UB3LYP) =  -1367.73278571     A.U. after    2 cycles

 Alpha  occ. eigenvalues --  -88.91619 -19.02810 -19.02247 -18.95979 -18.95807
 Alpha  occ. eigenvalues --  -18.95570 -14.22131 -10.18162 -10.17646 -10.14574
 Alpha  occ. eigenvalues --  -10.12103 -10.12022 -10.12004 -10.11852 -10.11510
 Alpha  occ. eigenvalues --  -10.11289 -10.10312 -10.09830 -10.09664 -10.08865
 Alpha  occ. eigenvalues --  -10.08622  -7.97457  -5.93713  -5.93704  -5.93681
 Alpha  occ. eigenvalues --   -0.97869  -0.96105  -0.95370  -0.84698  -0.84028
 Alpha  occ. eigenvalues --   -0.83378  -0.80396  -0.76477  -0.71781  -0.69332
 Alpha  occ. eigenvalues --   -0.67637  -0.65299  -0.59396  -0.57592  -0.55535
 Alpha  occ. eigenvalues --   -0.52484  -0.49364  -0.48806  -0.47181  -0.44786
 Alpha  occ. eigenvalues --   -0.42278  -0.41171  -0.40546  -0.39006  -0.37264
 Alpha  occ. eigenvalues --   -0.36965  -0.36745  -0.35780  -0.35446  -0.35303
 Alpha  occ. eigenvalues --   -0.33372  -0.32075  -0.31598  -0.31389  -0.31250
 Alpha  occ. eigenvalues --   -0.30389  -0.29576  -0.28499  -0.27908  -0.27715
 Alpha  occ. eigenvalues --   -0.22992  -0.20072  -0.19889  -0.19743  -0.19442
 Alpha  occ. eigenvalues --   -0.18818  -0.18600  -0.17614  -0.16749  -0.15757
 Alpha  occ. eigenvalues --   -0.15260  -0.12072  -0.11802
 Alpha virt. eigenvalues --   -0.01963   0.02297   0.05167   0.05543   0.07312
 Alpha virt. eigenvalues --    0.08024   0.08488   0.09811   0.10570   0.11717
 Alpha virt. eigenvalues --    0.11800   0.12150   0.12700   0.13306   0.13754

  Beta  occ. eigenvalues --  -88.91619 -19.02810 -19.02247 -18.95979 -18.95807
  Beta  occ. eigenvalues --  -18.95570 -14.22131 -10.18162 -10.17646 -10.14574
  Beta  occ. eigenvalues --  -10.12103 -10.12022 -10.12004 -10.11852 -10.11510
  Beta  occ. eigenvalues --  -10.11289 -10.10312 -10.09830 -10.09664 -10.08865
  Beta  occ. eigenvalues --  -10.08622  -7.97457  -5.93713  -5.93704  -5.93681
  Beta  occ. eigenvalues --   -0.97869  -0.96105  -0.95370  -0.84698  -0.84028
  Beta  occ. eigenvalues --   -0.83378  -0.80396  -0.76477  -0.71781  -0.69332
  Beta  occ. eigenvalues --   -0.67637  -0.65299  -0.59396  -0.57592  -0.55535
  Beta  occ. eigenvalues --   -0.52484  -0.49364  -0.48806  -0.47181  -0.44786
  Beta  occ. eigenvalues --   -0.42278  -0.41171  -0.40546  -0.39006  -0.37264
  Beta  occ. eigenvalues --   -0.36965  -0.36745  -0.35780  -0.35446  -0.35303
  Beta  occ. eigenvalues --   -0.33372  -0.32075  -0.31598  -0.31389  -0.31250
  Beta  occ. eigenvalues --   -0.30389  -0.29576  -0.28499  -0.27908  -0.27715
  Beta  occ. eigenvalues --   -0.22992  -0.20072  -0.19889  -0.19743  -0.19442
  Beta  occ. eigenvalues --   -0.18818  -0.18600  -0.17614  -0.16749  -0.15757
  Beta  occ. eigenvalues --   -0.15260  -0.12072  -0.11802
  Beta virt. eigenvalues --   -0.01963   0.02297   0.05167   0.05543   0.07312
  Beta virt. eigenvalues --    0.08024   0.08488   0.09811   0.10570   0.11717
  Beta virt. eigenvalues --    0.11800   0.12150   0.12700   0.13306   0.13754

 Mulliken charges and spin densities:
               1          2
     1  C    0.202545  -0.000000
     2  C   -0.456130   0.000000
     3  C   -0.367908  -0.000000
     4  C    0.215036   0.000000
     5  C    0.091721   0.000000
     6  C    0.133017  -0.000000
     7  C   -0.530367  -0.000000
     8  C   -0.648816  -0.000000
     9  C    0.202831  -0.000000
    10  C    0.568805  -0.000000
    11  C    0.411165   0.000000
    12  C   -1.063473  -0.000000
    13  C   -0.152131  -0.000000
    14  C   -0.016461  -0.000000
    15  O   -0.290048   0.000000
    16  O   -0.246077  -0.000000
    17  N   -0.401955  -0.000000
    18  H    0.175514   0.000000
    19  H    0.153015  -0.000000
    20  H    0.152117  -0.000000
    21  H    0.168074   0.000000
    22  S    0.523836   0.000000
    23  H    0.223776  -0.000000
    24  H    0.338076  -0.000000
    25  H    0.298126   0.000000
    26  H    0.161882   0.000000
    27  O   -0.351849   0.000000
    28  O   -0.244033  -0.000000
    29  O   -0.250287  -0.000000
 Sum of Mulliken charges =  -1.00000  -0.00000

 Dipole moment (field-independent basis, Debye):
    X=              4.8272    Y=            -31.7931    Z=              0.3361  Tot=             32.1592
 Quadrupole moment (field-independent basis, Debye-Ang):
   XX=           -144.8186   YY=           -375.4853   ZZ=           -142.9013
   XY=             33.3597   XZ=             -0.0127   YZ=             -2.3133

  Exact polarizability: 121.725 -10.983 321.348  25.562  67.062 266.887
 Approx polarizability: 206.885 -31.190 503.715  52.875  38.467 454.742

                      1                      2                      3
                      A                      A                      A
 Frequencies --     27.7137                46.8298                71.7270
 Red. masses --      8.3793                12.3414                 9.0810
 Frc consts  --      0.0038                 0.0159                 0.0275
 IR Inten    --      0.0886                 0.1176                 6.2792

                      4                      5                      6
                      A                      A                      A
 Frequencies --     93.5919               123.1038               137.9358
 Red. masses --      5.6966                 6.0086                 8.8868
 Frc consts  --      0.0294                 0.0536                 0.0996
 IR Inten    --      0.5445                 0.1761                 3.7364

                      7                      8                      9
                      A                      A                      A
 Frequencies --    173.8842               186.8906               220.1995
 Red. masses --      8.5945                 7.3320                12.2373
 Frc consts  --      0.1531                 0.1509                 0.3496
 IR Inten    --      0.7258                 1.2238                 2.5840

                     10                     11                     12
                      A                      A                      A
 Frequencies --    244.1654               253.0575               301.1132
 Red. masses --      7.4349                 5.8162                 9.4221
 Frc consts  --      0.2612                 0.2194                 0.5033
 IR Inten    --      3.2011                 0.3867                 2.2296

                     13                     14                     15
                      A                      A                      A
 Frequencies --    349.1509               356.5845               389.4629
 Red. masses --      6.2082                 6.3548                 7.3284
 Frc consts  --      0.4459                 0.4761                 0.6549
 IR Inten    --      0.2181                 1.8790                 6.9386

                     16                     17                     18
                      A                      A                      A
 Frequencies --    396.9102               429.9561               434.8442
 Red. masses --      7.9730                 3.3989                 9.9244
 Frc consts  --      0.7400                 0.3702                 1.1057
 IR Inten    --      3.3151                 0.3571                23.1160

                     19                     20                     21
                      A                      A                      A
 Frequencies --    447.5721               470.2445               483.8997
 Red. masses --      6.6890                 7.1380                 5.3100
 Frc consts  --      0.7895                 0.9300                 0.7326
 IR Inten    --      0.4743                13.8420                 5.1868

                     22                     23                     24
                      A                      A                      A
 Frequencies --    501.5935               520.8028               532.0417
 Red. masses --      8.5228                 7.7327                 6.3356
 Frc consts  --      1.2634                 1.2357                 1.0566
 IR Inten    --     32.3407                 8.0885                35.4363

                     25                     26                     27
                      A                      A                      A
 Frequencies --    578.5383               585.0150               588.8898
 Red. masses --      3.9143                 1.9133                 2.7725
 Frc consts  --      0.7719                 0.3858                 0.5665
 IR Inten    --      8.2937               106.7555                63.3971

                     28                     29                     30
                      A                      A                      A
 Frequencies --    612.3200               670.1093               676.3956
 Red. masses --      9.3182                 7.0095                 6.0995
 Frc consts  --      2.0585                 1.8545                 1.6442
 IR Inten    --    128.4629                 5.0885                84.9386

                     31                     32                     33
                      A                      A                      A
 Frequencies --    681.0934               707.3332               727.6525
 Red. masses --      4.5331                 7.3948                 2.3666
 Frc consts  --      1.2390                 2.1798                 0.7383
 IR Inten    --      6.1336                 7.9953                54.0928

                     34                     35                     36
                      A                      A                      A
 Frequencies --    751.2427               782.5681               794.1087
 Red. masses --      4.5348                 1.3825                 2.6490
 Frc consts  --      1.5079                 0.4988                 0.9842
 IR Inten    --     38.8204                 5.7381                 2.8037

                     37                     38                     39
                      A                      A                      A
 Frequencies --    801.9303               805.5530               869.2580
 Red. masses --      5.7035                 2.0991                 1.4655
 Frc consts  --      2.1611                 0.8025                 0.6524
 IR Inten    --      2.2736                 3.7535                17.0482

                     40                     41                     42
                      A                      A                      A
 Frequencies --    902.5166               906.4906               947.6472
 Red. masses --      7.3028                 1.3966                 7.1511
 Frc consts  --      3.5047                 0.6762                 3.7837
 IR Inten    --     31.2575                 0.0526                 5.6677

                     43                     44                     45
                      A                      A                      A
 Frequencies --    977.2707               985.2721               994.7382
 Red. masses --      9.0369                 1.3584                 1.3787
 Frc consts  --      5.0851                 0.7770                 0.8038
 IR Inten    --    326.7596                 6.0952                 2.1330

                     46                     47                     48
                      A                      A                      A
 Frequencies --   1004.2135              1034.3735              1056.9968
 Red. masses --      1.2973                 3.7742                 1.9227
 Frc consts  --      0.7708                 2.3792                 1.2656
 IR Inten    --      0.1007                35.8944                 0.9218

                     49                     50                     51
                      A                      A                      A
 Frequencies --   1108.1315              1111.0418              1141.0929
 Red. masses --      2.2848                 2.8738                 3.6182
 Frc consts  --      1.6530                 2.0901                 2.7758
 IR Inten    --     15.9687                14.3689               152.1090

                     52                     53                     54
                      A                      A                      A
 Frequencies --   1161.2451              1173.3294              1186.9442
 Red. masses --      2.4776                 1.4295                 1.9909
 Frc consts  --      1.9685                 1.1595                 1.6526
 IR Inten    --    113.8424                26.3216                37.0466

                     55                     56                     57
                      A                      A                      A
 Frequencies --   1198.2519              1214.5753              1269.7818
 Red. masses --      8.8739                 1.9421                 1.6710
 Frc consts  --      7.5069                 1.6880                 1.5874
 IR Inten    --    247.4752                21.3957                20.4899

                     58                     59                     60
                      A                      A                      A
 Frequencies --   1298.3118              1309.4330              1352.2049
 Red. masses --      4.5685                 1.8177                 7.6583
 Frc consts  --      4.5371                 1.8363                 8.2502
 IR Inten    --    625.9889                66.8613                 1.1746

                     61                     62                     63
                      A                      A                      A
 Frequencies --   1363.5318              1388.0203              1451.2197
 Red. masses --      4.5833                 7.2654                 3.4993
 Frc consts  --      5.0207                 8.2471                 4.3421
 IR Inten    --      0.4343                 2.4868               193.5357

                     64                     65                     66
                      A                      A                      A
 Frequencies --   1468.6508              1480.2576              1503.6067
 Red. masses --      3.1670                 2.5786                 2.6116
 Frc consts  --      4.0248                 3.3289                 3.4787
 IR Inten    --     23.1250                 8.4279                 2.2038

                     67                     68                     69
                      A                      A                      A
 Frequencies --   1555.6127              1593.8128              1608.3421
 Red. masses --      4.9036                 3.4344                 6.2328
 Frc consts  --      6.9915                 5.1402                 9.4992
 IR Inten    --    130.5785                23.3459                31.1522

                     70                     71                     72
                      A                      A                      A
 Frequencies --   1628.3042              1637.6496              1657.0320
 Red. masses --      6.3338                 1.8546                 7.9190
 Frc consts  --      9.8943                 2.9305                12.8110
 IR Inten    --    141.9366               223.9195               134.4468

                     73                     74                     75
                      A                      A                      A
 Frequencies --   1698.9680              3155.0987              3172.0767
 Red. masses --     11.3124                 1.0861                 1.0923
 Frc consts  --     19.2388                 6.3702                 6.4755
 IR Inten    --    231.6379                 7.1499                33.9071

                     76                     77                     78
                      A                      A                      A
 Frequencies --   3185.4259              3194.7635              3199.6901
 Red. masses --      1.0886                 1.0925                 1.0927
 Frc consts  --      6.5082                 6.5698                 6.5913
 IR Inten    --      0.4037                 8.6583                13.7187

                     79                     80                     81
                      A                      A                      A
 Frequencies --   3202.9468              3384.8461              3585.2563
 Red. masses --      1.0925                 1.0572                 1.0972
 Frc consts  --      6.6034                 7.1368                 8.3096
 IR Inten    --      1.5033               407.4252               136.8394

 - Thermochemistry -
 -------------------
 Temperature   298.150 Kelvin.  Pressure   1.00000 Atm.
 Atom     1 has atomic number  6 and mass  12.00000

 Molecular mass:   302.01232 amu.
 Principal axes and moments of inertia in atomic units:
                           1         2         3
     Eigenvalues --  2358.13849********************
           X            0.02074   0.25484   0.96676
           Y            0.84094  -0.52743   0.12099
           Z            0.54074   0.81048  -0.22525
 This molecule is an asymmetric top.
 Rotational symmetry number  1.
 Warning -- assumption of classical behavior for rotation
           may cause significant error
 Rotational temperatures (Kelvin)      0.03673     0.00777     0.00659
 Rotational constants (GHZ):           0.76532     0.16182     0.13724
 Zero-point vibrational energy     522016.0 (Joules/Mol)
                                  124.76482 (Kcal/Mol)
 Warning -- explicit consideration of  28 degrees of freedom as
           vibrations may cause significant error
 Vibrational temperatures:     39.87    67.38   103.20   134.66   177.12
          (Kelvin)            198.46   250.18   268.89   316.82   351.30
                              364.09   433.23   502.35   513.05   560.35
                              571.07   618.61   625.64   643.96   676.58
                              696.22   721.68   749.32   765.49   832.39
                              841.71   847.28   880.99   964.14   973.18
                              979.94  1017.69  1046.93  1080.87  1125.94
                             1142.55  1153.80  1159.01  1250.67  1298.52
                             1304.24  1363.45  1406.07  1417.59  1431.21
                             1444.84  1488.23  1520.78  1594.35  1598.54
                             1641.78  1670.77  1688.16  1707.75  1724.02
                             1747.50  1826.93  1867.98  1883.98  1945.52
                             1961.82  1997.05  2087.98  2113.06  2129.76
                             2163.35  2238.18  2293.14  2314.05  2342.77
                             2356.21  2384.10  2444.44  4539.48  4563.91
                             4583.12  4596.55  4603.64  4608.33  4870.04
                             5158.38

 Zero-point correction=                           0.198825 (Hartree/Particle)
 Thermal correction to Energy=                    0.215013
 Thermal correction to Enthalpy=                  0.215958
 Thermal correction to Gibbs Free Energy=         0.154400
 Sum of electronic and zero-point Energies=          -1367.533960
 Sum of electronic and thermal Energies=             -1367.517772
 Sum of electronic and thermal Enthalpies=           -1367.516828
 Sum of electronic and thermal Free Energies=        -1367.578386

                     E (Thermal)             CV                S
                      KCal/Mol        Cal/Mol-Kelvin    Cal/Mol-Kelvin
 Total                  134.923             64.246            129.560
 Electronic               0.000              0.000              0.000
 Translational            0.889              2.981             43.013
 Rotational               0.889              2.981             34.202
 Vibrational            133.146             58.285             52.345
 Vibration     1          0.593              1.984              5.987
 Vibration     2          0.595              1.979              4.947
 Vibration     3          0.598              1.967              4.105
 Vibration     4          0.603              1.954              3.584
 Vibration     5          0.610              1.930              3.051
 Vibration     6          0.614              1.915              2.832
 Vibration     7          0.627              1.875              2.393
 Vibration     8          0.632              1.858              2.258
 Vibration     9          0.647              1.810              1.957
 Vibration    10          0.659              1.772              1.772
 Vibration    11          0.664              1.758              1.709
 Vibration    12          0.693              1.672              1.411
 Vibration    13          0.726              1.577              1.170
 Vibration    14          0.732              1.562              1.137
 Vibration    15          0.757              1.493              1.002
 Vibration    16          0.763              1.477              0.974
 Vibration    17          0.791              1.405              0.859
 Vibration    18          0.795              1.394              0.843
 Vibration    19          0.807              1.366              0.803
 Vibration    20          0.827              1.316              0.737
 Vibration    21          0.840              1.286              0.700
 Vibration    22          0.857              1.246              0.654
 Vibration    23          0.876              1.204              0.608
 Vibration    24          0.887              1.179              0.583
 Vibration    25          0.935              1.078              0.488
 Vibration    26          0.942              1.064              0.476
 Vibration    27          0.946              1.055              0.469
 Vibration    28          0.972              1.006              0.429

 Optimization completed.
    -- Stationary point found.
 Normal termination of Gaussian 16 at Thu Dec 21 11:05:15 2023.
