 Gaussian 16, Revision A.03,
 Gaussian 16:  ES64L-G16RevA.03 25-Dec-2016

 ----------------------------------------------------------------
 #P UB3LYP/6-311++G(d,p) SCRF=(PCM,Solvent=n,n-DiMethylFormamide)
 ----------------------------------------------------------------

 ------------------
 Quinone PCM in DMF
 ------------------
 Symbolic Z-matrix:
 Charge =  0 Multiplicity = 1

                         Standard orientation:
 ---------------------------------------------------------------------
 Center     Atomic      Atomic             Coordinates (Angstroms)
 Number     Number       Type             X           Y           Z
 ---------------------------------------------------------------------
      1          8           0       -1.960922    2.853922   -0.214205
      2          6           0       -1.432373    1.750029   -0.127944
      3          6           0        0.009509    1.553252   -0.122248
      4          6           0        0.577462    0.327222   -0.012528
      5          8           0       -0.171527   -0.806704    0.076950
      6          6           0       -1.540871   -0.729563    0.064285
      7          6           0       -2.234533   -1.938127    0.157529
      8          6           0       -3.620424   -1.914627    0.153855
      9          6           0       -4.315041   -0.699171    0.058878
     10          6           0       -3.613958    0.490977   -0.031704
     11          6           0       -2.210861    0.493827   -0.029920
     12          6           0        2.024733    0.042387    0.004598
     13          6           0        2.948413    1.040139    0.351207
     14          6           0        4.312359    0.772092    0.346104
     15          6           0        4.778241   -0.495982   -0.001049
     16          6           0        3.868331   -1.496270   -0.337538
     17          6           0        2.501922   -1.233305   -0.331360
     18          1           0        0.630485    2.431455   -0.227454
     19          1           0       -1.679421   -2.865015    0.232575
     20          1           0       -4.168878   -2.846857    0.225891
     21          1           0       -5.398581   -0.695348    0.057337
     22          1           0       -4.118309    1.446946   -0.106332
     23          1           0        2.600505    2.022442    0.645700
     24          1           0        5.012543    1.552064    0.622233
     25          1           0        5.842238   -0.703248   -0.003396
     26          1           0        4.222306   -2.484881   -0.606682
     27          1           0        1.799256   -2.012593   -0.594819
 ---------------------------------------------------------------------

 SCF Done:  E(UB3LYP) =  -728.269758481     A.U. after   15 cycles

 The electronic state is 1-A.
 Alpha  occ. eigenvalues --  -19.21262 -19.10877 -10.28063 -10.26875 -10.26709
 Alpha  occ. eigenvalues --  -10.20907 -10.20179 -10.19861 -10.19586 -10.19543
 Alpha  occ. eigenvalues --  -10.19465 -10.19287 -10.19086 -10.19076 -10.18941
 Alpha  occ. eigenvalues --  -10.18905 -10.18903  -1.13429  -1.04383  -0.89013
 Alpha  occ. eigenvalues --   -0.87779  -0.83000  -0.79621  -0.77312  -0.76406
 Alpha  occ. eigenvalues --   -0.75792  -0.68310  -0.66408  -0.62634  -0.61961
 Alpha  occ. eigenvalues --   -0.60738  -0.56720  -0.55069  -0.54462  -0.50784
 Alpha  occ. eigenvalues --   -0.48935  -0.48766  -0.47874  -0.46635  -0.45629
 Alpha  occ. eigenvalues --   -0.45039  -0.44381  -0.43985  -0.43115  -0.41248
 Alpha  occ. eigenvalues --   -0.40526  -0.39577  -0.38487  -0.37572  -0.37157
 Alpha  occ. eigenvalues --   -0.36647  -0.35690  -0.31056  -0.27937  -0.27420
 Alpha  occ. eigenvalues --   -0.26928  -0.26194  -0.25193
 Alpha virt. eigenvalues --   -0.08525  -0.05017  -0.02992  -0.02451  -0.00808
 Alpha virt. eigenvalues --    0.00016   0.00393   0.00852   0.01428   0.01875
 Alpha virt. eigenvalues --    0.03275   0.03389   0.03537   0.03762   0.04758

  Beta  occ. eigenvalues --  -19.21262 -19.10877 -10.28063 -10.26875 -10.26709
  Beta  occ. eigenvalues --  -10.20907 -10.20179 -10.19861 -10.19586 -10.19543
  Beta  occ. eigenvalues --  -10.19465 -10.19287 -10.19086 -10.19076 -10.18941
  Beta  occ. eigenvalues --  -10.18905 -10.18903  -1.13429  -1.04383  -0.89013
  Beta  occ. eigenvalues --   -0.87779  -0.83000  -0.79621  -0.77312  -0.76406
  Beta  occ. eigenvalues --   -0.75792  -0.68310  -0.66408  -0.62634  -0.61961
  Beta  occ. eigenvalues --   -0.60738  -0.56720  -0.55069  -0.54462  -0.50784
  Beta  occ. eigenvalues --   -0.48935  -0.48766  -0.47874  -0.46635  -0.45629
  Beta  occ. eigenvalues --   -0.45039  -0.44381  -0.43985  -0.43115  -0.41248
  Beta  occ. eigenvalues --   -0.40526  -0.39577  -0.38487  -0.37572  -0.37157
  Beta  occ. eigenvalues --   -0.36647  -0.35690  -0.31056  -0.27937  -0.27420
  Beta  occ. eigenvalues --   -0.26928  -0.26194  -0.25193
  Beta virt. eigenvalues --   -0.08525  -0.05017  -0.02992  -0.02451  -0.00808
  Beta virt. eigenvalues --    0.00016   0.00393   0.00852   0.01428   0.01875
  Beta virt. eigenvalues --    0.03275   0.03389   0.03537   0.03762   0.04758

 Mulliken charges and spin densities:
               1          2
     1  O   -0.394941   0.000000
     2  C   -1.422397  -0.000000
     3  C    0.014653   0.000000
     4  C    0.249535   0.000000
     5  O    0.037538   0.000000
     6  C   -1.397465  -0.000000
     7  C   -0.383791  -0.000000
     8  C   -0.467063  -0.000000
     9  C   -0.231536  -0.000000
    10  C    0.166430  -0.000000
    11  C    2.362853   0.000000
    12  C    1.127282   0.000000
    13  C   -0.499774  -0.000000
    14  C   -0.412656   0.000000
    15  C   -0.257819  -0.000000
    16  C   -0.311303  -0.000000
    17  C   -0.136190  -0.000000
    18  H    0.213157  -0.000000
    19  H    0.206728   0.000000
    20  H    0.209020   0.000000
    21  H    0.201699   0.000000
    22  H    0.186382   0.000000
    23  H    0.152573  -0.000000
    24  H    0.212239   0.000000
    25  H    0.186796   0.000000
    26  H    0.210729  -0.000000
    27  H    0.177320  -0.000000
 Sum of Mulliken charges =  -0.00000  -0.00000

 Dipole moment (field-independent basis, Debye):
    X=              2.9576    Y=             -5.4512    Z=              0.3825  Tot=              6.2136
 Quadrupole moment (field-independent basis, Debye-Ang):
   XX=            -76.4598   YY=           -102.3193   ZZ=           -102.9750
   XY=             14.8298   XZ=             -0.6449   YZ=              3.1145

 Normal termination of Gaussian 16 at Sat Jan 13 19:19:17 2024.
