 Gaussian 16, Revision A.03,
 Gaussian 16:  ES64L-G16RevA.03 25-Dec-2016

 ----------------------------------------------------------------
 #P UB3LYP/6-311++G(d,p) SCRF=(PCM,Solvent=n,n-DiMethylFormamide)
 ----------------------------------------------------------------

 ------------------
 Quinone PCM in DMF
 ------------------
 Symbolic Z-matrix:
 Charge =  0 Multiplicity = 1

                         Standard orientation:
 ---------------------------------------------------------------------
 Center     Atomic      Atomic             Coordinates (Angstroms)
 Number     Number       Type             X           Y           Z
 ---------------------------------------------------------------------
      1          6           0       12.511994    1.181752    1.323257
      2          6           0       13.057475    2.314779    0.727557
      3          6           0       12.433540    2.888815   -0.381610
      4          6           0       11.339973    0.624137    0.806650
      5          6           0       10.710065    1.199198   -0.309252
      6          6           0       11.264528    2.333761   -0.899066
      7          6           0       10.749678   -0.576289    1.426053
      8          6           0        9.495269   -1.128618    0.838491
      9          6           0        8.874613   -0.597569   -0.243683
     10          6           0        9.449251    0.608644   -0.875574
     11          8           0       11.226247   -1.152018    2.397914
     12          8           0        8.914754    1.123576   -1.847884
     13          8           0        9.028726   -2.215496    1.474733
     14          6           0        7.604558   -1.169992   -0.807319
     15          6           0        6.338582   -0.512313   -0.217075
     16          6           0        5.047705   -1.095453   -0.800901
     17          6           0        3.778572   -0.458353   -0.223879
     18          6           0        2.484010   -1.040368   -0.802919
     19          6           0        1.213893   -0.403251   -0.227949
     20          6           0       -0.080256   -0.985456   -0.807403
     21          6           0       -1.350316   -0.347901   -0.232262
     22          6           0       -2.640849   -0.937659   -0.816275
     23          6           0       -3.898333   -0.292792   -0.232286
     24         16           0       -5.408698   -1.039341   -0.965391
     25          6           0       -6.698069   -0.077725   -0.077572
     26          6           0       -8.095538   -0.517588   -0.515343
     27          6           0       -9.208711    0.257510    0.201800
     28          6           0      -10.616922   -0.172265   -0.225480
     29          6           0      -11.734693    0.596580    0.487964
     30          6           0      -13.143333    0.167287    0.062231
     31          6           0      -14.261864    0.934860    0.776025
     32          6           0      -15.670515    0.505560    0.351020
     33          6           0      -16.790046    1.272108    1.064446
     34          6           0      -18.193416    0.835960    0.633347
     35          1           0       12.977908    0.718198    2.184200
     36          1           0       13.966495    2.750819    1.125360
     37          1           0       12.860061    3.771623   -0.844268
     38          1           0       10.768020    2.766249   -1.758795
     39          1           0        9.659482   -2.396800    2.197362
     40          1           0        7.577944   -2.244780   -0.610344
     41          1           0        7.608315   -1.021559   -1.889993
     42          1           0        6.374128    0.565229   -0.409320
     43          1           0        6.340805   -0.642039    0.871136
     44          1           0        5.024492   -2.177766   -0.619529
     45          1           0        5.054508   -0.967697   -1.890770
     46          1           0        3.802362    0.623640   -0.406530
     47          1           0        3.774967   -0.582811    0.866741
     48          1           0        2.460417   -2.122472   -0.620080
     49          1           0        2.488423   -0.917010   -1.893593
     50          1           0        1.237616    0.678842   -0.410995
     51          1           0        1.209465   -0.526458    0.862872
     52          1           0       -0.104404   -2.067309   -0.624164
     53          1           0       -0.076228   -0.862234   -1.897959
     54          1           0       -1.328149    0.733584   -0.417569
     55          1           0       -1.355098   -0.471327    0.858258
     56          1           0       -2.667015   -2.016915   -0.628360
     57          1           0       -2.640925   -0.810576   -1.904681
     58          1           0       -3.905586    0.781930   -0.437012
     59          1           0       -3.930485   -0.434372    0.852119
     60          1           0       -6.549190    0.985118   -0.290170
     61          1           0       -6.569692   -0.232229    0.997910
     62          1           0       -8.214386   -1.589780   -0.322793
     63          1           0       -8.195106   -0.382349   -1.598204
     64          1           0       -9.084914    1.331287    0.011655
     65          1           0       -9.103555    0.124896    1.286163
     66          1           0      -10.739297   -1.246603   -0.037363
     67          1           0      -10.721540   -0.040110   -1.309984
     68          1           0      -11.611900    1.671105    0.299768
     69          1           0      -11.629020    0.464724    1.572653
     70          1           0      -13.265696   -0.907369    0.249706
     71          1           0      -13.249181    0.299502   -1.022349
     72          1           0      -14.139638    2.009594    0.588367
     73          1           0      -14.155733    0.802756    1.860689
     74          1           0      -15.793728   -0.569231    0.538403
     75          1           0      -15.777876    0.637794   -0.733624
     76          1           0      -16.667900    2.345910    0.876763
     77          1           0      -16.683560    1.139741    2.148114
     78          1           0      -18.342935    0.989212   -0.440192
     79          1           0      -18.967682    1.400974    1.159939
     80          1           0      -18.358681   -0.226131    0.840659
 ---------------------------------------------------------------------

 SCF Done:  E(UB3LYP) =  -1795.23649833     A.U. after   16 cycles

 The electronic state is 1-A.
 Alpha  occ. eigenvalues --  -88.83732 -19.18058 -19.15128 -19.13077 -10.29514
 Alpha  occ. eigenvalues --  -10.28225 -10.26890 -10.21282 -10.21154 -10.20548
 Alpha  occ. eigenvalues --  -10.20346 -10.20176 -10.20007 -10.19965 -10.19566
 Alpha  occ. eigenvalues --  -10.19563 -10.17802 -10.17094 -10.17091 -10.16904
 Alpha  occ. eigenvalues --  -10.16502 -10.16494 -10.16295 -10.16175 -10.16167
 Alpha  occ. eigenvalues --  -10.16160 -10.16111 -10.16061 -10.16031 -10.16026
 Alpha  occ. eigenvalues --  -10.15967 -10.15942 -10.15920 -10.15526  -7.92362
 Alpha  occ. eigenvalues --   -5.88746  -5.88404  -5.87735  -1.11057  -1.06906
 Alpha  occ. eigenvalues --   -1.06429  -0.89477  -0.84602  -0.82536  -0.81551
 Alpha  occ. eigenvalues --   -0.81023  -0.80329  -0.79391  -0.78378  -0.78200
 Alpha  occ. eigenvalues --   -0.77199  -0.75612  -0.74084  -0.72230  -0.70559
 Alpha  occ. eigenvalues --   -0.69169  -0.67572  -0.65978  -0.65162  -0.63541
 Alpha  occ. eigenvalues --   -0.61918  -0.60768  -0.60167  -0.58781  -0.58371
 Alpha  occ. eigenvalues --   -0.58206  -0.57668  -0.57606  -0.57451  -0.57417
 Alpha  occ. eigenvalues --   -0.57138  -0.54455  -0.52083  -0.49990  -0.49011
 Alpha  occ. eigenvalues --   -0.48792  -0.48197  -0.47800  -0.47541  -0.47314
 Alpha  occ. eigenvalues --   -0.46914  -0.46017  -0.45526  -0.45461  -0.44721
 Alpha  occ. eigenvalues --   -0.44296  -0.43785  -0.43348  -0.43035  -0.42928
 Alpha  occ. eigenvalues --   -0.42675  -0.42373  -0.42277  -0.41486  -0.41222
 Alpha  occ. eigenvalues --   -0.40758  -0.40201  -0.39927  -0.39553  -0.39326
 Alpha  occ. eigenvalues --   -0.38898  -0.38245  -0.37939  -0.37570  -0.37258
 Alpha  occ. eigenvalues --   -0.36861  -0.36763  -0.36342  -0.35941  -0.35067
 Alpha  occ. eigenvalues --   -0.34546  -0.34497  -0.34156  -0.33630  -0.33413
 Alpha  occ. eigenvalues --   -0.33124  -0.33044  -0.32839  -0.32547  -0.32392
 Alpha  occ. eigenvalues --   -0.32372  -0.32181  -0.32133  -0.31998  -0.31394
 Alpha  occ. eigenvalues --   -0.30744  -0.30377  -0.29632  -0.29154  -0.28228
 Alpha  occ. eigenvalues --   -0.28041  -0.25837  -0.22772
 Alpha virt. eigenvalues --   -0.12734  -0.05815  -0.02775  -0.00968  -0.00629
 Alpha virt. eigenvalues --   -0.00352  -0.00000   0.00206   0.00372   0.00609
 Alpha virt. eigenvalues --    0.00688   0.00853   0.01071   0.01154   0.01355

  Beta  occ. eigenvalues --  -88.83732 -19.18058 -19.15128 -19.13077 -10.29514
  Beta  occ. eigenvalues --  -10.28225 -10.26890 -10.21282 -10.21154 -10.20548
  Beta  occ. eigenvalues --  -10.20346 -10.20176 -10.20007 -10.19965 -10.19566
  Beta  occ. eigenvalues --  -10.19563 -10.17802 -10.17094 -10.17091 -10.16904
  Beta  occ. eigenvalues --  -10.16502 -10.16494 -10.16295 -10.16175 -10.16167
  Beta  occ. eigenvalues --  -10.16160 -10.16111 -10.16061 -10.16031 -10.16026
  Beta  occ. eigenvalues --  -10.15967 -10.15942 -10.15920 -10.15526  -7.92362
  Beta  occ. eigenvalues --   -5.88746  -5.88404  -5.87735  -1.11057  -1.06906
  Beta  occ. eigenvalues --   -1.06429  -0.89477  -0.84602  -0.82536  -0.81551
  Beta  occ. eigenvalues --   -0.81023  -0.80329  -0.79391  -0.78378  -0.78200
  Beta  occ. eigenvalues --   -0.77199  -0.75612  -0.74084  -0.72230  -0.70559
  Beta  occ. eigenvalues --   -0.69169  -0.67572  -0.65978  -0.65162  -0.63541
  Beta  occ. eigenvalues --   -0.61918  -0.60768  -0.60167  -0.58781  -0.58371
  Beta  occ. eigenvalues --   -0.58206  -0.57668  -0.57606  -0.57451  -0.57417
  Beta  occ. eigenvalues --   -0.57138  -0.54455  -0.52083  -0.49990  -0.49011
  Beta  occ. eigenvalues --   -0.48792  -0.48197  -0.47800  -0.47541  -0.47314
  Beta  occ. eigenvalues --   -0.46914  -0.46017  -0.45526  -0.45461  -0.44721
  Beta  occ. eigenvalues --   -0.44296  -0.43785  -0.43348  -0.43035  -0.42928
  Beta  occ. eigenvalues --   -0.42675  -0.42373  -0.42277  -0.41486  -0.41222
  Beta  occ. eigenvalues --   -0.40758  -0.40201  -0.39927  -0.39553  -0.39326
  Beta  occ. eigenvalues --   -0.38898  -0.38245  -0.37939  -0.37570  -0.37258
  Beta  occ. eigenvalues --   -0.36861  -0.36763  -0.36342  -0.35941  -0.35067
  Beta  occ. eigenvalues --   -0.34546  -0.34497  -0.34156  -0.33630  -0.33413
  Beta  occ. eigenvalues --   -0.33124  -0.33044  -0.32839  -0.32547  -0.32392
  Beta  occ. eigenvalues --   -0.32372  -0.32181  -0.32133  -0.31998  -0.31394
  Beta  occ. eigenvalues --   -0.30744  -0.30377  -0.29632  -0.29154  -0.28228
  Beta  occ. eigenvalues --   -0.28041  -0.25837  -0.22772
  Beta virt. eigenvalues --   -0.12734  -0.05815  -0.02775  -0.00968  -0.00629
  Beta virt. eigenvalues --   -0.00352  -0.00000   0.00206   0.00372   0.00609
  Beta virt. eigenvalues --    0.00688   0.00853   0.01071   0.01154   0.01355

 Mulliken charges and spin densities:
               1          2
     1  C    0.170373   0.000000
     2  C   -0.383468  -0.000000
     3  C   -0.396807  -0.000000
     4  C    0.512536   0.000000
     5  C   -0.129610   0.000000
     6  C    0.169345  -0.000000
     7  C   -0.809033  -0.000000
     8  C   -0.463343  -0.000000
     9  C    1.875769  -0.000000
    10  C   -0.786873  -0.000000
    11  O   -0.313193  -0.000000
    12  O   -0.275672  -0.000000
    13  O   -0.222222   0.000000
    14  C   -0.341278   0.000000
    15  C   -0.728916  -0.000000
    16  C   -0.268981   0.000000
    17  C   -0.089822   0.000000
    18  C   -0.099442  -0.000000
    19  C   -0.264676   0.000000
    20  C   -0.107763   0.000000
    21  C   -0.326554  -0.000000
    22  C   -0.214755  -0.000000
    23  C   -0.792497  -0.000000
    24  S   -0.414129   0.000000
    25  C   -0.715045   0.000000
    26  C   -0.000691   0.000000
    27  C    0.029228   0.000000
    28  C    0.023195  -0.000000
    29  C    0.031671  -0.000000
    30  C    0.003120  -0.000000
    31  C   -0.262332  -0.000000
    32  C   -0.453223   0.000000
    33  C   -0.273342   0.000000
    34  C   -0.689434   0.000000
    35  H    0.191299   0.000000
    36  H    0.211439  -0.000000
    37  H    0.207803  -0.000000
    38  H    0.190954   0.000000
    39  H    0.307605  -0.000000
    40  H    0.234696  -0.000000
    41  H    0.220273  -0.000000
    42  H    0.179546   0.000000
    43  H    0.177464  -0.000000
    44  H    0.117768   0.000000
    45  H    0.121457   0.000000
    46  H    0.128016   0.000000
    47  H    0.127624   0.000000
    48  H    0.132659  -0.000000
    49  H    0.133000  -0.000000
    50  H    0.130840  -0.000000
    51  H    0.131028  -0.000000
    52  H    0.132568  -0.000000
    53  H    0.132571  -0.000000
    54  H    0.139785  -0.000000
    55  H    0.139257  -0.000000
    56  H    0.128121  -0.000000
    57  H    0.128518  -0.000000
    58  H    0.182786   0.000000
    59  H    0.182559   0.000000
    60  H    0.192079   0.000000
    61  H    0.191931  -0.000000
    62  H    0.132957  -0.000000
    63  H    0.133385  -0.000000
    64  H    0.137838  -0.000000
    65  H    0.137725  -0.000000
    66  H    0.132612   0.000000
    67  H    0.132798  -0.000000
    68  H    0.128757  -0.000000
    69  H    0.128624   0.000000
    70  H    0.128204   0.000000
    71  H    0.128284   0.000000
    72  H    0.127725  -0.000000
    73  H    0.127671  -0.000000
    74  H    0.124032  -0.000000
    75  H    0.124097  -0.000000
    76  H    0.131057  -0.000000
    77  H    0.131044  -0.000000
    78  H    0.139926   0.000000
    79  H    0.147557  -0.000000
    80  H    0.139925  -0.000000
 Sum of Mulliken charges =  -0.00000  -0.00000

 Dipole moment (field-independent basis, Debye):
    X=              2.5959    Y=              3.1370    Z=              2.6750  Tot=              4.8719
 Quadrupole moment (field-independent basis, Debye-Ang):
   XX=           -164.9844   YY=           -218.7051   ZZ=           -230.7354
   XY=             14.8809   XZ=             -1.9918   YZ=             -0.8622

 Normal termination of Gaussian 16 at Thu Jan 25 06:08:22 2024.
