 Q-Chem 5.4, Q-Chem, Inc., Pleasanton, CA (2021)
 Q-Chem 5.4.0 for Intel X86 EM64T Linux

User input:
--------------------------------------------------------------
$molecule
-1 2
N                 -4.5507310000      1.0213580000     -0.4183320000
C                 -3.2855840000      0.4494510000     -0.3604640000
C                 -3.1441430000     -0.9628090000     -0.3821520000
Cl                -4.6063350000     -1.9606060000     -0.5774540000
C                 -1.9284700000     -1.5757760000     -0.2752370000
C                 -0.7527600000     -0.8203920000     -0.1283050000
C                  0.4976180000     -1.5799830000     -0.0183410000
O                  0.5098610000     -2.8337690000     -0.0517790000
C                  1.7166650000     -0.7946560000      0.1292440000
C                  2.9613680000     -1.4523630000      0.2362640000
C                  4.1331460000     -0.7375150000      0.3787940000
C                  4.0915880000      0.6735760000      0.4197890000
C                  2.8838770000      1.3338690000      0.3175340000
C                  1.6707030000      0.6234870000      0.1693100000
C                  0.4216190000      1.3892170000      0.0670410000
O                  0.4470000000      2.6413640000      0.1256440000
C                 -0.8161730000      0.6131350000     -0.0981110000
C                 -2.1093380000      1.1936050000     -0.2290760000
Br                -2.3783140000      3.1154410000     -0.2734010000
H                 -4.5568360000      1.9972740000     -0.6794580000
H                 -5.2530910000      0.4563950000     -0.8715410000
H                 -1.8302680000     -2.6532790000     -0.2987610000
H                  2.9571770000     -2.5356570000      0.2021800000
H                  5.0838380000     -1.2559030000      0.4597880000
H                  5.0118570000      1.2392460000      0.5321260000
H                  2.8257250000      2.4152900000      0.3472860000
$end

$rem
BASIS  =  6-311++G(d,p)
GUI  =  2
JOB_TYPE  =  SP
METHOD  =  B3LYP
SCF_CONVERGENCE  = 8
SOLVENT_METHOD = sm12
$end

$smx
solvent dimethylformamide
charges CM5
$end

--------------------------------------------------------------

             Standard Nuclear Orientation (Angstroms)
    I     Atom           X                Y                Z
 ----------------------------------------------------------------
    1      N      -4.5507310000     1.0213580000    -0.4183320000
    2      C      -3.2855840000     0.4494510000    -0.3604640000
    3      C      -3.1441430000    -0.9628090000    -0.3821520000
    4      Cl     -4.6063350000    -1.9606060000    -0.5774540000
    5      C      -1.9284700000    -1.5757760000    -0.2752370000
    6      C      -0.7527600000    -0.8203920000    -0.1283050000
    7      C       0.4976180000    -1.5799830000    -0.0183410000
    8      O       0.5098610000    -2.8337690000    -0.0517790000
    9      C       1.7166650000    -0.7946560000     0.1292440000
   10      C       2.9613680000    -1.4523630000     0.2362640000
   11      C       4.1331460000    -0.7375150000     0.3787940000
   12      C       4.0915880000     0.6735760000     0.4197890000
   13      C       2.8838770000     1.3338690000     0.3175340000
   14      C       1.6707030000     0.6234870000     0.1693100000
   15      C       0.4216190000     1.3892170000     0.0670410000
   16      O       0.4470000000     2.6413640000     0.1256440000
   17      C      -0.8161730000     0.6131350000    -0.0981110000
   18      C      -2.1093380000     1.1936050000    -0.2290760000
   19      Br     -2.3783140000     3.1154410000    -0.2734010000
   20      H      -4.5568360000     1.9972740000    -0.6794580000
   21      H      -5.2530910000     0.4563950000    -0.8715410000
   22      H      -1.8302680000    -2.6532790000    -0.2987610000
   23      H       2.9571770000    -2.5356570000     0.2021800000
   24      H       5.0838380000    -1.2559030000     0.4597880000
   25      H       5.0118570000     1.2392460000     0.5321260000
   26      H       2.8257250000     2.4152900000     0.3472860000
 ----------------------------------------------------------------

   19   -3777.5499499187      8.61e-09  Convergence criterion met
 Total energy in the final basis set =    -3777.6339792908

                    Orbital Energies (a.u.)
 --------------------------------------------------------------

 Alpha MOs
 -- Occupied --
********-101.5653 -62.4794 -56.3000 -56.2962 -56.2958 -19.0786 -19.0754
-14.3329 -10.2433 -10.2419 -10.2350 -10.2300 -10.2298 -10.1978 -10.1883
-10.1842 -10.1826 -10.1820 -10.1804 -10.1795 -10.1788 -10.1778  -9.4791
 -8.6881  -7.2435  -7.2341  -7.2337  -6.5194  -6.5069  -6.5060  -2.6303
 -2.6269  -2.6262  -2.6163  -2.6162  -1.0073  -1.0049  -0.9497  -0.8814
 -0.8654  -0.8526  -0.8043  -0.7830  -0.7582  -0.7401  -0.7367  -0.6721
 -0.6454  -0.6262  -0.6030  -0.5703  -0.5509  -0.5367  -0.5224  -0.4992
 -0.4740  -0.4691  -0.4637  -0.4397  -0.4359  -0.4302  -0.4266  -0.4193
 -0.4103  -0.4074  -0.4036  -0.3856  -0.3671  -0.3624  -0.3614  -0.3518
 -0.3446  -0.3292  -0.3180  -0.3056  -0.2947  -0.2696  -0.2640  -0.2540
 -0.2470  -0.2308  -0.2284  -0.1444

 Beta MOs
 -- Occupied --
********-101.5653 -62.4794 -56.3000 -56.2962 -56.2958 -19.0733 -19.0688
-14.3327 -10.2430 -10.2415 -10.2345 -10.2286 -10.2283 -10.1969 -10.1884
-10.1836 -10.1821 -10.1815 -10.1796 -10.1795 -10.1780 -10.1778  -9.4790
 -8.6881  -7.2435  -7.2340  -7.2337  -6.5194  -6.5069  -6.5060  -2.6303
 -2.6269  -2.6262  -2.6162  -2.6161  -0.9978  -0.9939  -0.9490  -0.8807
 -0.8631  -0.8514  -0.8030  -0.7800  -0.7562  -0.7385  -0.7349  -0.6654
 -0.6437  -0.6239  -0.6022  -0.5682  -0.5492  -0.5355  -0.5211  -0.4976
 -0.4714  -0.4682  -0.4629  -0.4371  -0.4314  -0.4292  -0.4250  -0.4163
 -0.4042  -0.4025  -0.3992  -0.3668  -0.3657  -0.3608  -0.3563  -0.3457
 -0.3430  -0.3290  -0.3085  -0.3032  -0.2936  -0.2586  -0.2510  -0.2478
 -0.2420  -0.2255  -0.2216

          Ground-State Mulliken Net Atomic Charges

     Atom                 Charge (a.u.)    Spin (a.u.)
  --------------------------------------------------------
      1 N                     0.027754       0.009242
      2 C                     0.456395       0.026050
      3 C                     1.946508       0.026821
      4 Cl                    0.926617       0.002153
      5 C                     0.097053       0.016159
      6 C                    -1.363546       0.032093
      7 C                    -2.148116       0.066596
      8 O                    -0.306034       0.199424
      9 C                    -1.266934       0.030712
     10 C                    -0.193389       0.019705
     11 C                     0.796225       0.041246
     12 C                     0.820832       0.033794
     13 C                    -0.043801       0.028918
     14 C                    -1.030701       0.036511
     15 C                    -2.465853       0.065414
     16 O                    -0.158362       0.244413
     17 C                     0.077476       0.076908
     18 C                     0.854360       0.050100
     19 Br                    0.155787       0.004182
     20 H                     0.284816      -0.000367
     21 H                     0.309960       0.000205
     22 H                     0.219678      -0.001119
     23 H                     0.153840      -0.001045
     24 H                     0.350401      -0.003169
     25 H                     0.347000      -0.002782
     26 H                     0.152033      -0.002165
  --------------------------------------------------------
  Sum of atomic charges =    -1.000000

                    Cartesian Multipole Moments
 -----------------------------------------------------------------
    Charge (ESU x 10^10)
                -4.8032
    Dipole Moment (Debye)
         X      -1.1607      Y       0.5243      Z      -0.8334
       Tot       1.5221
    Quadrupole Moments (Debye-Ang)
        XX    -138.2016     XY      -1.8133     YY    -165.0603
        XZ       4.4202     YZ      -2.1827     ZZ    -135.7392

 Total job time:  807.48s(wall), 6178.33s(cpu)
        *  Thank you very much for using Q-Chem.  Have a nice day.  *
