 Gaussian 16, Revision A.03,
 Gaussian 16:  ES64L-G16RevA.03 25-Dec-2016

 ----------------------------------------------------------------------
 #P UB3LYP/6-311++G(d,p) nosym opt freq SCRF=(PCM,Solvent=n,n-DiMethylF
 ormamide)
 ----------------------------------------------------------------------

 --------
 Oxidized
 --------
 Symbolic Z-matrix:
 Charge =  0 Multiplicity = 1

 SCF Done:  E(UB3LYP) =  -921.290438381     A.U. after   15 cycles
 SCF Done:  E(UB3LYP) =  -921.290519946     A.U. after   11 cycles
 SCF Done:  E(UB3LYP) =  -921.290519869     A.U. after   11 cycles
 SCF Done:  E(UB3LYP) =  -921.290538255     A.U. after   11 cycles
 SCF Done:  E(UB3LYP) =  -921.290572976     A.U. after   11 cycles
 SCF Done:  E(UB3LYP) =  -921.290577946     A.U. after   11 cycles
 SCF Done:  E(UB3LYP) =  -921.290587328     A.U. after   12 cycles
 SCF Done:  E(UB3LYP) =  -921.290599874     A.U. after   13 cycles
 SCF Done:  E(UB3LYP) =  -921.290615386     A.U. after   10 cycles
 SCF Done:  E(UB3LYP) =  -921.290648584     A.U. after   13 cycles
 SCF Done:  E(UB3LYP) =  -921.290650169     A.U. after   12 cycles
 SCF Done:  E(UB3LYP) =  -921.290652327     A.U. after   10 cycles
 SCF Done:  E(UB3LYP) =  -921.290652971     A.U. after   11 cycles
 SCF Done:  E(UB3LYP) =  -921.290652653     A.U. after   11 cycles
 SCF Done:  E(UB3LYP) =  -921.290652946     A.U. after   11 cycles
 SCF Done:  E(UB3LYP) =  -921.290652984     A.U. after    9 cycles
 SCF Done:  E(UB3LYP) =  -921.290652986     A.U. after    8 cycles
 SCF Done:  E(UB3LYP) =  -921.290652980     A.U. after    8 cycles
 SCF Done:  E(UB3LYP) =  -921.290652979     A.U. after    7 cycles
 Optimization completed.
    -- Stationary point found.
 Normal termination of Gaussian 16 at Sat Feb 10 19:57:58 2024.

 ----------------------------------------------------------------------
 #P Geom=AllCheck Guess=TCheck SCRF=Check GenChk UB3LYP/6-311++G(d,p) F
 req
 ----------------------------------------------------------------------

 Structure from the checkpoint file:  "134.chk"
 --------
 Oxidized
 --------
 Charge =  0 Multiplicity = 1

                          Input orientation:
 ---------------------------------------------------------------------
 Center     Atomic      Atomic             Coordinates (Angstroms)
 Number     Number       Type             X           Y           Z
 ---------------------------------------------------------------------
      1          6           0        7.127641   -1.791624   -0.545513
      2          6           0        7.641291   -0.776339   -1.424215
      3          6           0        6.804698    0.311308   -1.834290
      4          6           0        5.501355    0.341879   -1.398183
      5          6           0        4.971385   -0.646173   -0.543196
      6          6           0        5.766888   -1.699210   -0.083053
      7          6           0        5.186391   -2.651260    0.908417
      8          6           0        3.708189   -2.621262    1.137700
      9          6           0        2.909810   -1.588260    0.626081
     10          6           0        3.528901   -0.509016   -0.179364
     11          6           0        3.118778   -3.631396    1.903760
     12          6           0        1.748340   -3.618230    2.144782
     13          6           0        0.955232   -2.586223    1.636304
     14          6           0        1.535661   -1.571168    0.883490
     15          8           0        5.867070   -3.441748    1.553329
     16          8           0        2.872996    0.454523   -0.558028
     17          1           0        4.842884    1.143196   -1.707993
     18          1           0        3.743526   -4.421029    2.300643
     19          1           0        0.937623   -0.760507    0.486992
     20          6           0        7.320276    1.402026   -2.736423
     21          1           0       -0.111080   -2.575650    1.828877
     22          6           0        8.981174   -0.867483   -1.885147
     23          6           0        8.003576   -2.864323   -0.210912
     24          6           0        9.289992   -2.917512   -0.689356
     25          6           0        9.813325   -1.908369   -1.534938
     26          6           0       11.232941   -1.995234   -2.030537
     27          1           0        1.296590   -4.410166    2.730629
     28          1           0        8.173717    1.920444   -2.289461
     29          1           0        6.540195    2.138688   -2.929607
     30          1           0        7.654185    1.001595   -3.698347
     31          1           0        9.360170   -0.094333   -2.541301
     32          1           0        7.645939   -3.649292    0.434099
     33          1           0        9.921263   -3.756458   -0.414092
     34          1           0       11.481813   -1.154848   -2.680377
     35          1           0       11.394972   -2.921331   -2.590704
     36          1           0       11.937968   -2.000754   -1.193410
 ---------------------------------------------------------------------

 SCF Done:  E(UB3LYP) =  -921.290652979     A.U. after    1 cycles

 Alpha  occ. eigenvalues --  -19.13141 -19.12924 -10.28444 -10.28270 -10.21352
 Alpha  occ. eigenvalues --  -10.20965 -10.20832 -10.20830 -10.20773 -10.20692
 Alpha  occ. eigenvalues --  -10.20339 -10.19861 -10.19830 -10.19788 -10.19768
 Alpha  occ. eigenvalues --  -10.19712 -10.18774 -10.18456 -10.18281 -10.18275
 Alpha  occ. eigenvalues --  -10.17483 -10.17146  -1.06469  -1.06273  -0.90038
 Alpha  occ. eigenvalues --   -0.88801  -0.85350  -0.82149  -0.79498  -0.77814
 Alpha  occ. eigenvalues --   -0.77657  -0.75144  -0.72387  -0.70479  -0.68051
 Alpha  occ. eigenvalues --   -0.65031  -0.63957  -0.62586  -0.60579  -0.58599
 Alpha  occ. eigenvalues --   -0.55793  -0.54581  -0.52245  -0.50894  -0.50003
 Alpha  occ. eigenvalues --   -0.48206  -0.47213  -0.46144  -0.45951  -0.45710
 Alpha  occ. eigenvalues --   -0.45228  -0.45177  -0.43778  -0.43533  -0.42989
 Alpha  occ. eigenvalues --   -0.42601  -0.41877  -0.41353  -0.40113  -0.39227
 Alpha  occ. eigenvalues --   -0.39075  -0.38755  -0.37777  -0.37433  -0.36969
 Alpha  occ. eigenvalues --   -0.35645  -0.35049  -0.33471  -0.29661  -0.28697
 Alpha  occ. eigenvalues --   -0.28322  -0.27919  -0.27101  -0.26134  -0.23772
 Alpha virt. eigenvalues --   -0.12221  -0.07106  -0.05311  -0.03214  -0.00922
 Alpha virt. eigenvalues --   -0.00775  -0.00211   0.00492   0.01207   0.01558
 Alpha virt. eigenvalues --    0.01843   0.02636   0.02849   0.03204   0.03400

  Beta  occ. eigenvalues --  -19.13141 -19.12924 -10.28444 -10.28270 -10.21352
  Beta  occ. eigenvalues --  -10.20965 -10.20832 -10.20830 -10.20773 -10.20692
  Beta  occ. eigenvalues --  -10.20339 -10.19861 -10.19830 -10.19788 -10.19768
  Beta  occ. eigenvalues --  -10.19712 -10.18774 -10.18456 -10.18281 -10.18275
  Beta  occ. eigenvalues --  -10.17483 -10.17146  -1.06469  -1.06273  -0.90038
  Beta  occ. eigenvalues --   -0.88801  -0.85350  -0.82149  -0.79498  -0.77814
  Beta  occ. eigenvalues --   -0.77657  -0.75144  -0.72387  -0.70479  -0.68051
  Beta  occ. eigenvalues --   -0.65031  -0.63957  -0.62586  -0.60579  -0.58599
  Beta  occ. eigenvalues --   -0.55793  -0.54581  -0.52245  -0.50894  -0.50003
  Beta  occ. eigenvalues --   -0.48206  -0.47213  -0.46144  -0.45951  -0.45710
  Beta  occ. eigenvalues --   -0.45228  -0.45177  -0.43778  -0.43533  -0.42989
  Beta  occ. eigenvalues --   -0.42601  -0.41877  -0.41353  -0.40113  -0.39227
  Beta  occ. eigenvalues --   -0.39075  -0.38755  -0.37777  -0.37433  -0.36969
  Beta  occ. eigenvalues --   -0.35645  -0.35049  -0.33471  -0.29661  -0.28697
  Beta  occ. eigenvalues --   -0.28322  -0.27919  -0.27101  -0.26134  -0.23772
  Beta virt. eigenvalues --   -0.12221  -0.07106  -0.05311  -0.03214  -0.00922
  Beta virt. eigenvalues --   -0.00775  -0.00211   0.00492   0.01207   0.01558
  Beta virt. eigenvalues --    0.01843   0.02636   0.02849   0.03204   0.03400

 Mulliken charges and spin densities:
               1          2
     1  C    0.663760  -0.000000
     2  C    0.279427   0.000000
     3  C    0.655024   0.000000
     4  C   -0.101808  -0.000000
     5  C    0.489658  -0.000000
     6  C    0.612093  -0.000000
     7  C   -1.292439  -0.000000
     8  C    0.056351   0.000000
     9  C    0.272112   0.000000
    10  C   -0.647934  -0.000000
    11  C    0.121868   0.000000
    12  C   -0.459294  -0.000000
    13  C   -0.369086   0.000000
    14  C    0.161826   0.000000
    15  O   -0.259713   0.000000
    16  O   -0.264635   0.000000
    17  H    0.131102  -0.000000
    18  H    0.189909   0.000000
    19  H    0.187802   0.000000
    20  C   -0.385089   0.000000
    21  H    0.207086  -0.000000
    22  C   -0.781953  -0.000000
    23  C   -0.571911   0.000000
    24  C   -0.546942   0.000000
    25  C    0.233832  -0.000000
    26  C   -0.293447   0.000000
    27  H    0.207960   0.000000
    28  H    0.179106  -0.000000
    29  H    0.189061   0.000000
    30  H    0.175824  -0.000000
    31  H    0.084490   0.000000
    32  H    0.146951  -0.000000
    33  H    0.212929   0.000000
    34  H    0.175923   0.000000
    35  H    0.168302   0.000000
    36  H    0.171854   0.000000
 Sum of Mulliken charges =  -0.00000  -0.00000

 Dipole moment (field-independent basis, Debye):
    X=              1.8998    Y=             -0.6237    Z=             -1.7324  Tot=              2.6456
 Quadrupole moment (field-independent basis, Debye-Ang):
   XX=            -78.8881   YY=           -124.0161   ZZ=           -123.4611
   XY=              6.8319   XZ=            -28.4830   YZ=             -2.7906

  Exact polarizability: 507.857 -33.884 340.837 -85.693-105.418 264.894
 Approx polarizability: 552.674 -67.642 424.962 -65.376-132.114 309.175

                      1                      2                      3
                      A                      A                      A
 Frequencies --     25.4228                40.0405                71.5554
 Red. masses --      6.8264                 5.2464                 4.3330
 Frc consts  --      0.0026                 0.0050                 0.0131
 IR Inten    --      8.1421                 0.8754                 1.6692

                      4                      5                      6
                      A                      A                      A
 Frequencies --     90.6026               107.4841               134.6751
 Red. masses --      1.0521                 4.5729                 4.3886
 Frc consts  --      0.0051                 0.0311                 0.0469
 IR Inten    --      1.0459                 0.4353                 0.2267

                      7                      8                      9
                      A                      A                      A
 Frequencies --    154.5799               161.7125               178.7463
 Red. masses --      4.8258                 2.5853                 1.8069
 Frc consts  --      0.0679                 0.0398                 0.0340
 IR Inten    --      1.3567                 3.9118                 2.0994

                     10                     11                     12
                      A                      A                      A
 Frequencies --    200.1939               238.0437               261.8954
 Red. masses --      2.0834                 3.2444                 4.2469
 Frc consts  --      0.0492                 0.1083                 0.1716
 IR Inten    --      1.1084                 0.7998                 1.8690

                     13                     14                     15
                      A                      A                      A
 Frequencies --    278.8420               286.7268               346.0103
 Red. masses --      5.6472                 4.8744                 8.0054
 Frc consts  --      0.2587                 0.2361                 0.5647
 IR Inten    --      0.1714                 0.5021                 0.7024

                     16                     17                     18
                      A                      A                      A
 Frequencies --    351.6446               372.4363               399.7084
 Red. masses --      4.6733                 3.3925                10.3126
 Frc consts  --      0.3405                 0.2773                 0.9707
 IR Inten    --      0.8006                 1.5175                45.5491

                     19                     20                     21
                      A                      A                      A
 Frequencies --    421.2676               430.2219               453.6095
 Red. masses --      3.4354                 3.4744                 4.5443
 Frc consts  --      0.3592                 0.3789                 0.5509
 IR Inten    --      6.7126                 2.2381                 1.5041

                     22                     23                     24
                      A                      A                      A
 Frequencies --    476.4667               489.5988               513.5224
 Red. masses --      9.5902                 5.7607                 4.5832
 Frc consts  --      1.2828                 0.8136                 0.7121
 IR Inten    --      4.5756                 2.7866                 6.9680

                     25                     26                     27
                      A                      A                      A
 Frequencies --    521.4260               540.7317               582.6018
 Red. masses --      3.2570                 5.3753                 5.0192
 Frc consts  --      0.5217                 0.9260                 1.0038
 IR Inten    --     14.9860                 4.1630                 2.4986

                     28                     29                     30
                      A                      A                      A
 Frequencies --    594.5855               638.7847               649.5448
 Red. masses --      5.9044                 3.6617                 6.1716
 Frc consts  --      1.2299                 0.8803                 1.5341
 IR Inten    --     18.5630                 4.5323                28.0722

                     31                     32                     33
                      A                      A                      A
 Frequencies --    689.0661               703.4935               720.6194
 Red. masses --      6.2801                 4.7734                 5.4970
 Frc consts  --      1.7569                 1.3919                 1.6819
 IR Inten    --      0.1702                 0.3489                 0.8270

                     34                     35                     36
                      A                      A                      A
 Frequencies --    731.3361               740.8138               771.7186
 Red. masses --      2.1544                 6.7163                 4.1685
 Frc consts  --      0.6789                 2.1717                 1.4627
 IR Inten    --    102.5479                 1.9913                 1.1071

                     37                     38                     39
                      A                      A                      A
 Frequencies --    807.7641               811.2381               821.9549
 Red. masses --      1.8759                 4.2479                 5.8574
 Frc consts  --      0.7211                 1.6471                 2.3316
 IR Inten    --     34.8187                 4.9109                38.5249

                     40                     41                     42
                      A                      A                      A
 Frequencies --    840.2242               878.0635               891.9588
 Red. masses --      1.6235                 6.1987                 1.3705
 Frc consts  --      0.6753                 2.8158                 0.6424
 IR Inten    --     43.7151                 1.1760                 2.6255

                     43                     44                     45
                      A                      A                      A
 Frequencies --    912.7481               926.9324               930.6565
 Red. masses --      1.4085                 1.3991                 3.9635
 Frc consts  --      0.6914                 0.7082                 2.0226
 IR Inten    --      1.2292                20.2379                30.1103

                     46                     47                     48
                      A                      A                      A
 Frequencies --    999.2693              1002.8425              1005.0469
 Red. masses --      1.4402                 2.1926                 1.5082
 Frc consts  --      0.8473                 1.2992                 0.8976
 IR Inten    --     12.8641               155.8876                53.2571

                     49                     50                     51
                      A                      A                      A
 Frequencies --   1015.5556              1021.3130              1028.0395
 Red. masses --      2.0381                 1.3294                 1.9472
 Frc consts  --      1.2385                 0.8170                 1.2125
 IR Inten    --     24.7863                 0.0489                15.1960

                     52                     53                     54
                      A                      A                      A
 Frequencies --   1058.4991              1060.1349              1060.4782
 Red. masses --      1.5650                 1.5652                 1.9362
 Frc consts  --      1.0331                 1.0364                 1.2829
 IR Inten    --      4.7492                 7.4941                 7.5163

                     55                     56                     57
                      A                      A                      A
 Frequencies --   1087.2229              1088.8567              1119.2823
 Red. masses --      2.4522                 5.0056                 1.9611
 Frc consts  --      1.7078                 3.4966                 1.4476
 IR Inten    --      8.5882                22.7852                15.9943

                     58                     59                     60
                      A                      A                      A
 Frequencies --   1176.7731              1186.6502              1200.1524
 Red. masses --      1.2082                 1.4614                 1.9680
 Frc consts  --      0.9858                 1.2124                 1.6701
 IR Inten    --     27.5530                25.7380                27.1811

                     61                     62                     63
                      A                      A                      A
 Frequencies --   1222.3469              1232.6750              1253.4450
 Red. masses --      2.3379                 1.9229                 2.3020
 Frc consts  --      2.0581                 1.7215                 2.1309
 IR Inten    --     10.0207                52.1546               139.2601

                     64                     65                     66
                      A                      A                      A
 Frequencies --   1290.0471              1295.8412              1311.0044
 Red. masses --      2.9092                 2.0798                 2.5309
 Frc consts  --      2.8525                 2.0576                 2.5629
 IR Inten    --    633.6811               343.8539               237.9718

                     67                     68                     69
                      A                      A                      A
 Frequencies --   1356.3668              1364.2673              1378.1987
 Red. masses --      5.3339                 4.0283                 4.4088
 Frc consts  --      5.7817                 4.4175                 4.9339
 IR Inten    --      7.7021               137.6045                13.7720

                     70                     71                     72
                      A                      A                      A
 Frequencies --   1395.0848              1409.1555              1411.4860
 Red. masses --      6.2479                 1.2488                 1.3263
 Frc consts  --      7.1645                 1.4610                 1.5569
 IR Inten    --    109.3226                 4.2111                 0.3840

                     73                     74                     75
                      A                      A                      A
 Frequencies --   1426.5443              1465.4377              1472.7272
 Red. masses --      3.0147                 1.5535                 1.0426
 Frc consts  --      3.6146                 1.9656                 1.3324
 IR Inten    --     77.0770                85.2871                12.4924

                     76                     77                     78
                      A                      A                      A
 Frequencies --   1475.9640              1480.0337              1487.6861
 Red. masses --      1.0429                 2.3144                 1.1982
 Frc consts  --      1.3386                 2.9869                 1.5624
 IR Inten    --     12.6936                 1.4044                19.3650

                     79                     80                     81
                      A                      A                      A
 Frequencies --   1499.6825              1506.8250              1531.1100
 Red. masses --      1.8071                 2.5015                 2.9855
 Frc consts  --      2.3946                 3.3464                 4.1236
 IR Inten    --     47.1974                 9.4019                76.6514

                     82                     83                     84
                      A                      A                      A
 Frequencies --   1586.5448              1610.9815              1616.5502
 Red. masses --      7.8102                 6.1360                 7.3446
 Frc consts  --     11.5829                 9.3824                11.3083
 IR Inten    --     27.6405               492.6098                22.9402

                     85                     86                     87
                      A                      A                      A
 Frequencies --   1623.0820              1655.2330              1682.1695
 Red. masses --      5.8696                 5.6123                11.7399
 Frc consts  --      9.1104                 9.0596                19.5729
 IR Inten    --     38.4290                83.3244                70.8974

                     88                     89                     90
                      A                      A                      A
 Frequencies --   1691.6971              3024.5477              3028.1902
 Red. masses --     11.6916                 1.0374                 1.0383
 Frc consts  --     19.7138                 5.5913                 5.6098
 IR Inten    --    710.4201                43.6687                32.9263

                     91                     92                     93
                      A                      A                      A
 Frequencies --   3072.7261              3076.8396              3109.1838
 Red. masses --      1.1001                 1.0999                 1.1009
 Frc consts  --      6.1195                 6.1352                 6.2704
 IR Inten    --     20.7562                17.7406                29.1832

                     94                     95                     96
                      A                      A                      A
 Frequencies --   3116.9915              3163.6951              3178.0645
 Red. masses --      1.1001                 1.0905                 1.0874
 Frc consts  --      6.2970                 6.4306                 6.4711
 IR Inten    --     28.3733                27.3348                 3.7299

                     97                     98                     99
                      A                      A                      A
 Frequencies --   3190.6408              3193.4299              3198.3783
 Red. masses --      1.0916                 1.0897                 1.0900
 Frc consts  --      6.5473                 6.5473                 6.5696
 IR Inten    --     12.9657                14.5836                12.0034

                    100                    101                    102
                      A                      A                      A
 Frequencies --   3203.6420              3207.1937              3254.7546
 Red. masses --      1.0930                 1.0947                 1.0913
 Frc consts  --      6.6092                 6.6344                 6.8112
 IR Inten    --      6.1284                18.5064                14.5865

 - Thermochemistry -
 -------------------
 Temperature   298.150 Kelvin.  Pressure   1.00000 Atm.
 Atom     1 has atomic number  6 and mass  12.00000

 Molecular mass:   286.09938 amu.
 Principal axes and moments of inertia in atomic units:
                           1         2         3
     Eigenvalues --  2909.036239763.60764**********
           X            0.91266  -0.31269   0.26322
           Y            0.13173   0.83467   0.53477
           Z           -0.38692  -0.45338   0.80296
 This molecule is an asymmetric top.
 Rotational symmetry number  1.
 Warning -- assumption of classical behavior for rotation
           may cause significant error
 Rotational temperatures (Kelvin)      0.02977     0.00887     0.00688
 Rotational constants (GHZ):           0.62039     0.18484     0.14332
 Zero-point vibrational energy     736013.5 (Joules/Mol)
                                  175.91145 (Kcal/Mol)
 Warning -- explicit consideration of  28 degrees of freedom as
           vibrations may cause significant error
 Vibrational temperatures:     36.58    57.61   102.95   130.36   154.65
          (Kelvin)            193.77   222.41   232.67   257.18   288.03
                              342.49   376.81   401.19   412.54   497.83
                              505.94   535.85   575.09   606.11   618.99
                              652.64   685.53   704.42   738.84   750.22
                              777.99   838.23   855.48   919.07   934.55
                              991.41  1012.17  1036.81  1052.23  1065.87
                             1110.33  1162.19  1167.19  1182.61  1208.90
                             1263.34  1283.33  1313.24  1333.65  1339.01
                             1437.73  1442.87  1446.04  1461.16  1469.44
                             1479.12  1522.94  1525.30  1525.79  1564.27
                             1566.62  1610.40  1693.11  1707.33  1726.75
                             1758.68  1773.54  1803.43  1856.09  1864.43
                             1886.24  1951.51  1962.88  1982.92  2007.22
                             2027.46  2030.81  2052.48  2108.44  2118.93
                             2123.58  2129.44  2140.45  2157.71  2167.99
                             2202.93  2282.68  2317.84  2325.86  2335.25
                             2381.51  2420.27  2433.97  4351.65  4356.89
                             4420.97  4426.89  4473.42  4484.66  4551.85
                             4572.53  4590.62  4594.63  4601.75  4609.33
                             4614.44  4682.87

 Zero-point correction=                           0.280333 (Hartree/Particle)
 Thermal correction to Energy=                    0.297808
 Thermal correction to Enthalpy=                  0.298752
 Thermal correction to Gibbs Free Energy=         0.234597
 Sum of electronic and zero-point Energies=           -921.010320
 Sum of electronic and thermal Energies=              -920.992845
 Sum of electronic and thermal Enthalpies=            -920.991900
 Sum of electronic and thermal Free Energies=         -921.056056

                     E (Thermal)             CV                S
                      KCal/Mol        Cal/Mol-Kelvin    Cal/Mol-Kelvin
 Total                  186.878             69.560            135.027
 Electronic               0.000              0.000              0.000
 Translational            0.889              2.981             42.851
 Rotational               0.889              2.981             34.236
 Vibrational            185.100             63.598             57.941
 Vibration     1          0.593              1.985              6.158
 Vibration     2          0.594              1.981              5.257
 Vibration     3          0.598              1.968              4.110
 Vibration     4          0.602              1.956              3.647
 Vibration     5          0.606              1.943              3.314
 Vibration     6          0.613              1.919              2.878
 Vibration     7          0.620              1.898              2.615
 Vibration     8          0.622              1.889              2.530
 Vibration     9          0.629              1.868              2.341
 Vibration    10          0.638              1.840              2.131
 Vibration    11          0.656              1.782              1.817
 Vibration    12          0.669              1.743              1.649
 Vibration    13          0.679              1.713              1.541
 Vibration    14          0.684              1.698              1.493
 Vibration    15          0.724              1.583              1.184
 Vibration    16          0.728              1.572              1.159
 Vibration    17          0.744              1.529              1.070
 Vibration    18          0.766              1.471              0.964
 Vibration    19          0.784              1.424              0.888
 Vibration    20          0.791              1.404              0.858
 Vibration    21          0.812              1.353              0.785
 Vibration    22          0.833              1.302              0.720
 Vibration    23          0.845              1.273              0.685
 Vibration    24          0.869              1.220              0.625
 Vibration    25          0.876              1.203              0.607
 Vibration    26          0.896              1.160              0.564
 Vibration    27          0.939              1.069              0.481
 Vibration    28          0.952              1.043              0.459

 Optimization completed.
    -- Stationary point found.
 Normal termination of Gaussian 16 at Sat Feb 10 22:18:44 2024.
