 Q-Chem 5.4, Q-Chem, Inc., Pleasanton, CA (2021)
 Q-Chem 5.4.0 for Intel X86 EM64T Linux

User input:
--------------------------------------------------------------
$molecule
0 1
C                 -0.9243570000      3.9444170000     -0.6070760000
C                 -2.0604330000      3.1581490000     -0.1315310000
C                 -1.9096050000      1.8716350000      0.2549790000
C                  0.4711450000      3.2360180000     -0.6406880000
C                  0.5482870000      1.8207520000     -0.1841060000
C                 -0.5906390000      1.2214570000      0.2220900000
O                  1.4426490000      3.8465720000     -1.0288450000
O                 -1.0125940000      5.0995470000     -0.9701580000
C                  1.9103450000      1.1786870000     -0.2150470000
C                  1.9931740000     -0.2735940000      0.2578620000
C                  3.4192970000     -0.8340030000      0.1911080000
C                  3.5165430000     -2.2872850000      0.6629820000
C                 -3.0753130000      1.0372650000      0.7186760000
C                 -3.4998520000     -0.0319890000     -0.3094350000
C                 -4.6653590000     -0.8982820000      0.1814720000
C                 -5.1005940000     -1.9507800000     -0.8419540000
H                 -3.0235860000      3.6565390000     -0.1065260000
H                 -0.5576150000      0.1914360000      0.5618200000
H                  2.5894590000      1.8033130000      0.3784170000
H                  2.2962620000      1.2602150000     -1.2387760000
H                  1.3340370000     -0.9031300000     -0.3529630000
H                  1.6279290000     -0.3513410000      1.2895700000
H                  4.0818010000     -0.2066740000      0.7989770000
H                  3.7888580000     -0.7578240000     -0.8382550000
H                  3.1872280000     -2.3898430000      1.7018460000
H                  4.5437760000     -2.6565470000      0.6034700000
H                  2.8918200000     -2.9456480000      0.0510180000
H                 -3.9258370000      1.6892340000      0.9356340000
H                 -2.8064440000      0.5390300000      1.6589770000
H                 -2.6457740000     -0.6760530000     -0.5501620000
H                 -3.7792350000      0.4676520000     -1.2440610000
H                 -5.5165700000     -0.2519960000      0.4263870000
H                 -4.3788500000     -1.3929480000      1.1173880000
H                 -5.4253540000     -1.4835840000     -1.7766720000
H                 -5.9328540000     -2.5506160000     -0.4643210000
H                 -4.2802480000     -2.6346090000     -1.0811850000
$end
$rem
MAX_SCF_CYCLES=200
BASIS  =  6-311++G(d,p)
GUI  =  2
JOB_TYPE  =  SP
METHOD  =  B3LYP
SOLVENT_METHOD = PCM
$end
$pcm
theory = CPCM
$end
$solvent
dielectric 37.219
opticaldielectric 1.43
$end

--------------------------------------------------------------

             Standard Nuclear Orientation (Angstroms)
    I     Atom           X                Y                Z
 ----------------------------------------------------------------
    1      C      -0.9243570000     3.9444170000    -0.6070760000
    2      C      -2.0604330000     3.1581490000    -0.1315310000
    3      C      -1.9096050000     1.8716350000     0.2549790000
    4      C       0.4711450000     3.2360180000    -0.6406880000
    5      C       0.5482870000     1.8207520000    -0.1841060000
    6      C      -0.5906390000     1.2214570000     0.2220900000
    7      O       1.4426490000     3.8465720000    -1.0288450000
    8      O      -1.0125940000     5.0995470000    -0.9701580000
    9      C       1.9103450000     1.1786870000    -0.2150470000
   10      C       1.9931740000    -0.2735940000     0.2578620000
   11      C       3.4192970000    -0.8340030000     0.1911080000
   12      C       3.5165430000    -2.2872850000     0.6629820000
   13      C      -3.0753130000     1.0372650000     0.7186760000
   14      C      -3.4998520000    -0.0319890000    -0.3094350000
   15      C      -4.6653590000    -0.8982820000     0.1814720000
   16      C      -5.1005940000    -1.9507800000    -0.8419540000
   17      H      -3.0235860000     3.6565390000    -0.1065260000
   18      H      -0.5576150000     0.1914360000     0.5618200000
   19      H       2.5894590000     1.8033130000     0.3784170000
   20      H       2.2962620000     1.2602150000    -1.2387760000
   21      H       1.3340370000    -0.9031300000    -0.3529630000
   22      H       1.6279290000    -0.3513410000     1.2895700000
   23      H       4.0818010000    -0.2066740000     0.7989770000
   24      H       3.7888580000    -0.7578240000    -0.8382550000
   25      H       3.1872280000    -2.3898430000     1.7018460000
   26      H       4.5437760000    -2.6565470000     0.6034700000
   27      H       2.8918200000    -2.9456480000     0.0510180000
   28      H      -3.9258370000     1.6892340000     0.9356340000
   29      H      -2.8064440000     0.5390300000     1.6589770000
   30      H      -2.6457740000    -0.6760530000    -0.5501620000
   31      H      -3.7792350000     0.4676520000    -1.2440610000
   32      H      -5.5165700000    -0.2519960000     0.4263870000
   33      H      -4.3788500000    -1.3929480000     1.1173880000
   34      H      -5.4253540000    -1.4835840000    -1.7766720000
   35      H      -5.9328540000    -2.5506160000    -0.4643210000
   36      H      -4.2802480000    -2.6346090000    -1.0811850000
 ----------------------------------------------------------------

    9    -696.1744454816      2.97e-06  Convergence criterion met
 Total energy in the final basis set =     -696.1744454816

                    Orbital Energies (a.u.)
 --------------------------------------------------------------

 Alpha MOs
 -- Occupied --
-19.1482 -19.1411 -10.2832 -10.2795 -10.2209 -10.2062 -10.2038 -10.1861
-10.1797 -10.1773 -10.1702 -10.1656 -10.1643 -10.1626 -10.1547 -10.1538
 -1.0882  -1.0615  -0.8721  -0.8198  -0.7970  -0.7756  -0.7446  -0.7215
 -0.6975  -0.6545  -0.6401  -0.5973  -0.5872  -0.5806  -0.5715  -0.5235
 -0.5049  -0.4787  -0.4757  -0.4693  -0.4568  -0.4519  -0.4444  -0.4339
 -0.4254  -0.4223  -0.4160  -0.4130  -0.3970  -0.3946  -0.3836  -0.3716
 -0.3600  -0.3535  -0.3498  -0.3384  -0.3351  -0.3320  -0.3280  -0.3259
 -0.3196  -0.3146  -0.2629  -0.2551

          Ground-State Mulliken Net Atomic Charges

     Atom                 Charge (a.u.)
  ----------------------------------------
      1 C                    -0.327161
      2 C                    -0.135083
      3 C                     0.586332
      4 C                    -0.160693
      5 C                     1.537776
      6 C                    -1.067061
      7 O                    -0.266546
      8 O                    -0.318467
      9 C                    -0.031818
     10 C                    -0.109121
     11 C                    -0.300406
     12 C                    -0.654917
     13 C                    -0.819058
     14 C                    -0.276338
     15 C                    -0.224063
     16 C                    -0.661504
     17 H                     0.236426
     18 H                     0.220599
     19 H                     0.210525
     20 H                     0.209452
     21 H                     0.123194
     22 H                     0.125834
     23 H                     0.144560
     24 H                     0.141440
     25 H                     0.146621
     26 H                     0.155946
     27 H                     0.146246
     28 H                     0.209679
     29 H                     0.182233
     30 H                     0.100736
     31 H                     0.150352
     32 H                     0.135159
     33 H                     0.142082
     34 H                     0.148514
     35 H                     0.150407
     36 H                     0.148123
  ----------------------------------------
  Sum of atomic charges =     0.000000

                    Cartesian Multipole Moments
 -----------------------------------------------------------------
    Charge (ESU x 10^10)
                 0.0000
    Dipole Moment (Debye)
         X      -2.9550      Y      -8.2339      Z       3.0656
       Tot       9.2697
    Quadrupole Moments (Debye-Ang)
        XX     -90.5671     XY      -5.2985     YY    -149.1340
        XZ      -0.2253     YZ      13.1922     ZZ    -101.2462

 Total job time:  81.83s(wall), 409.51s(cpu)
        *  Thank you very much for using Q-Chem.  Have a nice day.  *
