 Q-Chem 5.4, Q-Chem, Inc., Pleasanton, CA (2021)
 Q-Chem 5.4.0 for Intel X86 EM64T Linux

User input:
--------------------------------------------------------------
$molecule
-1 2
C                 -0.8683380000     -1.8018550000      3.5669150000
C                  0.2241100000     -2.4627700000      2.8805740000
C                  0.3236380000     -2.3495980000      1.5095010000
C                 -0.6098090000     -1.6042570000      0.6889970000
C                 -1.7034720000     -0.9689110000      1.3791910000
C                 -1.8444950000     -1.0579600000      2.7445920000
O                 -1.0334870000     -1.8155440000      4.8320470000
O                 -0.4670360000     -1.5272380000     -0.5661660000
N                 -2.8724470000     -0.5229130000      3.5144980000
C                 -3.6724930000      0.6737650000      3.2334370000
C                 -4.3784190000      1.0339150000      4.5532110000
C                 -4.7551250000      0.3752790000      2.1738240000
C                 -2.8025360000      1.8707290000      2.7887960000
H                 -2.4084480000     -0.4329080000      0.7564700000
H                 -2.6304700000     -0.6660670000      4.4932680000
H                 -3.6466110000      1.2675920000      5.3328570000
H                 -4.9916730000      0.1968220000      4.8997590000
H                 -5.0253370000      1.9057540000      4.4198670000
H                 -5.3684210000     -0.4695340000      2.4983550000
H                 -4.3190320000      0.1194660000      1.2082440000
H                 -5.4040880000      1.2467900000      2.0324670000
H                 -2.0821600000      2.1233470000      3.5722120000
H                 -3.4248640000      2.7509050000      2.5926990000
H                 -2.2409090000      1.6367860000      1.8834150000
C                  1.2479720000     -3.2615610000      3.7107220000
C                  0.5287180000     -4.3935370000      4.4836770000
C                  2.3349380000     -3.9117040000      2.8335120000
C                  1.9556880000     -2.3224720000      4.7176680000
H                  1.1270650000     -2.8234110000      0.9588810000
H                 -0.2371700000     -3.9794440000      5.1390510000
H                  1.2492780000     -4.9598240000      5.0878920000
H                  0.0524060000     -5.0889390000      3.7846120000
H                  1.9085040000     -4.6131630000      2.1105990000
H                  3.0307680000     -4.4681490000      3.4713830000
H                  2.9120990000     -3.1654740000      2.2799410000
H                  1.2259620000     -1.8560640000      5.3791640000
H                  2.5002050000     -1.5351350000      4.1858360000
H                  2.6783180000     -2.8863380000      5.3217830000
$end
$rem
MAX_SCF_CYCLES=200
BASIS  =  6-311++G(d,p)
GUI  =  2
JOB_TYPE  =  SP
METHOD  =  B3LYP
SOLVENT_METHOD = COSMO
$end
$solvent
dielectric 37.219
opticaldielectric 1.43
$end

--------------------------------------------------------------

             Standard Nuclear Orientation (Angstroms)
    I     Atom           X                Y                Z
 ----------------------------------------------------------------
    1      C      -0.4747424852    -0.6041468090     0.1377374040
    2      C      -1.7051421949     0.1545753678     0.0292364780
    3      C      -1.6437780016     1.5315271183    -0.0236143349
    4      C      -0.4095588709     2.2892734390     0.0274441908
    5      C       0.8057115644     1.5259865552     0.1564478996
    6      C       0.7920674719     0.1518133875     0.2164399447
    7      O      -0.4176630601    -1.8786012523     0.1607236942
    8      O      -0.4102954214     3.5534778557    -0.0320273386
    9      N       1.8896346133    -0.6878535256     0.3777523764
   10      C       3.2728501214    -0.4453486260    -0.0453473227
   11      C       3.9823174829    -1.8102131539     0.0150168600
   12      C       3.9872185133     0.5126441369     0.9323506452
   13      C       3.3585730646     0.0994368237    -1.4886470174
   14      H       1.7212778015     2.1006412966     0.2162995004
   15      H       1.5623053077    -1.6462315005     0.2709636498
   16      H       3.5160815808    -2.5201486702    -0.6753536352
   17      H       3.9243738323    -2.2270669227     1.0248565227
   18      H       5.0365512773    -1.7100314920    -0.2587375998
   19      H       3.9256174111     0.1175318365     1.9498244448
   20      H       3.5357817077     1.5046958811     0.9318221347
   21      H       5.0432501995     0.6206298547     0.6606847430
   22      H       2.9128551011    -0.6147451472    -2.1870578377
   23      H       4.4019105286     0.2643890234    -1.7796687900
   24      H       2.8195361560     1.0425241007    -1.5881184638
   25      C      -3.0437554329    -0.6065423467    -0.0364946587
   26      C      -3.2234403604    -1.4642388852     1.2395246937
   27      C      -4.2535870944     0.3421322915    -0.1365055145
   28      C      -3.0643046968    -1.5276861418    -1.2805855597
   29      H      -2.5387460757     2.1355047100    -0.1097497095
   30      H      -2.4001926507    -2.1709020431     1.3418130645
   31      H      -4.1690782763    -2.0198978264     1.1950778798
   32      H      -3.2479079850    -0.8245507844     2.1279780725
   33      H      -4.3196227962     1.0095909353     0.7275732640
   34      H      -5.1754629917    -0.2488776932    -0.1757721358
   35      H      -4.2134720081     0.9599937066    -1.0381999951
   36      H      -2.2371391882    -2.2361528287    -1.2420422004
   37      H      -2.9742157463    -0.9331999188    -2.1958525714
   38      H      -4.0100521151    -2.0830136088    -1.3282000660
 ----------------------------------------------------------------

   11    -751.6086178325      5.91e-06  Convergence criterion met
 Total energy in the final basis set =     -751.6086178325
    4    -751.6946220211      5.76e-06  Convergence criterion met
 Total energy in the final basis set =     -751.6946220211

                    Orbital Energies (a.u.)
 --------------------------------------------------------------

 Alpha MOs
 -- Occupied --
-19.0754 -19.0708 -14.3076 -10.2160 -10.2139 -10.2128 -10.2015 -10.1785
-10.1664 -10.1542 -10.1506 -10.1503 -10.1500 -10.1468 -10.1427 -10.1426
-10.1412  -1.0006  -0.9919  -0.9203  -0.8271  -0.8014  -0.7725  -0.7176
 -0.6840  -0.6830  -0.6791  -0.6723  -0.6652  -0.6088  -0.5738  -0.5529
 -0.5181  -0.4936  -0.4762  -0.4601  -0.4543  -0.4445  -0.4400  -0.4288
 -0.4222  -0.4156  -0.4138  -0.4061  -0.3909  -0.3868  -0.3800  -0.3792
 -0.3679  -0.3661  -0.3647  -0.3622  -0.3550  -0.3527  -0.3394  -0.3266
 -0.3245  -0.3226  -0.3155  -0.2979  -0.2645  -0.2430  -0.2342  -0.2070
 -0.1529

 Beta MOs
 -- Occupied --
-19.0688 -19.0652 -14.3068 -10.2132 -10.2128 -10.2127 -10.2005 -10.1785
-10.1659 -10.1542 -10.1506 -10.1500 -10.1481 -10.1468 -10.1427 -10.1426
-10.1413  -0.9894  -0.9820  -0.9177  -0.8237  -0.7999  -0.7700  -0.7158
 -0.6837  -0.6828  -0.6767  -0.6721  -0.6570  -0.6061  -0.5707  -0.5510
 -0.5167  -0.4910  -0.4750  -0.4563  -0.4537  -0.4435  -0.4386  -0.4275
 -0.4216  -0.4146  -0.4033  -0.4006  -0.3884  -0.3856  -0.3789  -0.3702
 -0.3654  -0.3636  -0.3621  -0.3559  -0.3539  -0.3456  -0.3337  -0.3251
 -0.3242  -0.3212  -0.3150  -0.2853  -0.2407  -0.2375  -0.2289  -0.1994

          Ground-State Mulliken Net Atomic Charges

     Atom                 Charge (a.u.)    Spin (a.u.)
  --------------------------------------------------------
      1 C                    -0.580166       0.211654
      2 C                     0.786505      -0.002444
      3 C                    -0.378239       0.172761
      4 C                    -0.495377       0.090023
      5 C                    -0.022528      -0.018592
      6 C                    -0.062213       0.088922
      7 O                    -0.480154       0.245733
      8 O                    -0.577427       0.184929
      9 N                     0.053728       0.044750
     10 C                    -0.073353       0.001757
     11 C                    -0.514086      -0.000033
     12 C                    -0.470109      -0.002299
     13 C                    -0.482043       0.003620
     14 H                     0.213052      -0.002584
     15 H                     0.318077      -0.001812
     16 H                     0.158558       0.000007
     17 H                     0.163206       0.000455
     18 H                     0.159994      -0.000079
     19 H                     0.162334       0.000560
     20 H                     0.128224       0.000043
     21 H                     0.160502       0.000174
     22 H                     0.164410       0.000363
     23 H                     0.162770       0.000359
     24 H                     0.154282      -0.001217
     25 C                     0.646959      -0.019078
     26 C                    -0.698541       0.006514
     27 C                    -0.481114       0.001376
     28 C                    -0.707490       0.007216
     29 H                     0.194126      -0.011939
     30 H                     0.174103      -0.001090
     31 H                     0.153343       0.000122
     32 H                     0.142138       0.000850
     33 H                     0.139121      -0.000682
     34 H                     0.178945       0.000188
     35 H                     0.138710      -0.000650
     36 H                     0.176786      -0.001133
     37 H                     0.140489       0.001030
     38 H                     0.152480       0.000227
  --------------------------------------------------------
  Sum of atomic charges =    -1.000000

                    Cartesian Multipole Moments
 -----------------------------------------------------------------
    Charge (ESU x 10^10)
                -4.8032
    Dipole Moment (Debye)
         X       3.5032      Y      -6.8219      Z      -1.0319
       Tot       7.7380
    Quadrupole Moments (Debye-Ang)
        XX    -103.1986     XY       0.6926     YY    -157.3528
        XZ      -1.3793     YZ       1.5284     ZZ    -112.8952

 Total job time:  131.84s(wall), 1007.92s(cpu)
        *  Thank you very much for using Q-Chem.  Have a nice day.  *
