 Gaussian 16, Revision A.03,
 Gaussian 16:  ES64L-G16RevA.03 25-Dec-2016

 ----------------------------------------------------------------------
 #P UB3LYP/6-311++G(d,p) nosym opt freq SCRF=(PCM,Solvent=n,n-DiMethylF
 ormamide)
 ----------------------------------------------------------------------

 --------
 Oxidized
 --------
 Symbolic Z-matrix:
 Charge =  0 Multiplicity = 1

 SCF Done:  E(UB3LYP) =  -1985.03106761     A.U. after   16 cycles
 SCF Done:  E(UB3LYP) =  -1985.03172577     A.U. after   14 cycles
 SCF Done:  E(UB3LYP) =  -1985.03099545     A.U. after   13 cycles
 SCF Done:  E(UB3LYP) =  -1985.03159675     A.U. after   13 cycles
 SCF Done:  E(UB3LYP) =  -1985.03191891     A.U. after   10 cycles
 SCF Done:  E(UB3LYP) =  -1985.03200729     A.U. after   13 cycles
 SCF Done:  E(UB3LYP) =  -1985.03204550     A.U. after   12 cycles
 SCF Done:  E(UB3LYP) =  -1985.03209765     A.U. after   12 cycles
 SCF Done:  E(UB3LYP) =  -1985.03213809     A.U. after   11 cycles
 SCF Done:  E(UB3LYP) =  -1985.03217144     A.U. after   12 cycles
 SCF Done:  E(UB3LYP) =  -1985.03244259     A.U. after    9 cycles
 SCF Done:  E(UB3LYP) =  -1985.03244432     A.U. after    9 cycles
 SCF Done:  E(UB3LYP) =  -1985.03244716     A.U. after    9 cycles
 SCF Done:  E(UB3LYP) =  -1985.03245030     A.U. after   11 cycles
 SCF Done:  E(UB3LYP) =  -1985.03245230     A.U. after    9 cycles
 SCF Done:  E(UB3LYP) =  -1985.03245329     A.U. after    9 cycles
 SCF Done:  E(UB3LYP) =  -1985.03245363     A.U. after   10 cycles
 SCF Done:  E(UB3LYP) =  -1985.03245376     A.U. after    9 cycles
 SCF Done:  E(UB3LYP) =  -1985.03245379     A.U. after    8 cycles
 Optimization completed.
    -- Stationary point found.
 Normal termination of Gaussian 16 at Sat Feb 10 18:04:36 2024.

 ----------------------------------------------------------------------
 #P Geom=AllCheck Guess=TCheck SCRF=Check GenChk UB3LYP/6-311++G(d,p) F
 req
 ----------------------------------------------------------------------

 Structure from the checkpoint file:  "101.chk"
 --------
 Oxidized
 --------
 Charge =  0 Multiplicity = 1

                          Input orientation:
 ---------------------------------------------------------------------
 Center     Atomic      Atomic             Coordinates (Angstroms)
 Number     Number       Type             X           Y           Z
 ---------------------------------------------------------------------
      1          6           0       -1.587662   -5.346998    1.502889
      2          6           0       -0.368690   -5.575709    0.784114
      3          6           0        0.368946   -4.540770    0.264882
      4          6           0       -0.168390   -3.102343    0.393454
      5          6           0       -2.094045   -3.899126    1.690795
      6          6           0       -1.394203   -2.873325    1.104188
      7          8           0       -2.268594   -6.244824    1.991922
      8          8           0        0.494388   -2.210589   -0.129562
      9          7           0       -3.226124   -3.903282    2.410444
     10          7           0        1.531607   -4.548175   -0.399520
     11          6           0       -3.965632   -2.858201    3.137359
     12          6           0       -3.125249   -2.133968    4.192455
     13          6           0       -4.790788   -1.909808    2.237662
     14          6           0        2.536452   -5.599434   -0.581925
     15          6           0        3.926040   -4.950083   -0.622728
     16          6           0        2.328397   -6.470150   -1.839366
     17          7           0       -5.170886   -2.407160    1.046436
     18          7           0        1.438082   -6.041459   -2.749263
     19          6           0        1.172365   -6.768570   -3.984595
     20          6           0       -5.997257   -1.652115    0.113862
     21          8           0       -5.146567   -0.808728    2.653074
     22          8           0        2.996203   -7.495622   -1.973529
     23         17           0        0.071338   -7.267628    0.598759
     24         17           0       -1.920924   -1.200121    1.127355
     25          1           0       -3.472081   -4.858154    2.665970
     26          1           0        1.808269   -3.605112   -0.670172
     27          1           0       -4.732078   -3.424982    3.675218
     28          1           0       -3.769783   -1.466965    4.764660
     29          1           0       -2.325843   -1.543182    3.748486
     30          1           0       -2.689796   -2.867746    4.873265
     31          1           0        2.492746   -6.282363    0.263041
     32          1           0        4.127383   -4.434636    0.317953
     33          1           0        4.001139   -4.231026   -1.443025
     34          1           0        4.682723   -5.720369   -0.768917
     35          1           0       -4.823098   -3.310970    0.765865
     36          1           0        0.920609   -5.196727   -2.560968
     37          1           0        2.081930   -6.864061   -4.581190
     38          1           0        0.428016   -6.217039   -4.555894
     39          1           0        0.789783   -7.769311   -3.772088
     40          1           0       -6.219540   -2.286743   -0.742329
     41          1           0       -5.478397   -0.754805   -0.233096
     42          1           0       -6.933699   -1.349832    0.586520
 ---------------------------------------------------------------------

 SCF Done:  E(UB3LYP) =  -1985.03245379     A.U. after    1 cycles

 Alpha  occ. eigenvalues -- -101.56857-101.56776 -19.14036 -19.14012 -19.10456
 Alpha  occ. eigenvalues --  -19.10405 -14.37921 -14.37746 -14.35433 -14.35050
 Alpha  occ. eigenvalues --  -10.29782 -10.29734 -10.28733 -10.28708 -10.27826
 Alpha  occ. eigenvalues --  -10.27781 -10.24924 -10.24916 -10.24536 -10.24367
 Alpha  occ. eigenvalues --  -10.20740 -10.20609 -10.18037 -10.17205  -9.48327
 Alpha  occ. eigenvalues --   -9.48265  -7.24804  -7.24739  -7.23795  -7.23765
 Alpha  occ. eigenvalues --   -7.23733  -7.23701  -1.08145  -1.07827  -1.05533
 Alpha  occ. eigenvalues --   -1.05475  -0.98873  -0.98537  -0.93745  -0.93516
 Alpha  occ. eigenvalues --   -0.89772  -0.88487  -0.83442  -0.81090  -0.78521
 Alpha  occ. eigenvalues --   -0.74076  -0.72461  -0.72444  -0.70694  -0.67225
 Alpha  occ. eigenvalues --   -0.65955  -0.63384  -0.61394  -0.60114  -0.59224
 Alpha  occ. eigenvalues --   -0.58500  -0.56361  -0.55434  -0.54073  -0.51702
 Alpha  occ. eigenvalues --   -0.50539  -0.49221  -0.48030  -0.47670  -0.47476
 Alpha  occ. eigenvalues --   -0.47049  -0.46914  -0.46197  -0.45815  -0.45389
 Alpha  occ. eigenvalues --   -0.44524  -0.44148  -0.43488  -0.42894  -0.42301
 Alpha  occ. eigenvalues --   -0.41495  -0.40766  -0.40508  -0.40251  -0.40171
 Alpha  occ. eigenvalues --   -0.39405  -0.38665  -0.38180  -0.37197  -0.37011
 Alpha  occ. eigenvalues --   -0.36226  -0.35310  -0.34189  -0.33236  -0.32901
 Alpha  occ. eigenvalues --   -0.30984  -0.29717  -0.28555  -0.27987  -0.27639
 Alpha  occ. eigenvalues --   -0.27379  -0.25702  -0.23304
 Alpha virt. eigenvalues --   -0.12689  -0.02024  -0.01580  -0.01134  -0.00647
 Alpha virt. eigenvalues --   -0.00467  -0.00110   0.00187   0.00446   0.01017
 Alpha virt. eigenvalues --    0.01075   0.01313   0.01640   0.02386   0.02887

  Beta  occ. eigenvalues -- -101.56857-101.56776 -19.14036 -19.14012 -19.10456
  Beta  occ. eigenvalues --  -19.10405 -14.37921 -14.37746 -14.35433 -14.35050
  Beta  occ. eigenvalues --  -10.29782 -10.29734 -10.28733 -10.28708 -10.27826
  Beta  occ. eigenvalues --  -10.27781 -10.24924 -10.24916 -10.24536 -10.24367
  Beta  occ. eigenvalues --  -10.20740 -10.20609 -10.18037 -10.17205  -9.48327
  Beta  occ. eigenvalues --   -9.48265  -7.24804  -7.24739  -7.23795  -7.23765
  Beta  occ. eigenvalues --   -7.23733  -7.23701  -1.08145  -1.07827  -1.05533
  Beta  occ. eigenvalues --   -1.05475  -0.98873  -0.98537  -0.93745  -0.93516
  Beta  occ. eigenvalues --   -0.89772  -0.88487  -0.83442  -0.81090  -0.78521
  Beta  occ. eigenvalues --   -0.74076  -0.72461  -0.72444  -0.70694  -0.67225
  Beta  occ. eigenvalues --   -0.65955  -0.63384  -0.61394  -0.60114  -0.59224
  Beta  occ. eigenvalues --   -0.58500  -0.56361  -0.55434  -0.54073  -0.51702
  Beta  occ. eigenvalues --   -0.50539  -0.49221  -0.48030  -0.47670  -0.47476
  Beta  occ. eigenvalues --   -0.47049  -0.46914  -0.46197  -0.45815  -0.45389
  Beta  occ. eigenvalues --   -0.44524  -0.44148  -0.43488  -0.42894  -0.42301
  Beta  occ. eigenvalues --   -0.41495  -0.40766  -0.40508  -0.40251  -0.40171
  Beta  occ. eigenvalues --   -0.39405  -0.38665  -0.38180  -0.37197  -0.37011
  Beta  occ. eigenvalues --   -0.36226  -0.35310  -0.34189  -0.33236  -0.32901
  Beta  occ. eigenvalues --   -0.30984  -0.29717  -0.28555  -0.27987  -0.27639
  Beta  occ. eigenvalues --   -0.27379  -0.25702  -0.23304
  Beta virt. eigenvalues --   -0.12689  -0.02024  -0.01580  -0.01134  -0.00647
  Beta virt. eigenvalues --   -0.00467  -0.00110   0.00187   0.00446   0.01017
  Beta virt. eigenvalues --    0.01075   0.01313   0.01640   0.02386   0.02887

 Mulliken charges and spin densities:
               1          2
     1  C   -0.408572   0.000000
     2  C    0.114399  -0.000000
     3  C   -0.309195  -0.000000
     4  C   -0.288915  -0.000000
     5  C   -0.329436  -0.000000
     6  C    0.084874   0.000000
     7  O   -0.283223  -0.000000
     8  O   -0.267981   0.000000
     9  N   -0.085538   0.000000
    10  N    0.061050  -0.000000
    11  C    0.203457  -0.000000
    12  C   -0.573236   0.000000
    13  C   -0.341295   0.000000
    14  C    0.029341   0.000000
    15  C   -0.592141   0.000000
    16  C   -0.146398  -0.000000
    17  N   -0.137329   0.000000
    18  N   -0.149176  -0.000000
    19  C   -0.297666  -0.000000
    20  C   -0.305659   0.000000
    21  O   -0.387429  -0.000000
    22  O   -0.395984  -0.000000
    23  Cl   0.436919  -0.000000
    24  Cl   0.416611   0.000000
    25  H    0.361693  -0.000000
    26  H    0.334004  -0.000000
    27  H    0.229834  -0.000000
    28  H    0.189296  -0.000000
    29  H    0.134529   0.000000
    30  H    0.180542   0.000000
    31  H    0.214250  -0.000000
    32  H    0.185178  -0.000000
    33  H    0.174612  -0.000000
    34  H    0.191633   0.000000
    35  H    0.353352  -0.000000
    36  H    0.359988   0.000000
    37  H    0.183618   0.000000
    38  H    0.158663  -0.000000
    39  H    0.185626  -0.000000
    40  H    0.160218   0.000000
    41  H    0.179761   0.000000
    42  H    0.175729  -0.000000
 Sum of Mulliken charges =  -0.00000  -0.00000

 Dipole moment (field-independent basis, Debye):
    X=             -1.8071    Y=             -0.0830    Z=             -2.6500  Tot=              3.2086
 Quadrupole moment (field-independent basis, Debye-Ang):
   XX=           -151.3650   YY=           -210.0069   ZZ=           -143.5011
   XY=             34.2699   XZ=             13.4856   YZ=             -0.5290

  Exact polarizability: 382.222 -10.110 346.694 -82.341  -3.368 304.400
 Approx polarizability: 431.391  32.896 406.493-105.486 -34.694 339.024

                      1                      2                      3
                      A                      A                      A
 Frequencies --     13.4589                27.6937                30.3763
 Red. masses --      5.4746                 4.3263                 6.2561
 Frc consts  --      0.0006                 0.0020                 0.0034
 IR Inten    --      0.0574                 2.1425                 0.6450

                      4                      5                      6
                      A                      A                      A
 Frequencies --     43.8040                51.8545                66.9163
 Red. masses --      4.8519                 2.6288                 3.2547
 Frc consts  --      0.0055                 0.0042                 0.0086
 IR Inten    --      2.8232                10.5117                 3.4824

                      7                      8                      9
                      A                      A                      A
 Frequencies --     69.6473                73.0068                75.8976
 Red. masses --      3.8855                 5.4988                 1.3895
 Frc consts  --      0.0111                 0.0173                 0.0047
 IR Inten    --      8.8769                 8.3380                10.5880

                     10                     11                     12
                      A                      A                      A
 Frequencies --     83.5342                90.6950               118.7388
 Red. masses --      1.7170                 6.0965                 4.3150
 Frc consts  --      0.0071                 0.0295                 0.0358
 IR Inten    --      7.6995                 1.2444                 2.9339

                     13                     14                     15
                      A                      A                      A
 Frequencies --    144.3608               155.7552               160.5771
 Red. masses --      3.5185                 3.6910                 4.4918
 Frc consts  --      0.0432                 0.0528                 0.0682
 IR Inten    --      1.4806                 3.4025                 0.4584

                     16                     17                     18
                      A                      A                      A
 Frequencies --    171.6808               183.8599               192.1681
 Red. masses --      2.7492                 2.2376                 2.0762
 Frc consts  --      0.0477                 0.0446                 0.0452
 IR Inten    --      2.9178                 6.0764                 4.4788

                     19                     20                     21
                      A                      A                      A
 Frequencies --    200.5248               214.1223               216.7213
 Red. masses --      6.6943                 6.5030                 3.0116
 Frc consts  --      0.1586                 0.1757                 0.0833
 IR Inten    --      2.0209                 1.8624                 1.6236

                     22                     23                     24
                      A                      A                      A
 Frequencies --    239.5279               247.0002               265.7443
 Red. masses --      1.3730                 4.8478                 5.3429
 Frc consts  --      0.0464                 0.1743                 0.2223
 IR Inten    --      1.8860                 9.4508                 2.4398

                     25                     26                     27
                      A                      A                      A
 Frequencies --    286.6884               298.6280               314.1152
 Red. masses --     11.1091                 6.3680                 4.1598
 Frc consts  --      0.5380                 0.3346                 0.2418
 IR Inten    --      1.0678                12.8551                 9.6887

                     28                     29                     30
                      A                      A                      A
 Frequencies --    319.7463               330.5311               339.6655
 Red. masses --      4.5933                 6.2446                 4.3307
 Frc consts  --      0.2767                 0.4020                 0.2944
 IR Inten    --     22.7583                29.4066                 4.4532

                     31                     32                     33
                      A                      A                      A
 Frequencies --    364.3962               399.8222               425.5662
 Red. masses --      5.4540                11.0594                 4.2511
 Frc consts  --      0.4267                 1.0416                 0.4536
 IR Inten    --      9.1255                42.2947                28.8551

                     34                     35                     36
                      A                      A                      A
 Frequencies --    457.3151               491.4673               505.4935
 Red. masses --      6.5173                 2.0789                 1.1787
 Frc consts  --      0.8031                 0.2959                 0.1775
 IR Inten    --      4.5527               120.8730                88.0334

                     37                     38                     39
                      A                      A                      A
 Frequencies --    526.4902               535.7073               551.6810
 Red. masses --      2.4544                 6.9173                 6.7309
 Frc consts  --      0.4008                 1.1696                 1.2070
 IR Inten    --     47.8557                32.9262                32.9065

                     40                     41                     42
                      A                      A                      A
 Frequencies --    577.6040               592.1075               598.6661
 Red. masses --      3.9205                 6.6590                 5.9223
 Frc consts  --      0.7706                 1.3755                 1.2506
 IR Inten    --     28.9677                37.1183                41.7613

                     43                     44                     45
                      A                      A                      A
 Frequencies --    626.3574               641.3205               728.5749
 Red. masses --      4.5619                 4.7386                 1.2762
 Frc consts  --      1.0545                 1.1483                 0.3991
 IR Inten    --     32.5254                18.8826                86.9986

                     46                     47                     48
                      A                      A                      A
 Frequencies --    731.8536               752.7924               763.9190
 Red. masses --      1.1440                 4.0596                 5.9087
 Frc consts  --      0.3610                 1.3555                 2.0316
 IR Inten    --    192.3776                 4.1102                 7.4600

                     49                     50                     51
                      A                      A                      A
 Frequencies --    767.2275               769.5945               773.7664
 Red. masses --      8.4080                 6.0907                 5.0057
 Frc consts  --      2.9160                 2.1254                 1.7658
 IR Inten    --     13.6522                53.6534                18.5228

                     52                     53                     54
                      A                      A                      A
 Frequencies --    798.3372               854.0159               861.6786
 Red. masses --      4.1834                 3.3712                 3.0581
 Frc consts  --      1.5709                 1.4487                 1.3378
 IR Inten    --      8.8992                31.7315                27.6662

                     55                     56                     57
                      A                      A                      A
 Frequencies --    890.4210               933.9997               942.6558
 Red. masses --      7.2269                 2.4035                 2.1135
 Frc consts  --      3.3759                 1.2354                 1.1065
 IR Inten    --      5.4565                 5.2522                22.4388

                     58                     59                     60
                      A                      A                      A
 Frequencies --    996.7693              1014.5910              1027.9754
 Red. masses --      3.5809                 2.4514                 3.2156
 Frc consts  --      2.0962                 1.4868                 2.0021
 IR Inten    --     34.8592                24.5655                99.5632

                     61                     62                     63
                      A                      A                      A
 Frequencies --   1076.3038              1093.4619              1107.8043
 Red. masses --      2.4441                 3.9814                 2.2664
 Frc consts  --      1.6682                 2.8048                 1.6387
 IR Inten    --     20.6162                29.6323                14.4897

                     64                     65                     66
                      A                      A                      A
 Frequencies --   1123.7816              1143.1239              1146.2727
 Red. masses --      2.4285                 2.6660                 1.3004
 Frc consts  --      1.8070                 2.0526                 1.0067
 IR Inten    --    133.1778                55.2385                 1.5681

                     67                     68                     69
                      A                      A                      A
 Frequencies --   1146.7448              1160.6337              1185.4271
 Red. masses --      1.2946                 2.5358                 1.7319
 Frc consts  --      1.0031                 2.0126                 1.4339
 IR Inten    --      0.5467                44.6430                10.4982

                     70                     71                     72
                      A                      A                      A
 Frequencies --   1187.2215              1246.6654              1253.2878
 Red. masses --      1.7435                 3.3842                 4.1133
 Frc consts  --      1.4479                 3.0989                 3.8067
 IR Inten    --      7.1969               286.5587               144.7796

                     73                     74                     75
                      A                      A                      A
 Frequencies --   1274.5491              1285.3344              1312.8683
 Red. masses --      1.9219                 2.1047                 1.3431
 Frc consts  --      1.8395                 2.0487                 1.3639
 IR Inten    --     77.2136                57.7916                 6.0427

                     76                     77                     78
                      A                      A                      A
 Frequencies --   1325.4265              1328.0387              1330.3411
 Red. masses --      4.3683                 2.5024                 2.0623
 Frc consts  --      4.5214                 2.6003                 2.1504
 IR Inten    --     36.2201               158.9062                91.9390

                     79                     80                     81
                      A                      A                      A
 Frequencies --   1366.4090              1396.4312              1403.7702
 Red. masses --      1.3559                 1.2758                 1.2158
 Frc consts  --      1.4915                 1.4658                 1.4116
 IR Inten    --     22.7250               208.5207                23.0955

                     82                     83                     84
                      A                      A                      A
 Frequencies --   1404.0355              1447.7004              1448.6695
 Red. masses --      1.2180                 1.2000                 1.1955
 Frc consts  --      1.4147                 1.4818                 1.4782
 IR Inten    --     16.7880                47.7994                45.0720

                     85                     86                     87
                      A                      A                      A
 Frequencies --   1473.3255              1473.3513              1479.8108
 Red. masses --      1.0387                 1.0408                 1.0462
 Frc consts  --      1.3285                 1.3312                 1.3498
 IR Inten    --     14.0186                24.1418                27.4749

                     88                     89                     90
                      A                      A                      A
 Frequencies --   1487.7071              1489.1095              1493.1899
 Red. masses --      1.0437                 1.0579                 1.0767
 Frc consts  --      1.3609                 1.3821                 1.4145
 IR Inten    --     17.4221                 1.5422               114.8505

                     91                     92                     93
                      A                      A                      A
 Frequencies --   1498.0921              1498.5619              1529.6348
 Red. masses --      1.0757                 1.0769                 2.3024
 Frc consts  --      1.4224                 1.4249                 3.1740
 IR Inten    --     11.9190                10.5401              2893.5803

                     94                     95                     96
                      A                      A                      A
 Frequencies --   1548.8339              1555.1500              1561.7882
 Red. masses --      2.1025                 1.8506                 1.7796
 Frc consts  --      2.9716                 2.6370                 2.5575
 IR Inten    --    439.6506                13.8323               271.1188

                     97                     98                     99
                      A                      A                      A
 Frequencies --   1602.5720              1610.4014              1674.1435
 Red. masses --      3.4033                 4.8946                 8.5899
 Frc consts  --      5.1498                 7.4788                14.1848
 IR Inten    --   1336.5507               195.8406                 4.8758

                    100                    101                    102
                      A                      A                      A
 Frequencies --   1685.9534              1690.3439              1693.2847
 Red. masses --      8.5798                 9.0773                 9.8244
 Frc consts  --     14.3687                15.2811                16.5965
 IR Inten    --    741.2463               519.5307               121.0370

                    103                    104                    105
                      A                      A                      A
 Frequencies --   3036.6747              3038.5668              3041.1079
 Red. masses --      1.0358                 1.0377                 1.0344
 Frc consts  --      5.6274                 5.6450                 5.6367
 IR Inten    --     52.7030                29.5062                47.7769

                    106                    107                    108
                      A                      A                      A
 Frequencies --   3049.2938              3057.0247              3093.1671
 Red. masses --      1.0832                 1.0367                 1.1031
 Frc consts  --      5.9340                 5.7081                 6.2184
 IR Inten    --     19.1650                24.8670                34.0448

                    109                    110                    111
                      A                      A                      A
 Frequencies --   3096.5542              3105.1387              3126.5678
 Red. masses --      1.1049                 1.0994                 1.1010
 Frc consts  --      6.2420                 6.2456                 6.3414
 IR Inten    --     31.3787                21.5727                15.3534

                    112                    113                    114
                      A                      A                      A
 Frequencies --   3132.1421              3135.7126              3139.4301
 Red. masses --      1.0943                 1.0939                 1.1025
 Frc consts  --      6.3251                 6.3370                 6.4023
 IR Inten    --      4.3337                16.4703                17.7341

                    115                    116                    117
                      A                      A                      A
 Frequencies --   3143.2803              3146.2435              3462.9681
 Red. masses --      1.1024                 1.1026                 1.0750
 Frc consts  --      6.4171                 6.4303                 7.5953
 IR Inten    --     17.7406                13.8355                82.4070

                    118                    119                    120
                      A                      A                      A
 Frequencies --   3468.6537              3631.3791              3633.8292
 Red. masses --      1.0753                 1.0780                 1.0780
 Frc consts  --      7.6223                 8.3753                 8.3870
 IR Inten    --    395.7959                91.5859                82.9027

 - Thermochemistry -
 -------------------
 Temperature   298.150 Kelvin.  Pressure   1.00000 Atm.
 Atom     1 has atomic number  6 and mass  12.00000

 Molecular mass:   376.07051 amu.
 Principal axes and moments of inertia in atomic units:
                           1         2         3
     Eigenvalues --  4429.82536********************
           X            0.74001   0.37538   0.55810
           Y           -0.52307   0.84282   0.12669
           Z           -0.42282  -0.38568   0.82004
 This molecule is an asymmetric top.
 Rotational symmetry number  1.
 Warning -- assumption of classical behavior for rotation
           may cause significant error
 Rotational temperatures (Kelvin)      0.01955     0.00486     0.00464
 Rotational constants (GHZ):           0.40741     0.10123     0.09661
 Zero-point vibrational energy     847593.1 (Joules/Mol)
                                  202.57961 (Kcal/Mol)
 Warning -- explicit consideration of  42 degrees of freedom as
           vibrations may cause significant error
 Vibrational temperatures:     19.36    39.85    43.70    63.02    74.61
          (Kelvin)             96.28   100.21   105.04   109.20   120.19
                              130.49   170.84   207.70   224.10   231.03
                              247.01   264.53   276.49   288.51   308.07
                              311.81   344.63   355.38   382.35   412.48
                              429.66   451.94   460.04   475.56   488.70
                              524.28   575.25   612.29   657.97   707.11
                              727.29   757.50   770.76   793.75   831.04
                              851.91   861.35   901.19   922.72  1048.26
                             1052.97  1083.10  1099.11  1103.87  1107.27
                             1113.28  1148.63  1228.74  1239.76  1281.12
                             1343.82  1356.27  1434.13  1459.77  1479.03
                             1548.56  1573.25  1593.88  1616.87  1644.70
                             1649.23  1649.91  1669.89  1705.57  1708.15
                             1793.67  1803.20  1833.79  1849.31  1888.92
                             1906.99  1910.75  1914.06  1965.96  2009.15
                             2019.71  2020.09  2082.92  2084.31  2119.79
                             2119.82  2129.12  2140.48  2142.50  2148.37
                             2155.42  2156.10  2200.80  2228.43  2237.51
                             2247.06  2305.74  2317.01  2408.72  2425.71
                             2432.03  2436.26  4369.10  4371.82  4375.48
                             4387.25  4398.38  4450.38  4455.25  4467.60
                             4498.43  4506.45  4511.59  4516.94  4522.48
                             4526.74  4982.44  4990.62  5224.74  5228.27

 Zero-point correction=                           0.322831 (Hartree/Particle)
 Thermal correction to Energy=                    0.349137
 Thermal correction to Enthalpy=                  0.350081
 Thermal correction to Gibbs Free Energy=         0.263394
 Sum of electronic and zero-point Energies=          -1984.709623
 Sum of electronic and thermal Energies=             -1984.683317
 Sum of electronic and thermal Enthalpies=           -1984.682373
 Sum of electronic and thermal Free Energies=        -1984.769060

                     E (Thermal)             CV                S
                      KCal/Mol        Cal/Mol-Kelvin    Cal/Mol-Kelvin
 Total                  219.087             93.214            182.448
 Electronic               0.000              0.000              0.000
 Translational            0.889              2.981             43.666
 Rotational               0.889              2.981             35.643
 Vibrational            217.309             87.253            103.138
 Vibration     1          0.593              1.987              7.421
 Vibration     2          0.593              1.984              5.988
 Vibration     3          0.594              1.984              5.805
 Vibration     4          0.595              1.980              5.079
 Vibration     5          0.596              1.977              4.745
 Vibration     6          0.598              1.970              4.242
 Vibration     7          0.598              1.969              4.163
 Vibration     8          0.599              1.967              4.071
 Vibration     9          0.599              1.965              3.994
 Vibration    10          0.600              1.961              3.806
 Vibration    11          0.602              1.956              3.645
 Vibration    12          0.609              1.934              3.121
 Vibration    13          0.616              1.909              2.745
 Vibration    14          0.620              1.896              2.601
 Vibration    15          0.622              1.891              2.543
 Vibration    16          0.626              1.877              2.417
 Vibration    17          0.631              1.862              2.289
 Vibration    18          0.634              1.851              2.207
 Vibration    19          0.638              1.839              2.128
 Vibration    20          0.644              1.819              2.008
 Vibration    21          0.646              1.816              1.986
 Vibration    22          0.657              1.780              1.806
 Vibration    23          0.661              1.768              1.752
 Vibration    24          0.672              1.736              1.624
 Vibration    25          0.684              1.698              1.493
 Vibration    26          0.692              1.676              1.425
 Vibration    27          0.702              1.647              1.341
 Vibration    28          0.706              1.636              1.311
 Vibration    29          0.713              1.615              1.257
 Vibration    30          0.720              1.596              1.214
 Vibration    31          0.738              1.546              1.103
 Vibration    32          0.766              1.470              0.963
 Vibration    33          0.787              1.415              0.873
 Vibration    34          0.815              1.345              0.774
 Vibration    35          0.847              1.269              0.680
 Vibration    36          0.861              1.238              0.645
 Vibration    37          0.881              1.191              0.595
 Vibration    38          0.891              1.171              0.575
 Vibration    39          0.907              1.136              0.541
 Vibration    40          0.934              1.080              0.490
 Vibration    41          0.950              1.049              0.463
 Vibration    42          0.957              1.035              0.452

                           ! Non-Optimized Parameters !
 Normal termination of Gaussian 16 at Sat Feb 10 21:26:50 2024.
