 Q-Chem 5.4, Q-Chem, Inc., Pleasanton, CA (2021)
 Q-Chem 5.4.0 for Intel X86 EM64T Linux

User input:
--------------------------------------------------------------
$molecule
-1 2
C                  5.9276950000     -5.2202570000      1.1065870000
C                  6.8254070000     -5.0812700000      0.0635210000
C                  6.6134990000     -4.0956730000     -0.9184650000
C                  4.7970500000     -4.3861620000      1.2032150000
C                  4.5842630000     -3.3963590000      0.2170660000
C                  5.5080100000     -3.2682360000     -0.8382370000
C                  3.8678800000     -4.5732960000      2.3348120000
C                  2.7351090000     -3.6689980000      2.3483590000
C                  2.5264430000     -2.6983640000      1.3813350000
C                  3.4200100000     -2.4899120000      0.2591850000
O                  4.0640940000     -5.4511990000      3.2016980000
O                  3.2400880000     -1.6179720000     -0.6172070000
H                  6.0635870000     -5.9695070000      1.8776670000
H                  5.3176100000     -2.5002380000     -1.5787260000
Br                 1.5285600000     -3.9151940000      3.8209310000
Br                 1.0132650000     -1.5182910000      1.4330180000
H                  7.6926600000     -5.7317430000      0.0022790000
H                  7.3171080000     -3.9850180000     -1.7380280000
$end
$rem
MAX_SCF_CYCLES=200
BASIS  =  6-311++G(d,p)
GUI  =  2
JOB_TYPE  =  SP
METHOD  =  B3LYP
SOLVENT_METHOD = COSMO
$end
$solvent
dielectric 37.219
opticaldielectric 1.43
$end

--------------------------------------------------------------

             Standard Nuclear Orientation (Angstroms)
    I     Atom           X                Y                Z
 ----------------------------------------------------------------
    1      C       3.2157685229    -1.3936264212     0.0000253967
    2      C       4.4145727685    -0.7036559613    -0.0001910209
    3      C       4.4145783608     0.7036829987    -0.0002430094
    4      C       1.9863428562    -0.7066605818     0.0001694247
    5      C       1.9863566975     0.7066610857     0.0001455398
    6      C       3.2157656873     1.3936413932    -0.0000484422
    7      C       0.7336037295    -1.4873861808     0.0002826627
    8      C      -0.4788330181    -0.6929645993     0.0001551017
    9      C      -0.4788319277     0.6929673175     0.0001462200
   10      C       0.7336137870     1.4873917724     0.0002755518
   11      O       0.7434866815    -2.7366288386     0.0000428017
   12      O       0.7435084854     2.7366380578     0.0000735971
   13      H       3.1831960564    -2.4768372026     0.0000705049
   14      H       3.1830816019     2.4768444202    -0.0000586763
   15      Br     -2.1061095009    -1.7112044788    -0.0000715918
   16      Br     -2.1061513222     1.7111925499    -0.0000584779
   17      H       5.3546309886    -1.2470563676    -0.0003070394
   18      H       5.3546340404     1.2470879703    -0.0003880888
 ----------------------------------------------------------------

   10   -5682.4197943224      4.99e-06  Convergence criterion met
 Total energy in the final basis set =    -5682.4197943224
    5   -5682.4983999406      4.20e-06  Convergence criterion met
 Total energy in the final basis set =    -5682.4983999406

                    Orbital Energies (a.u.)
 --------------------------------------------------------------

 Alpha MOs
 -- Occupied --
********-482.8307 -62.4835 -62.4835 -56.3039 -56.3039 -56.3003 -56.3003
-56.2999 -56.2999 -19.0935 -19.0935 -10.2458 -10.2458 -10.2335 -10.2330
-10.1861 -10.1856 -10.1785 -10.1781 -10.1766 -10.1766  -8.6923  -8.6923
 -6.5236  -6.5236  -6.5114  -6.5114  -6.5101  -6.5101  -2.6345  -2.6344
 -2.6314  -2.6314  -2.6304  -2.6303  -2.6206  -2.6206  -2.6205  -2.6205
 -1.0248  -1.0224  -0.8728  -0.8521  -0.7954  -0.7835  -0.7587  -0.7260
 -0.6821  -0.6204  -0.6112  -0.5702  -0.5286  -0.5016  -0.4774  -0.4570
 -0.4395  -0.4337  -0.4304  -0.4293  -0.4002  -0.3997  -0.3995  -0.3700
 -0.3612  -0.3478  -0.3385  -0.3074  -0.3069  -0.2806  -0.2775  -0.2645
 -0.2638  -0.2530  -0.2503  -0.1691

 Beta MOs
 -- Occupied --
********-482.8306 -62.4835 -62.4835 -56.3040 -56.3040 -56.3002 -56.3002
-56.2999 -56.2998 -19.0876 -19.0876 -10.2444 -10.2444 -10.2315 -10.2309
-10.1858 -10.1853 -10.1783 -10.1778 -10.1765 -10.1765  -8.6923  -8.6922
 -6.5236  -6.5236  -6.5112  -6.5112  -6.5101  -6.5101  -2.6345  -2.6344
 -2.6313  -2.6313  -2.6304  -2.6304  -2.6205  -2.6205  -2.6204  -2.6204
 -1.0147  -1.0119  -0.8695  -0.8495  -0.7934  -0.7812  -0.7570  -0.7240
 -0.6736  -0.6189  -0.6079  -0.5674  -0.5263  -0.4991  -0.4745  -0.4558
 -0.4309  -0.4269  -0.4266  -0.4240  -0.3981  -0.3977  -0.3749  -0.3656
 -0.3600  -0.3470  -0.3241  -0.3070  -0.3031  -0.2797  -0.2599  -0.2589
 -0.2576  -0.2482  -0.2430

          Ground-State Mulliken Net Atomic Charges

     Atom                 Charge (a.u.)    Spin (a.u.)
  --------------------------------------------------------
      1 C                     0.127355       0.029415
      2 C                    -0.403752       0.018266
      3 C                    -0.404322       0.018265
      4 C                     0.521863       0.008474
      5 C                     0.522544       0.008478
      6 C                     0.127231       0.029416
      7 C                    -1.118055       0.087434
      8 C                     0.553437       0.132421
      9 C                     0.554171       0.132405
     10 C                    -1.117607       0.087443
     11 O                    -0.408284       0.217663
     12 O                    -0.408301       0.217690
     13 H                     0.179524      -0.002521
     14 H                     0.179535      -0.002520
     15 Br                   -0.167428       0.010364
     16 Br                   -0.167574       0.010363
     17 H                     0.214820      -0.001528
     18 H                     0.214844      -0.001528
  --------------------------------------------------------
  Sum of atomic charges =    -1.000000

                    Cartesian Multipole Moments
 -----------------------------------------------------------------
    Charge (ESU x 10^10)
                -4.8032
    Dipole Moment (Debye)
         X       1.0449      Y       0.0001      Z      -0.0005
       Tot       1.0449
    Quadrupole Moments (Debye-Ang)
        XX    -103.2346     XY       0.0004     YY    -144.7253
        XZ      -0.0015     YZ       0.0006     ZZ    -110.4304

 Total job time:  53.54s(wall), 401.16s(cpu)
        *  Thank you very much for using Q-Chem.  Have a nice day.  *
