 Gaussian 16, Revision A.03,
 Gaussian 16:  ES64L-G16RevA.03 25-Dec-2016

 ----------------------------------------------------------------
 #P UB3LYP/6-311++G(d,p) SCRF=(PCM,Solvent=n,n-DiMethylFormamide)
 ----------------------------------------------------------------

 ------------------
 Quinone PCM in DMF
 ------------------
 Symbolic Z-matrix:
 Charge =  0 Multiplicity = 1

                         Standard orientation:
 ---------------------------------------------------------------------
 Center     Atomic      Atomic             Coordinates (Angstroms)
 Number     Number       Type             X           Y           Z
 ---------------------------------------------------------------------
      1          8           0       -0.000013   -2.241079    0.892061
      2          6           0        0.000041   -1.107708    0.429685
      3          6           0       -1.317920   -0.476044    0.098528
      4          6           0       -2.347977   -1.392153   -0.181041
      5          6           0       -3.638099   -0.976207   -0.464010
      6          6           0       -3.942406    0.387688   -0.435836
      7          6           0       -2.947692    1.303054   -0.142712
      8          6           0       -1.614072    0.908301    0.106608
      9          6           0       -0.674259    1.979758    0.381997
     10          6           0        0.674191    1.979752    0.382009
     11          6           0        1.614016    0.908299    0.106586
     12          6           0        2.947574    1.303109   -0.142968
     13          6           0        3.942338    0.387785   -0.436037
     14          6           0        3.638181   -0.976153   -0.463820
     15          6           0        2.348119   -1.392148   -0.180682
     16          6           0        1.317987   -0.476072    0.098723
     17          1           0       -2.102751   -2.445927   -0.160133
     18          1           0       -4.406590   -1.705991   -0.691081
     19          1           0       -4.951255    0.729491   -0.637884
     20          1           0       -3.185849    2.360657   -0.110112
     21          1           0       -1.145647    2.942153    0.559866
     22          1           0        1.145611    2.942124    0.559913
     23          1           0        3.185625    2.360746   -0.110620
     24          1           0        4.951115    0.729664   -0.638314
     25          1           0        4.406729   -1.705919   -0.690764
     26          1           0        2.102988   -2.445941   -0.159537
 ---------------------------------------------------------------------

 SCF Done:  E(UB3LYP) =  -653.013163097     A.U. after   15 cycles

 The electronic state is 1-A.
 Alpha  occ. eigenvalues --  -19.11937 -10.27720 -10.21040 -10.21039 -10.20392
 Alpha  occ. eigenvalues --  -10.20391 -10.19388 -10.19312 -10.19172 -10.19172
 Alpha  occ. eigenvalues --  -10.19012 -10.19012 -10.19004 -10.19004 -10.18874
 Alpha  occ. eigenvalues --  -10.18873  -1.05775  -0.88838  -0.87789  -0.82170
 Alpha  occ. eigenvalues --   -0.78294  -0.78038  -0.76962  -0.73836  -0.66720
 Alpha  occ. eigenvalues --   -0.66116  -0.62000  -0.61541  -0.58377  -0.57400
 Alpha  occ. eigenvalues --   -0.52110  -0.50898  -0.49932  -0.48549  -0.47361
 Alpha  occ. eigenvalues --   -0.45321  -0.44851  -0.44617  -0.44057  -0.43720
 Alpha  occ. eigenvalues --   -0.41507  -0.39873  -0.39061  -0.38509  -0.37120
 Alpha  occ. eigenvalues --   -0.36981  -0.36214  -0.35250  -0.33127  -0.28656
 Alpha  occ. eigenvalues --   -0.27976  -0.27662  -0.26455  -0.23347
 Alpha virt. eigenvalues --   -0.08255  -0.07557  -0.02452  -0.02344  -0.00749
 Alpha virt. eigenvalues --    0.00176   0.00567   0.01818   0.02024   0.02551
 Alpha virt. eigenvalues --    0.03530   0.03786   0.03976   0.04162   0.04261

  Beta  occ. eigenvalues --  -19.11937 -10.27720 -10.21040 -10.21039 -10.20392
  Beta  occ. eigenvalues --  -10.20391 -10.19388 -10.19312 -10.19172 -10.19172
  Beta  occ. eigenvalues --  -10.19012 -10.19012 -10.19004 -10.19004 -10.18874
  Beta  occ. eigenvalues --  -10.18873  -1.05775  -0.88838  -0.87789  -0.82170
  Beta  occ. eigenvalues --   -0.78294  -0.78038  -0.76962  -0.73836  -0.66720
  Beta  occ. eigenvalues --   -0.66116  -0.62000  -0.61541  -0.58377  -0.57400
  Beta  occ. eigenvalues --   -0.52110  -0.50898  -0.49932  -0.48549  -0.47361
  Beta  occ. eigenvalues --   -0.45321  -0.44851  -0.44617  -0.44057  -0.43720
  Beta  occ. eigenvalues --   -0.41507  -0.39873  -0.39061  -0.38509  -0.37120
  Beta  occ. eigenvalues --   -0.36981  -0.36214  -0.35250  -0.33127  -0.28656
  Beta  occ. eigenvalues --   -0.27976  -0.27662  -0.26455  -0.23347
  Beta virt. eigenvalues --   -0.08255  -0.07557  -0.02452  -0.02344  -0.00749
  Beta virt. eigenvalues --    0.00176   0.00567   0.01818   0.02024   0.02551
  Beta virt. eigenvalues --    0.03530   0.03786   0.03976   0.04162   0.04261

 Mulliken charges and spin densities:
               1          2
     1  O   -0.294964  -0.000000
     2  C   -0.646829   0.000000
     3  C    0.731180  -0.000000
     4  C   -0.015908   0.000000
     5  C   -0.530493  -0.000000
     6  C   -0.324293   0.000000
     7  C   -0.205900  -0.000000
     8  C    0.173112  -0.000000
     9  C   -0.319475   0.000000
    10  C   -0.319397   0.000000
    11  C    0.172844  -0.000000
    12  C   -0.206324   0.000000
    13  C   -0.324297  -0.000000
    14  C   -0.530584   0.000000
    15  C   -0.016222   0.000000
    16  C    0.731621  -0.000000
    17  H    0.199599   0.000000
    18  H    0.200554  -0.000000
    19  H    0.197308   0.000000
    20  H    0.174144   0.000000
    21  H    0.191342  -0.000000
    22  H    0.191390   0.000000
    23  H    0.174131   0.000000
    24  H    0.197309  -0.000000
    25  H    0.200558  -0.000000
    26  H    0.199594   0.000000
 Sum of Mulliken charges =  -0.00000   0.00000

 Dipole moment (field-independent basis, Debye):
    X=              0.0003    Y=              4.0334    Z=             -1.8649  Tot=              4.4437
 Quadrupole moment (field-independent basis, Debye-Ang):
   XX=            -68.9196   YY=            -88.3447   ZZ=            -99.5821
   XY=             -0.0006   XZ=             -0.0009   YZ=              6.2618

 Normal termination of Gaussian 16 at Sat Jan 13 19:20:32 2024.
