 Gaussian 16, Revision A.03,
 Gaussian 16:  ES64L-G16RevA.03 25-Dec-2016

 --------------------------------------
 #P UB3LYP/6-311++G(d,p) nosym opt freq
 --------------------------------------

 -------
 Reduced
 -------
 Symbolic Z-matrix:
 Charge = -2 Multiplicity = 1

 SCF Done:  E(UB3LYP) =  -893.507429433     A.U. after   24 cycles
 Optimization completed.
    -- Stationary point found.
 Normal termination of Gaussian 16 at Wed Dec 27 21:02:11 2023.

 ----------------------------------------------------------------------
 #P Geom=AllCheck Guess=TCheck SCRF=Check GenChk UB3LYP/6-311++G(d,p) F
 req
 ----------------------------------------------------------------------

 Structure from the checkpoint file:  "174-an.chk"
 -------
 Reduced
 -------
 Charge = -2 Multiplicity = 1

                          Input orientation:
 ---------------------------------------------------------------------
 Center     Atomic      Atomic             Coordinates (Angstroms)
 Number     Number       Type             X           Y           Z
 ---------------------------------------------------------------------
      1          8           0        2.038032    2.893072   -1.150475
      2          7           0        2.712236    2.285968   -0.307432
      3          8           0        3.721605    2.803729    0.254244
      4          6           0        2.388829    0.907001   -0.011932
      5          6           0        3.489050    0.070411    0.049450
      6          6           0        3.324390   -1.325408    0.031623
      7          6           0        2.042443   -1.852788   -0.087760
      8          6           0        0.899371   -1.046187   -0.110683
      9          6           0       -0.395254   -1.718389   -0.195452
     10          8           0       -0.512526   -2.979763   -0.336697
     11          6           0       -1.544079   -0.839817   -0.063649
     12          6           0       -2.848467   -1.382647   -0.145454
     13          6           0       -3.976305   -0.598223   -0.004824
     14          6           0       -3.829211    0.793889    0.233158
     15          6           0       -2.568024    1.346703    0.326672
     16          6           0       -1.391173    0.569799    0.181879
     17          6           0       -0.095069    1.241961    0.298765
     18          8           0       -0.017655    2.468750    0.635531
     19          6           0        1.034122    0.404513    0.023627
     20          1           0        4.474559    0.520096    0.036019
     21          1           0        4.195418   -1.975466    0.045895
     22          1           0        1.878392   -2.923314   -0.163486
     23          1           0       -2.920690   -2.451431   -0.321782
     24          1           0       -4.968208   -1.040684   -0.074364
     25          1           0       -4.711216    1.422902    0.342001
     26          1           0       -2.420571    2.405323    0.515125
 ---------------------------------------------------------------------

 SCF Done:  E(UB3LYP) =  -893.507429433     A.U. after    3 cycles

 Alpha  occ. eigenvalues --  -18.88172 -18.87430 -18.80913 -18.77925 -14.26025
 Alpha  occ. eigenvalues --   -9.97170  -9.96680  -9.94840  -9.94538  -9.94466
 Alpha  occ. eigenvalues --   -9.94370  -9.94002  -9.93835  -9.93726  -9.93134
 Alpha  occ. eigenvalues --   -9.92380  -9.92210  -9.92167  -9.91514  -0.93656
 Alpha  occ. eigenvalues --   -0.76367  -0.72844  -0.70230  -0.62113  -0.61203
 Alpha  occ. eigenvalues --   -0.54865  -0.53577  -0.50970  -0.49614  -0.44390
 Alpha  occ. eigenvalues --   -0.41675  -0.38741  -0.37723  -0.33421  -0.30688
 Alpha  occ. eigenvalues --   -0.29671  -0.28953  -0.25252  -0.25015  -0.24347
 Alpha  occ. eigenvalues --   -0.23035  -0.21686  -0.21633  -0.20248  -0.18588
 Alpha  occ. eigenvalues --   -0.16136  -0.16023  -0.15761  -0.15012  -0.13061
 Alpha  occ. eigenvalues --   -0.12584  -0.11831  -0.10291  -0.10135  -0.08622
 Alpha  occ. eigenvalues --   -0.08360  -0.04692  -0.04166  -0.03322  -0.01478
 Alpha  occ. eigenvalues --   -0.00717  -0.00074   0.00613   0.01786   0.04474
 Alpha  occ. eigenvalues --    0.11951
 Alpha virt. eigenvalues --    0.15520   0.16223   0.16490   0.17394   0.19061
 Alpha virt. eigenvalues --    0.19856   0.20197   0.21171   0.21520   0.21997
 Alpha virt. eigenvalues --    0.23797   0.24400   0.25343   0.25943   0.26475

  Beta  occ. eigenvalues --  -18.88172 -18.87430 -18.80913 -18.77925 -14.26025
  Beta  occ. eigenvalues --   -9.97170  -9.96680  -9.94840  -9.94538  -9.94466
  Beta  occ. eigenvalues --   -9.94370  -9.94002  -9.93835  -9.93726  -9.93134
  Beta  occ. eigenvalues --   -9.92380  -9.92210  -9.92167  -9.91514  -0.93656
  Beta  occ. eigenvalues --   -0.76367  -0.72844  -0.70230  -0.62113  -0.61203
  Beta  occ. eigenvalues --   -0.54865  -0.53577  -0.50970  -0.49614  -0.44390
  Beta  occ. eigenvalues --   -0.41675  -0.38741  -0.37723  -0.33421  -0.30688
  Beta  occ. eigenvalues --   -0.29671  -0.28953  -0.25252  -0.25015  -0.24347
  Beta  occ. eigenvalues --   -0.23035  -0.21686  -0.21633  -0.20248  -0.18588
  Beta  occ. eigenvalues --   -0.16136  -0.16023  -0.15761  -0.15012  -0.13061
  Beta  occ. eigenvalues --   -0.12584  -0.11831  -0.10291  -0.10135  -0.08622
  Beta  occ. eigenvalues --   -0.08360  -0.04692  -0.04166  -0.03322  -0.01478
  Beta  occ. eigenvalues --   -0.00717  -0.00074   0.00613   0.01786   0.04474
  Beta  occ. eigenvalues --    0.11951
  Beta virt. eigenvalues --    0.15520   0.16223   0.16490   0.17394   0.19061
  Beta virt. eigenvalues --    0.19856   0.20197   0.21171   0.21520   0.21997
  Beta virt. eigenvalues --    0.23797   0.24400   0.25343   0.25943   0.26475

 Mulliken charges and spin densities:
               1          2
     1  O   -0.059266  -0.000000
     2  N   -0.193887   0.000000
     3  O   -0.147989   0.000000
     4  C   -0.283113  -0.000000
     5  C   -0.023568  -0.000000
     6  C   -0.646642  -0.000000
     7  C   -0.157069  -0.000000
     8  C    0.989520  -0.000000
     9  C   -0.509586   0.000000
    10  O   -0.455823  -0.000000
    11  C    0.449776  -0.000000
    12  C    0.013705   0.000000
    13  C   -0.481651   0.000000
    14  C   -0.476368  -0.000000
    15  C    0.012545   0.000000
    16  C    0.212777   0.000000
    17  C   -0.797385   0.000000
    18  O   -0.439050  -0.000000
    19  C    0.175281  -0.000000
    20  H    0.163485   0.000000
    21  H    0.087663   0.000000
    22  H    0.130334  -0.000000
    23  H    0.130709   0.000000
    24  H    0.080233   0.000000
    25  H    0.080961  -0.000000
    26  H    0.144408   0.000000
 Sum of Mulliken charges =  -2.00000   0.00000

 Dipole moment (field-independent basis, Debye):
    X=             -3.7504    Y=             -5.6095    Z=              0.0673  Tot=              6.7481
 Quadrupole moment (field-independent basis, Debye-Ang):
   XX=           -170.5125   YY=           -183.7389   ZZ=           -124.1850
   XY=            -26.3998   XZ=              0.5232   YZ=             -3.0899

  Exact polarizability: 460.760  63.017 306.241  -9.270   0.451 129.734
 Approx polarizability: 965.777 268.254 711.864 -17.073  -6.252 211.601

                      1                      2                      3
                      A                      A                      A
 Frequencies --     44.1056                54.8568                95.1257
 Red. masses --     10.7774                 6.7060                 9.0441
 Frc consts  --      0.0124                 0.0119                 0.0482
 IR Inten    --      7.2342                11.0073                17.4013

                      4                      5                      6
                      A                      A                      A
 Frequencies --    130.6672               157.4876               183.9968
 Red. masses --      5.1434                 7.8756                 9.7004
 Frc consts  --      0.0517                 0.1151                 0.1935
 IR Inten    --      1.2226                 0.6890                 1.5084

                      7                      8                      9
                      A                      A                      A
 Frequencies --    190.7817               225.7304               266.7980
 Red. masses --      6.2481                 5.2683                 5.9601
 Frc consts  --      0.1340                 0.1582                 0.2500
 IR Inten    --      2.8584                 8.4174                 2.7279

                     10                     11                     12
                      A                      A                      A
 Frequencies --    312.5318               336.5981               361.0573
 Red. masses --      9.3401                 8.9780                 8.1751
 Frc consts  --      0.5375                 0.5993                 0.6279
 IR Inten    --      1.2740                10.7247                 2.8060

                     13                     14                     15
                      A                      A                      A
 Frequencies --    371.2191               400.7984               420.2058
 Red. masses --      9.1085                 7.2409                 5.1437
 Frc consts  --      0.7395                 0.6853                 0.5351
 IR Inten    --      2.4617                 2.9532                 9.1692

                     16                     17                     18
                      A                      A                      A
 Frequencies --    451.0635               472.6560               484.5297
 Red. masses --      4.7887                 5.7472                 7.4366
 Frc consts  --      0.5740                 0.7565                 1.0286
 IR Inten    --      1.8573                18.7747                60.3286

                     19                     20                     21
                      A                      A                      A
 Frequencies --    502.1874               582.0180               614.3836
 Red. masses --      5.1935                 6.5302                 5.8987
 Frc consts  --      0.7717                 1.3033                 1.3119
 IR Inten    --      3.8355                 3.6852                 3.1135

                     22                     23                     24
                      A                      A                      A
 Frequencies --    632.6280               645.2530               665.8141
 Red. masses --      4.7961                 7.0745                 4.5164
 Frc consts  --      1.1309                 1.7354                 1.1796
 IR Inten    --     25.9976                 6.6483                54.4595

                     25                     26                     27
                      A                      A                      A
 Frequencies --    686.8114               690.6782               711.4423
 Red. masses --      5.9594                 2.5102                 1.9062
 Frc consts  --      1.6563                 0.7055                 0.5684
 IR Inten    --     18.6533                45.5776                34.7387

                     28                     29                     30
                      A                      A                      A
 Frequencies --    724.3868               752.0432               762.9425
 Red. masses --      6.4822                 2.1564                 2.8042
 Frc consts  --      2.0041                 0.7186                 0.9617
 IR Inten    --      6.6037                17.5657                12.4092

                     31                     32                     33
                      A                      A                      A
 Frequencies --    797.8265               807.5040               831.5199
 Red. masses --      2.1655                 6.8025                 2.4305
 Frc consts  --      0.8121                 2.6134                 0.9901
 IR Inten    --      7.5112                17.4412                 0.2784

                     34                     35                     36
                      A                      A                      A
 Frequencies --    864.3706               910.3876               932.5460
 Red. masses --      8.5540                 1.4254                 6.1425
 Frc consts  --      3.7655                 0.6961                 3.1473
 IR Inten    --     10.1993                 2.2692                 4.2001

                     37                     38                     39
                      A                      A                      A
 Frequencies --    956.8075               966.1020               972.8459
 Red. masses --      1.2836                 1.3621                 1.3857
 Frc consts  --      0.6924                 0.7490                 0.7727
 IR Inten    --      0.8965                 1.7615                 3.4152

                     40                     41                     42
                      A                      A                      A
 Frequencies --    976.3539              1019.7758              1069.6863
 Red. masses --      5.2643                 2.0555                 1.9072
 Frc consts  --      2.9567                 1.2595                 1.2857
 IR Inten    --     14.5594               112.5525               106.1767

                     43                     44                     45
                      A                      A                      A
 Frequencies --   1097.0733              1119.9627              1143.0288
 Red. masses --      2.0678                 1.5460                 1.8550
 Frc consts  --      1.4663                 1.1425                 1.4280
 IR Inten    --     88.5796                51.2223               435.1997

                     46                     47                     48
                      A                      A                      A
 Frequencies --   1153.7411              1181.6690              1192.1076
 Red. masses --      2.4996                 2.5032                 2.2230
 Frc consts  --      1.9603                 2.0594                 1.8613
 IR Inten    --    229.9200               672.3493               135.8788

                     49                     50                     51
                      A                      A                      A
 Frequencies --   1212.1470              1219.9920              1247.7196
 Red. masses --      3.7828                 3.0677                 2.5692
 Frc consts  --      3.2747                 2.6902                 2.3566
 IR Inten    --   2087.1973               279.8954               137.9289

                     52                     53                     54
                      A                      A                      A
 Frequencies --   1329.6523              1345.2919              1350.4355
 Red. masses --      3.1269                 3.1610                 8.0888
 Frc consts  --      3.2571                 3.3706                 8.6913
 IR Inten    --     65.1759               108.9717                99.1088

                     55                     56                     57
                      A                      A                      A
 Frequencies --   1382.3770              1421.7022              1450.4828
 Red. masses --      3.0388                 4.4023                 4.7386
 Frc consts  --      3.4214                 5.2426                 5.8739
 IR Inten    --    347.8650               208.0503                83.5113

                     58                     59                     60
                      A                      A                      A
 Frequencies --   1467.8197              1472.6272              1496.5684
 Red. masses --      3.2818                 4.5297                 5.8859
 Frc consts  --      4.1659                 5.7877                 7.7671
 IR Inten    --     95.0541                96.1861                23.9911

                     61                     62                     63
                      A                      A                      A
 Frequencies --   1502.6639              1521.5470              1567.6345
 Red. masses --      4.7383                 4.9818                 6.9887
 Frc consts  --      6.3037                 6.7953                10.1190
 IR Inten    --    405.6873                12.0122               187.1858

                     64                     65                     66
                      A                      A                      A
 Frequencies --   1596.9015              1612.6172              3095.4326
 Red. masses --      5.5511                 7.3669                 1.0829
 Frc consts  --      8.3404                11.2876                 6.1135
 IR Inten    --     22.6692                67.1800                40.0958

                     67                     68                     69
                      A                      A                      A
 Frequencies --   3119.1398              3122.5359              3159.2766
 Red. masses --      1.0906                 1.0856                 1.0907
 Frc consts  --      6.2518                 6.2367                 6.4139
 IR Inten    --    131.4299                44.4835                31.7724

                     70                     71                     72
                      A                      A                      A
 Frequencies --   3160.0051              3165.1178              3182.9379
 Red. masses --      1.0908                 1.0910                 1.0910
 Frc consts  --      6.4176                 6.4397                 6.5121
 IR Inten    --     45.3637                40.1960                24.4342

 - Thermochemistry -
 -------------------
 Temperature   298.150 Kelvin.  Pressure   1.00000 Atm.
 Atom     1 has atomic number  8 and mass  15.99491

 Molecular mass:   253.03751 amu.
 Principal axes and moments of inertia in atomic units:
                           1         2         3
     Eigenvalues --  2614.327805789.573718161.02484
           X            0.94536  -0.32359   0.03980
           Y            0.32504   0.94495  -0.03769
           Z           -0.02541   0.04856   0.99850
 This molecule is an asymmetric top.
 Rotational symmetry number  1.
 Warning -- assumption of classical behavior for rotation
           may cause significant error
 Rotational temperatures (Kelvin)      0.03313     0.01496     0.01061
 Rotational constants (GHZ):           0.69033     0.31172     0.22114
 Zero-point vibrational energy     461320.3 (Joules/Mol)
                                  110.25820 (Kcal/Mol)
 Warning -- explicit consideration of  21 degrees of freedom as
           vibrations may cause significant error
 Vibrational temperatures:     63.46    78.93   136.86   188.00   226.59
          (Kelvin)            264.73   274.49   324.78   383.86   449.66
                              484.29   519.48   534.10   576.66   604.58
                              648.98   680.05   697.13   722.54   837.39
                              883.96   910.21   928.38   957.96   988.17
                              993.73  1023.61  1042.23  1082.02  1097.70
                             1147.89  1161.82  1196.37  1243.64  1309.84
                             1341.73  1376.63  1390.01  1399.71  1404.76
                             1467.23  1539.04  1578.44  1611.38  1644.56
                             1659.98  1700.16  1715.18  1744.01  1755.30
                             1795.19  1913.07  1935.58  1942.98  1988.93
                             2045.51  2086.92  2111.87  2118.78  2153.23
                             2162.00  2189.17  2255.48  2297.59  2320.20
                             4453.64  4487.75  4492.63  4545.49  4546.54
                             4553.90  4579.54

 Zero-point correction=                           0.175708 (Hartree/Particle)
 Thermal correction to Energy=                    0.189673
 Thermal correction to Enthalpy=                  0.190617
 Thermal correction to Gibbs Free Energy=         0.134592
 Sum of electronic and zero-point Energies=           -893.331722
 Sum of electronic and thermal Energies=              -893.317757
 Sum of electronic and thermal Enthalpies=            -893.316812
 Sum of electronic and thermal Free Energies=         -893.372837

                     E (Thermal)             CV                S
                      KCal/Mol        Cal/Mol-Kelvin    Cal/Mol-Kelvin
 Total                  119.021             55.934            117.914
 Electronic               0.000              0.000              0.000
 Translational            0.889              2.981             42.485
 Rotational               0.889              2.981             33.179
 Vibrational            117.244             49.972             42.249
 Vibration     1          0.595              1.980              5.066
 Vibration     2          0.596              1.976              4.634
 Vibration     3          0.603              1.953              3.552
 Vibration     4          0.612              1.923              2.936
 Vibration     5          0.621              1.894              2.580
 Vibration     6          0.631              1.862              2.287
 Vibration     7          0.634              1.853              2.220
 Vibration     8          0.650              1.802              1.913
 Vibration     9          0.672              1.734              1.617
 Vibration    10          0.701              1.650              1.349
 Vibration    11          0.717              1.602              1.228
 Vibration    12          0.735              1.552              1.118
 Vibration    13          0.743              1.531              1.075
 Vibration    14          0.767              1.468              0.960
 Vibration    15          0.783              1.426              0.891
 Vibration    16          0.810              1.359              0.793
 Vibration    17          0.830              1.311              0.730
 Vibration    18          0.841              1.284              0.698
 Vibration    19          0.858              1.245              0.653
 Vibration    20          0.939              1.070              0.482
 Vibration    21          0.974              1.001              0.426

 Optimization completed.
    -- Stationary point found.
 Normal termination of Gaussian 16 at Wed Dec 27 21:56:09 2023.
