 Q-Chem 5.4, Q-Chem, Inc., Pleasanton, CA (2021)
 Q-Chem 5.4.0 for Intel X86 EM64T Linux

User input:
--------------------------------------------------------------
$molecule
-2 1
O                  2.0380320000      2.8930720000     -1.1504750000
N                  2.7122360000      2.2859680000     -0.3074320000
O                  3.7216050000      2.8037290000      0.2542440000
C                  2.3888290000      0.9070010000     -0.0119320000
C                  3.4890500000      0.0704110000      0.0494500000
C                  3.3243900000     -1.3254080000      0.0316230000
C                  2.0424430000     -1.8527880000     -0.0877600000
C                  0.8993710000     -1.0461870000     -0.1106830000
C                 -0.3952540000     -1.7183890000     -0.1954520000
O                 -0.5125260000     -2.9797630000     -0.3366970000
C                 -1.5440790000     -0.8398170000     -0.0636490000
C                 -2.8484670000     -1.3826470000     -0.1454540000
C                 -3.9763050000     -0.5982230000     -0.0048240000
C                 -3.8292110000      0.7938890000      0.2331580000
C                 -2.5680240000      1.3467030000      0.3266720000
C                 -1.3911730000      0.5697990000      0.1818790000
C                 -0.0950690000      1.2419610000      0.2987650000
O                 -0.0176550000      2.4687500000      0.6355310000
C                  1.0341220000      0.4045130000      0.0236270000
H                  4.4745590000      0.5200960000      0.0360190000
H                  4.1954180000     -1.9754660000      0.0458950000
H                  1.8783920000     -2.9233140000     -0.1634860000
H                 -2.9206900000     -2.4514310000     -0.3217820000
H                 -4.9682080000     -1.0406840000     -0.0743640000
H                 -4.7112160000      1.4229020000      0.3420010000
H                 -2.4205710000      2.4053230000      0.5151250000
$end
$rem
MAX_SCF_CYCLES=200
BASIS  =  6-311++G(d,p)
GUI  =  2
JOB_TYPE  =  SP
METHOD  =  B3LYP
SOLVENT_METHOD = PCM
$end
$pcm
theory = CPCM
$end
$solvent
dielectric 37.219
opticaldielectric 1.43
$end

--------------------------------------------------------------

             Standard Nuclear Orientation (Angstroms)
    I     Atom           X                Y                Z
 ----------------------------------------------------------------
    1      O       2.0380320000     2.8930720000    -1.1504750000
    2      N       2.7122360000     2.2859680000    -0.3074320000
    3      O       3.7216050000     2.8037290000     0.2542440000
    4      C       2.3888290000     0.9070010000    -0.0119320000
    5      C       3.4890500000     0.0704110000     0.0494500000
    6      C       3.3243900000    -1.3254080000     0.0316230000
    7      C       2.0424430000    -1.8527880000    -0.0877600000
    8      C       0.8993710000    -1.0461870000    -0.1106830000
    9      C      -0.3952540000    -1.7183890000    -0.1954520000
   10      O      -0.5125260000    -2.9797630000    -0.3366970000
   11      C      -1.5440790000    -0.8398170000    -0.0636490000
   12      C      -2.8484670000    -1.3826470000    -0.1454540000
   13      C      -3.9763050000    -0.5982230000    -0.0048240000
   14      C      -3.8292110000     0.7938890000     0.2331580000
   15      C      -2.5680240000     1.3467030000     0.3266720000
   16      C      -1.3911730000     0.5697990000     0.1818790000
   17      C      -0.0950690000     1.2419610000     0.2987650000
   18      O      -0.0176550000     2.4687500000     0.6355310000
   19      C       1.0341220000     0.4045130000     0.0236270000
   20      H       4.4745590000     0.5200960000     0.0360190000
   21      H       4.1954180000    -1.9754660000     0.0458950000
   22      H       1.8783920000    -2.9233140000    -0.1634860000
   23      H      -2.9206900000    -2.4514310000    -0.3217820000
   24      H      -4.9682080000    -1.0406840000    -0.0743640000
   25      H      -4.7112160000     1.4229020000     0.3420010000
   26      H      -2.4205710000     2.4053230000     0.5151250000
 ----------------------------------------------------------------

   10    -893.7716219688      8.37e-06  Convergence criterion met
 Total energy in the final basis set =     -893.7716219688

                    Orbital Energies (a.u.)
 --------------------------------------------------------------

 Alpha MOs
 -- Occupied --
-19.1223 -19.1134 -19.0524 -19.0337 -14.4965 -10.2076 -10.2034 -10.1895
-10.1757 -10.1667 -10.1631 -10.1610 -10.1604 -10.1596 -10.1580 -10.1576
-10.1557 -10.1554 -10.1535  -1.1776  -1.0051  -0.9722  -0.9560  -0.8537
 -0.8387  -0.7822  -0.7658  -0.7362  -0.7239  -0.6791  -0.6489  -0.6151
 -0.6052  -0.5621  -0.5414  -0.5271  -0.5164  -0.4911  -0.4856  -0.4809
 -0.4553  -0.4476  -0.4407  -0.4321  -0.4104  -0.3982  -0.3926  -0.3917
 -0.3822  -0.3664  -0.3557  -0.3480  -0.3466  -0.3318  -0.3203  -0.3191
 -0.2889  -0.2859  -0.2740  -0.2453  -0.2432  -0.2363  -0.2307  -0.2253
 -0.2091  -0.1237

          Ground-State Mulliken Net Atomic Charges

     Atom                 Charge (a.u.)
  ----------------------------------------
      1 O                    -0.170381
      2 N                    -0.139016
      3 O                    -0.221291
      4 C                    -0.211121
      5 C                    -0.054364
      6 C                    -0.682305
      7 C                    -0.146650
      8 C                     0.858039
      9 C                    -0.169766
     10 O                    -0.563033
     11 C                     0.328850
     12 C                     0.038344
     13 C                    -0.565178
     14 C                    -0.525157
     15 C                     0.019236
     16 C                     0.024607
     17 C                    -0.555641
     18 O                    -0.604217
     19 C                     0.055075
     20 H                     0.231460
     21 H                     0.193475
     22 H                     0.163559
     23 H                     0.161652
     24 H                     0.185915
     25 H                     0.186837
     26 H                     0.161070
  ----------------------------------------
  Sum of atomic charges =    -2.000000

                    Cartesian Multipole Moments
 -----------------------------------------------------------------
    Charge (ESU x 10^10)
                -9.6064
    Dipole Moment (Debye)
         X      -5.8709      Y      -8.8136      Z       0.2058
       Tot      10.5920
    Quadrupole Moments (Debye-Ang)
        XX    -142.5961     XY     -33.6541     YY    -188.1103
        XZ       0.2921     YZ      -2.9258     ZZ    -123.7295

 Total job time:  190.89s(wall), 405.82s(cpu)
        *  Thank you very much for using Q-Chem.  Have a nice day.  *
