 Gaussian 16, Revision A.03,
 Gaussian 16:  ES64L-G16RevA.03 25-Dec-2016

 ----------------------------------------------------------------------
 #P UB3LYP/6-311++G(d,p) nosym opt freq SCRF=(PCM,Solvent=n,n-DiMethylF
 ormamide)
 ----------------------------------------------------------------------

 --------
 Oxidized
 --------
 Symbolic Z-matrix:
 Charge =  0 Multiplicity = 1

 SCF Done:  E(UB3LYP) =  -767.607556006     A.U. after   14 cycles
 SCF Done:  E(UB3LYP) =  -767.607655918     A.U. after   11 cycles
 SCF Done:  E(UB3LYP) =  -767.607690004     A.U. after   12 cycles
 SCF Done:  E(UB3LYP) =  -767.607759231     A.U. after   11 cycles
 SCF Done:  E(UB3LYP) =  -767.607863626     A.U. after   12 cycles
 SCF Done:  E(UB3LYP) =  -767.607913290     A.U. after   13 cycles
 SCF Done:  E(UB3LYP) =  -767.607949001     A.U. after   13 cycles
 SCF Done:  E(UB3LYP) =  -767.607972899     A.U. after   12 cycles
 SCF Done:  E(UB3LYP) =  -767.607982721     A.U. after   12 cycles
 SCF Done:  E(UB3LYP) =  -767.607985353     A.U. after   12 cycles
 SCF Done:  E(UB3LYP) =  -767.607987915     A.U. after   11 cycles
 SCF Done:  E(UB3LYP) =  -767.607987965     A.U. after   10 cycles
 Optimization completed.
    -- Stationary point found.
 Normal termination of Gaussian 16 at Sat Feb 10 16:36:57 2024.

 ----------------------------------------------------------------------
 #P Geom=AllCheck Guess=TCheck SCRF=Check GenChk UB3LYP/6-311++G(d,p) F
 req
 ----------------------------------------------------------------------

 Structure from the checkpoint file:  "128.chk"
 --------
 Oxidized
 --------
 Charge =  0 Multiplicity = 1

                          Input orientation:
 ---------------------------------------------------------------------
 Center     Atomic      Atomic             Coordinates (Angstroms)
 Number     Number       Type             X           Y           Z
 ---------------------------------------------------------------------
      1          6           0       -3.403820    3.603425    0.057017
      2          6           0       -4.587072    2.863386   -0.066809
      3          6           0       -4.600459    1.471846   -0.031790
      4          6           0       -2.189111    2.889650    0.196868
      5          6           0       -2.206337    1.478320    0.206563
      6          6           0       -3.407934    0.775533    0.107825
      7          6           0       -0.885422    3.598494    0.379395
      8          6           0        0.380677    2.838567    0.144874
      9          6           0        0.342191    1.427627    0.154403
     10          6           0       -0.944470    0.696450    0.309848
     11          6           0        1.616246    3.503728   -0.043549
     12          6           0        2.763183    2.717435   -0.214808
     13          6           0        2.722602    1.326411   -0.180229
     14          6           0        1.509959    0.677777    0.007577
     15          8           0       -0.855093    4.771444    0.729888
     16          8           0       -0.965180   -0.517681    0.477232
     17          6           0       -3.507740    5.108667    0.011279
     18          1           0       -5.521770    3.398802   -0.191847
     19          1           0       -5.538847    0.937121   -0.121575
     20          1           0       -3.387136   -0.306147    0.130626
     21          6           0        1.778005    5.003731   -0.092600
     22          1           0        1.447152   -0.402271    0.031835
     23          1           0        3.712730    3.215397   -0.377128
     24          1           0        3.634625    0.754955   -0.307580
     25          1           0       -4.510654    5.398178   -0.307315
     26          1           0       -2.780617    5.547820   -0.673403
     27          1           0       -3.314775    5.549517    0.991539
     28          1           0        1.042915    5.472710   -0.748405
     29          1           0        2.778516    5.254068   -0.449627
     30          1           0        1.640545    5.449729    0.894663
 ---------------------------------------------------------------------

 SCF Done:  E(UB3LYP) =  -767.607987965     A.U. after    1 cycles

 Alpha  occ. eigenvalues --  -19.12874 -19.12656 -10.28128 -10.28099 -10.21099
 Alpha  occ. eigenvalues --  -10.21098 -10.20865 -10.20863 -10.20641 -10.20640
 Alpha  occ. eigenvalues --  -10.19565 -10.19565 -10.19381 -10.19380 -10.19325
 Alpha  occ. eigenvalues --  -10.19324 -10.16942 -10.16941  -1.06274  -1.06078
 Alpha  occ. eigenvalues --   -0.89341  -0.88255  -0.81366  -0.79550  -0.79369
 Alpha  occ. eigenvalues --   -0.76806  -0.71601  -0.70123  -0.68085  -0.65244
 Alpha  occ. eigenvalues --   -0.64263  -0.59474  -0.57087  -0.55544  -0.54848
 Alpha  occ. eigenvalues --   -0.50251  -0.49195  -0.48704  -0.48643  -0.46019
 Alpha  occ. eigenvalues --   -0.45715  -0.44515  -0.44397  -0.43092  -0.42756
 Alpha  occ. eigenvalues --   -0.42680  -0.42548  -0.40361  -0.39588  -0.39495
 Alpha  occ. eigenvalues --   -0.37971  -0.37619  -0.37384  -0.37080  -0.36349
 Alpha  occ. eigenvalues --   -0.36084  -0.28791  -0.28395  -0.27351  -0.26944
 Alpha  occ. eigenvalues --   -0.26833  -0.26539
 Alpha virt. eigenvalues --   -0.11422  -0.06986  -0.03526  -0.02405  -0.00796
 Alpha virt. eigenvalues --    0.00138   0.00479   0.01492   0.01733   0.02337
 Alpha virt. eigenvalues --    0.02863   0.03337   0.03564   0.03741   0.03934

  Beta  occ. eigenvalues --  -19.12874 -19.12656 -10.28128 -10.28099 -10.21099
  Beta  occ. eigenvalues --  -10.21098 -10.20865 -10.20863 -10.20641 -10.20640
  Beta  occ. eigenvalues --  -10.19565 -10.19565 -10.19381 -10.19380 -10.19325
  Beta  occ. eigenvalues --  -10.19324 -10.16942 -10.16941  -1.06274  -1.06078
  Beta  occ. eigenvalues --   -0.89341  -0.88255  -0.81366  -0.79550  -0.79369
  Beta  occ. eigenvalues --   -0.76806  -0.71601  -0.70123  -0.68085  -0.65244
  Beta  occ. eigenvalues --   -0.64263  -0.59474  -0.57087  -0.55544  -0.54848
  Beta  occ. eigenvalues --   -0.50251  -0.49195  -0.48704  -0.48643  -0.46019
  Beta  occ. eigenvalues --   -0.45715  -0.44515  -0.44397  -0.43092  -0.42756
  Beta  occ. eigenvalues --   -0.42680  -0.42548  -0.40361  -0.39588  -0.39495
  Beta  occ. eigenvalues --   -0.37971  -0.37619  -0.37384  -0.37080  -0.36349
  Beta  occ. eigenvalues --   -0.36084  -0.28791  -0.28395  -0.27351  -0.26944
  Beta  occ. eigenvalues --   -0.26833  -0.26539
  Beta virt. eigenvalues --   -0.11422  -0.06986  -0.03526  -0.02405  -0.00796
  Beta virt. eigenvalues --    0.00138   0.00479   0.01492   0.01733   0.02337
  Beta virt. eigenvalues --    0.02863   0.03337   0.03564   0.03741   0.03934

 Mulliken charges and spin densities:
               1          2
     1  C    0.614185   0.000000
     2  C   -0.579011  -0.000000
     3  C   -0.452357  -0.000000
     4  C    0.524869   0.000000
     5  C    0.556235   0.000000
     6  C    0.190020   0.000000
     7  C   -1.705972  -0.000000
     8  C    0.526148   0.000000
     9  C    0.557593   0.000000
    10  C   -0.698873   0.000000
    11  C    0.615065  -0.000000
    12  C   -0.578749  -0.000000
    13  C   -0.452532  -0.000000
    14  C    0.190653  -0.000000
    15  O   -0.227304   0.000000
    16  O   -0.275692   0.000000
    17  C   -0.478794   0.000000
    18  H    0.158497   0.000000
    19  H    0.214876  -0.000000
    20  H    0.187957   0.000000
    21  C   -0.478083  -0.000000
    22  H    0.187993  -0.000000
    23  H    0.158312   0.000000
    24  H    0.214894   0.000000
    25  H    0.158436   0.000000
    26  H    0.163688   0.000000
    27  H    0.192924   0.000000
    28  H    0.163728  -0.000000
    29  H    0.158373   0.000000
    30  H    0.192922   0.000000
 Sum of Mulliken charges =  -0.00000   0.00000

 Dipole moment (field-independent basis, Debye):
    X=             -0.0052    Y=              1.6954    Z=             -1.8982  Tot=              2.5451
 Quadrupole moment (field-independent basis, Debye-Ang):
   XX=            -75.1810   YY=           -106.2347   ZZ=           -108.4939
   XY=             -2.3629   XZ=              1.0586   YZ=             -5.2519

  Exact polarizability: 367.715  -0.891 323.457  -4.575   0.471 139.633
 Approx polarizability: 396.028   0.150 401.185  -4.574   2.550 166.842

                      1                      2                      3
                      A                      A                      A
 Frequencies --     37.0567                55.5751                76.0475
 Red. masses --      6.4592                 3.5403                 4.9631
 Frc consts  --      0.0052                 0.0064                 0.0169
 IR Inten    --     10.3251                 0.0478                 0.5688

                      4                      5                      6
                      A                      A                      A
 Frequencies --    153.3335               190.7839               194.8199
 Red. masses --      6.8100                 2.1234                 2.5466
 Frc consts  --      0.0943                 0.0455                 0.0569
 IR Inten    --      1.5347                 0.5589                 0.4111

                      7                      8                      9
                      A                      A                      A
 Frequencies --    210.6518               214.3277               228.6735
 Red. masses --      2.8371                 1.2159                 1.4762
 Frc consts  --      0.0742                 0.0329                 0.0455
 IR Inten    --      5.8389                 0.7448                 0.1116

                     10                     11                     12
                      A                      A                      A
 Frequencies --    249.4733               299.5427               340.0047
 Red. masses --      4.2813                 4.5537                 5.1050
 Frc consts  --      0.1570                 0.2407                 0.3477
 IR Inten    --      0.0515                 0.0206                 0.7733

                     13                     14                     15
                      A                      A                      A
 Frequencies --    354.8319               399.9270               413.8502
 Red. masses --      6.4178                11.5844                 3.9133
 Frc consts  --      0.4761                 1.0917                 0.3949
 IR Inten    --      0.7605                48.4290                 0.0356

                     16                     17                     18
                      A                      A                      A
 Frequencies --    424.8535               436.0997               473.0715
 Red. masses --      5.2850                 3.7254                 5.5382
 Frc consts  --      0.5620                 0.4174                 0.7303
 IR Inten    --      2.1082                 0.0002                 5.0293

                     19                     20                     21
                      A                      A                      A
 Frequencies --    495.5392               500.1406               529.5955
 Red. masses --      3.8776                 4.8205                 3.7245
 Frc consts  --      0.5610                 0.7104                 0.6155
 IR Inten    --      0.0427                 7.9768                 0.3807

                     22                     23                     24
                      A                      A                      A
 Frequencies --    549.9528               556.7320               628.4093
 Red. masses --      5.7590                 4.5843                 5.5058
 Frc consts  --      1.0262                 0.8372                 1.2810
 IR Inten    --      6.5061                 1.5928                 2.4547

                     25                     26                     27
                      A                      A                      A
 Frequencies --    678.9969               699.0488               739.4733
 Red. masses --      4.5228                 6.3418                 3.7170
 Frc consts  --      1.2285                 1.8259                 1.1975
 IR Inten    --      8.9577                 5.5391                 0.5247

                     28                     29                     30
                      A                      A                      A
 Frequencies --    746.3203               787.2917               803.2032
 Red. masses --      2.3698                 6.0456                 1.4386
 Frc consts  --      0.7777                 2.2078                 0.5468
 IR Inten    --    108.8709                 0.0308                17.9809

                     31                     32                     33
                      A                      A                      A
 Frequencies --    811.5656               821.4978               844.5777
 Red. masses --      4.7454                 2.6454                 3.3647
 Frc consts  --      1.8415                 1.0518                 1.4141
 IR Inten    --     72.4259                30.1508                14.9007

                     34                     35                     36
                      A                      A                      A
 Frequencies --    920.1338               929.4051               945.0350
 Red. masses --      5.7567                 3.9151                 1.3335
 Frc consts  --      2.8716                 1.9925                 0.7017
 IR Inten    --     29.1521                 5.8276                 0.0572

                     37                     38                     39
                      A                      A                      A
 Frequencies --    950.6134               996.9996              1015.2057
 Red. masses --      1.4057                 1.9684                 1.3401
 Frc consts  --      0.7484                 1.1528                 0.8137
 IR Inten    --      1.2599                64.6127                 0.8466

                     40                     41                     42
                      A                      A                      A
 Frequencies --   1016.2492              1037.3058              1047.6977
 Red. masses --      1.3443                 1.7044                 2.5815
 Frc consts  --      0.8180                 1.0805                 1.6695
 IR Inten    --      0.7126                 0.6958                42.9607

                     43                     44                     45
                      A                      A                      A
 Frequencies --   1056.6343              1057.6697              1097.5126
 Red. masses --      1.6399                 1.5987                 2.4174
 Frc consts  --      1.0787                 1.0537                 1.7156
 IR Inten    --     18.4629                13.4659                 0.4385

                     46                     47                     48
                      A                      A                      A
 Frequencies --   1126.7750              1172.1686              1188.3804
 Red. masses --      1.5857                 2.2399                 1.2048
 Frc consts  --      1.1862                 1.8132                 1.0025
 IR Inten    --      9.5518                10.8035                 1.8389

                     49                     50                     51
                      A                      A                      A
 Frequencies --   1190.8274              1231.1883              1248.0743
 Red. masses --      1.3146                 3.5752                 3.5949
 Frc consts  --      1.0983                 3.1930                 3.2993
 IR Inten    --      0.4166                43.2198               296.0554

                     52                     53                     54
                      A                      A                      A
 Frequencies --   1267.8538              1269.0993              1322.9170
 Red. masses --      2.0458                 3.0595                 3.8444
 Frc consts  --      1.9375                 2.9033                 3.9641
 IR Inten    --      0.4161               512.4448               279.3105

                     55                     56                     57
                      A                      A                      A
 Frequencies --   1343.9403              1344.2519              1411.1031
 Red. masses --      7.0778                 6.9808                 1.2228
 Frc consts  --      7.5320                 7.4322                 1.4346
 IR Inten    --    179.6723                 2.9769                 7.0885

                     58                     59                     60
                      A                      A                      A
 Frequencies --   1412.0520              1442.0497              1452.4345
 Red. masses --      1.2211                 2.3098                 1.9329
 Frc consts  --      1.4345                 2.8300                 2.4025
 IR Inten    --      9.0091                94.0768                 5.1202

                     61                     62                     63
                      A                      A                      A
 Frequencies --   1470.9131              1472.1500              1481.9358
 Red. masses --      1.0799                 1.0991                 1.9361
 Frc consts  --      1.3766                 1.4035                 2.5052
 IR Inten    --      0.8480                17.1842                 7.3814

                     64                     65                     66
                      A                      A                      A
 Frequencies --   1485.9368              1492.2086              1493.4326
 Red. masses --      1.3628                 2.1113                 1.5936
 Frc consts  --      1.7730                 2.7698                 2.0941
 IR Inten    --      6.4698                 0.1541                 3.4680

                     67                     68                     69
                      A                      A                      A
 Frequencies --   1601.5109              1601.6036              1620.3760
 Red. masses --      5.7353                 6.1972                 5.6399
 Frc consts  --      8.6670                 9.3660                 8.7248
 IR Inten    --    239.1599                 3.1698                 1.8466

                     70                     71                     72
                      A                      A                      A
 Frequencies --   1620.8578              1690.7385              1696.0001
 Red. masses --      6.8456                11.7120                11.7646
 Frc consts  --     10.5962                19.7257                19.9379
 IR Inten    --    136.6700               108.6348               706.2502

                     73                     74                     75
                      A                      A                      A
 Frequencies --   3042.3430              3042.5718              3100.0737
 Red. masses --      1.0355                 1.0355                 1.0998
 Frc consts  --      5.6471                 5.6479                 6.2276
 IR Inten    --     17.2635                39.4177                 6.4287

                     76                     77                     78
                      A                      A                      A
 Frequencies --   3100.8465              3112.8423              3113.4530
 Red. masses --      1.0999                 1.1032                 1.1031
 Frc consts  --      6.2309                 6.2983                 6.3003
 IR Inten    --     27.6949                72.3314                 6.3830

                     79                     80                     81
                      A                      A                      A
 Frequencies --   3170.7970              3170.9214              3187.1302
 Red. masses --      1.0882                 1.0881                 1.0927
 Frc consts  --      6.4460                 6.4460                 6.5397
 IR Inten    --      9.7447                12.7111                39.5545

                     82                     83                     84
                      A                      A                      A
 Frequencies --   3187.2466              3206.5394              3207.0364
 Red. masses --      1.0927                 1.0938                 1.0940
 Frc consts  --      6.5401                 6.6259                 6.6294
 IR Inten    --      2.6205                17.9695                 3.1325

 - Thermochemistry -
 -------------------
 Temperature   298.150 Kelvin.  Pressure   1.00000 Atm.
 Atom     1 has atomic number  6 and mass  12.00000

 Molecular mass:   236.08373 amu.
 Principal axes and moments of inertia in atomic units:
                           1         2         3
     Eigenvalues --  2479.410904821.798237179.51171
           X            0.99960   0.01969   0.02026
           Y           -0.01984   0.99978   0.00713
           Z           -0.02011  -0.00753   0.99977
 This molecule is an asymmetric top.
 Rotational symmetry number  1.
 Warning -- assumption of classical behavior for rotation
           may cause significant error
 Rotational temperatures (Kelvin)      0.03493     0.01796     0.01206
 Rotational constants (GHZ):           0.72789     0.37429     0.25137
 Zero-point vibrational energy     614930.3 (Joules/Mol)
                                  146.97186 (Kcal/Mol)
 Warning -- explicit consideration of  23 degrees of freedom as
           vibrations may cause significant error
 Vibrational temperatures:     53.32    79.96   109.42   220.61   274.50
          (Kelvin)            280.30   303.08   308.37   329.01   358.94
                              430.98   489.19   510.52   575.41   595.44
                              611.27   627.45   680.64   712.97   719.59
                              761.97   791.26   801.01   904.14   976.93
                             1005.78  1063.94  1073.79  1132.74  1155.63
                             1167.66  1181.95  1215.16  1323.87  1337.21
                             1359.69  1367.72  1434.46  1460.65  1462.16
                             1492.45  1507.40  1520.26  1521.75  1579.08
                             1621.18  1686.49  1709.81  1713.33  1771.41
                             1795.70  1824.16  1825.95  1903.38  1933.63
                             1934.08  2030.26  2031.63  2074.79  2089.73
                             2116.32  2118.10  2132.18  2137.93  2146.96
                             2148.72  2304.22  2304.35  2331.36  2332.05
                             2432.60  2440.17  4377.25  4377.58  4460.31
                             4461.43  4478.69  4479.56  4562.07  4562.25
                             4585.57  4585.74  4613.50  4614.21

 Zero-point correction=                           0.234215 (Hartree/Particle)
 Thermal correction to Energy=                    0.248596
 Thermal correction to Enthalpy=                  0.249540
 Thermal correction to Gibbs Free Energy=         0.192937
 Sum of electronic and zero-point Energies=           -767.373773
 Sum of electronic and thermal Energies=              -767.359392
 Sum of electronic and thermal Enthalpies=            -767.358448
 Sum of electronic and thermal Free Energies=         -767.415051

                     E (Thermal)             CV                S
                      KCal/Mol        Cal/Mol-Kelvin    Cal/Mol-Kelvin
 Total                  155.996             57.450            119.131
 Electronic               0.000              0.000              0.000
 Translational            0.889              2.981             42.279
 Rotational               0.889              2.981             32.817
 Vibrational            154.219             51.489             44.035
 Vibration     1          0.594              1.982              5.411
 Vibration     2          0.596              1.975              4.608
 Vibration     3          0.599              1.965              3.990
 Vibration     4          0.619              1.899              2.630
 Vibration     5          0.634              1.853              2.220
 Vibration     6          0.635              1.847              2.181
 Vibration     7          0.643              1.825              2.038
 Vibration     8          0.644              1.819              2.006
 Vibration     9          0.651              1.797              1.889
 Vibration    10          0.662              1.764              1.734
 Vibration    11          0.692              1.675              1.419
 Vibration    12          0.720              1.596              1.212
 Vibration    13          0.731              1.565              1.145
 Vibration    14          0.766              1.470              0.963
 Vibration    15          0.777              1.440              0.913
 Vibration    16          0.787              1.416              0.876
 Vibration    17          0.797              1.392              0.839
 Vibration    18          0.830              1.310              0.729
 Vibration    19          0.851              1.260              0.669
 Vibration    20          0.856              1.250              0.658
 Vibration    21          0.885              1.185              0.588
 Vibration    22          0.905              1.140              0.544
 Vibration    23          0.912              1.125              0.530

                           ! Non-Optimized Parameters !
 Normal termination of Gaussian 16 at Sat Feb 10 17:19:35 2024.
