 Q-Chem 5.4, Q-Chem, Inc., Pleasanton, CA (2021)
 Q-Chem 5.4.0 for Intel X86 EM64T Linux

User input:
--------------------------------------------------------------
$molecule
-1 2
C                  4.0245770000      2.6059620000     -0.4359410000
C                  3.5542100000      1.2271720000     -0.4941440000
C                  3.0873660000      0.5828770000      0.6320820000
C                  3.0175480000      1.2443400000      1.9252280000
C                  3.5281090000      2.6061320000      1.9904730000
C                  4.0047690000      3.2501450000      0.8712210000
O                  4.4337820000      3.2229430000     -1.4627980000
O                  2.5382740000      0.6653150000      2.9452240000
C                  5.7333490000      4.8591740000      0.6215670000
C                  4.1596790000      2.7445940000      4.2759190000
H                  5.8617250000      5.9346690000      0.7654620000
H                  5.9278320000      4.5921320000     -0.4187930000
H                  6.4309480000      4.3259200000      1.2831040000
H                  3.9926340000      3.4184060000      5.1196690000
H                  5.2369150000      2.7050020000      4.0601080000
C                  2.5796730000     -0.8486830000      0.5973800000
C                  1.0924460000     -0.9224230000      0.3583550000
C                  0.4118210000     -1.6537990000     -0.5360240000
C                 -1.1001890000     -1.5673680000     -0.5970660000
C                 -1.8318340000     -2.8679040000     -0.1752530000
C                 -3.3251590000     -2.7012640000     -0.1536720000
C                 -4.2544850000     -3.2822220000     -0.9262770000
C                 -5.7194740000     -2.9359120000     -0.7478360000
C                 -6.3211230000     -2.1077810000     -1.9114560000
C                 -7.7874550000     -1.8355680000     -1.7224350000
C                 -8.4056750000     -0.6598910000     -1.5465810000
C                 -9.9026270000     -0.5930660000     -1.3593900000
C                  1.0473040000     -2.5936800000     -1.5338690000
C                 -3.9553640000     -4.2982030000     -2.0025150000
C                 -7.7160850000      0.6809910000     -1.5163530000
H                  2.7746370000     -1.2819490000      1.5851920000
H                  3.1313620000     -1.4340380000     -0.1409010000
H                  0.5206740000     -0.2801150000      1.0253010000
H                 -1.4179710000     -1.3155630000     -1.6188550000
H                 -1.4392610000     -0.7493030000      0.0459730000
H                 -1.4876170000     -3.1330910000      0.8323630000
H                 -1.5345920000     -3.6889990000     -0.8311720000
H                 -3.6820980000     -1.9862560000      0.5884390000
H                 -5.8522020000     -2.3735770000      0.1809850000
H                 -6.3046930000     -3.8602720000     -0.6409410000
H                 -6.1863670000     -2.6598620000     -2.8497800000
H                 -5.7491960000     -1.1831930000     -2.0143960000
H                 -8.4135110000     -2.7285620000     -1.7138150000
H                -10.3597910000     -1.5845870000     -1.3875580000
H                -10.3697130000      0.0207600000     -2.1395070000
H                  2.1324690000     -2.4984770000     -1.5615110000
H                  0.6676180000     -2.3991410000     -2.5450980000
H                  0.8154100000     -3.6421570000     -1.3077290000
H                 -2.8960760000     -4.5445870000     -2.0672090000
H                 -4.2703080000     -3.9397320000     -2.9889350000
H                 -4.5075150000     -5.2279350000     -1.8165130000
H                 -6.6352460000      0.6132250000     -1.6326660000
H                 -7.9201750000      1.1954630000     -0.5698730000
H                 -8.1010910000      1.3302140000     -2.3121180000
H                -10.1583760000     -0.1258820000     -0.4004890000
O                  3.4500980000      3.3057840000      3.1751520000
O                  4.3853650000      4.5700900000      0.9804850000
C                  3.5927270000      0.5592460000     -1.8479400000
H                  3.7901240000      1.7450060000      4.5119720000
H                  4.3044980000     -0.2765390000     -1.8699510000
H                  3.9050430000      1.2887840000     -2.5957310000
H                  2.6137360000      0.1579860000     -2.1300660000
$end

$rem
BASIS  =  6-311++G(d,p)
GUI  =  2
JOB_TYPE  =  SP
METHOD  =  B3LYP
SCF_CONVERGENCE  = 8
SOLVENT_METHOD = sm12
$end

$smx
solvent dimethylformamide
charges CM5
$end

--------------------------------------------------------------

             Standard Nuclear Orientation (Angstroms)
    I     Atom           X                Y                Z
 ----------------------------------------------------------------
    1      C       4.0245770000     2.6059620000    -0.4359410000
    2      C       3.5542100000     1.2271720000    -0.4941440000
    3      C       3.0873660000     0.5828770000     0.6320820000
    4      C       3.0175480000     1.2443400000     1.9252280000
    5      C       3.5281090000     2.6061320000     1.9904730000
    6      C       4.0047690000     3.2501450000     0.8712210000
    7      O       4.4337820000     3.2229430000    -1.4627980000
    8      O       2.5382740000     0.6653150000     2.9452240000
    9      C       5.7333490000     4.8591740000     0.6215670000
   10      C       4.1596790000     2.7445940000     4.2759190000
   11      H       5.8617250000     5.9346690000     0.7654620000
   12      H       5.9278320000     4.5921320000    -0.4187930000
   13      H       6.4309480000     4.3259200000     1.2831040000
   14      H       3.9926340000     3.4184060000     5.1196690000
   15      H       5.2369150000     2.7050020000     4.0601080000
   16      C       2.5796730000    -0.8486830000     0.5973800000
   17      C       1.0924460000    -0.9224230000     0.3583550000
   18      C       0.4118210000    -1.6537990000    -0.5360240000
   19      C      -1.1001890000    -1.5673680000    -0.5970660000
   20      C      -1.8318340000    -2.8679040000    -0.1752530000
   21      C      -3.3251590000    -2.7012640000    -0.1536720000
   22      C      -4.2544850000    -3.2822220000    -0.9262770000
   23      C      -5.7194740000    -2.9359120000    -0.7478360000
   24      C      -6.3211230000    -2.1077810000    -1.9114560000
   25      C      -7.7874550000    -1.8355680000    -1.7224350000
   26      C      -8.4056750000    -0.6598910000    -1.5465810000
   27      C      -9.9026270000    -0.5930660000    -1.3593900000
   28      C       1.0473040000    -2.5936800000    -1.5338690000
   29      C      -3.9553640000    -4.2982030000    -2.0025150000
   30      C      -7.7160850000     0.6809910000    -1.5163530000
   31      H       2.7746370000    -1.2819490000     1.5851920000
   32      H       3.1313620000    -1.4340380000    -0.1409010000
   33      H       0.5206740000    -0.2801150000     1.0253010000
   34      H      -1.4179710000    -1.3155630000    -1.6188550000
   35      H      -1.4392610000    -0.7493030000     0.0459730000
   36      H      -1.4876170000    -3.1330910000     0.8323630000
   37      H      -1.5345920000    -3.6889990000    -0.8311720000
   38      H      -3.6820980000    -1.9862560000     0.5884390000
   39      H      -5.8522020000    -2.3735770000     0.1809850000
   40      H      -6.3046930000    -3.8602720000    -0.6409410000
   41      H      -6.1863670000    -2.6598620000    -2.8497800000
   42      H      -5.7491960000    -1.1831930000    -2.0143960000
   43      H      -8.4135110000    -2.7285620000    -1.7138150000
   44      H     -10.3597910000    -1.5845870000    -1.3875580000
   45      H     -10.3697130000     0.0207600000    -2.1395070000
   46      H       2.1324690000    -2.4984770000    -1.5615110000
   47      H       0.6676180000    -2.3991410000    -2.5450980000
   48      H       0.8154100000    -3.6421570000    -1.3077290000
   49      H      -2.8960760000    -4.5445870000    -2.0672090000
   50      H      -4.2703080000    -3.9397320000    -2.9889350000
   51      H      -4.5075150000    -5.2279350000    -1.8165130000
   52      H      -6.6352460000     0.6132250000    -1.6326660000
   53      H      -7.9201750000     1.1954630000    -0.5698730000
   54      H      -8.1010910000     1.3302140000    -2.3121180000
   55      H     -10.1583760000    -0.1258820000    -0.4004890000
   56      O       3.4500980000     3.3057840000     3.1751520000
   57      O       4.3853650000     4.5700900000     0.9804850000
   58      C       3.5927270000     0.5592460000    -1.8479400000
   59      H       3.7901240000     1.7450060000     4.5119720000
   60      H       4.3044980000    -0.2765390000    -1.8699510000
   61      H       3.9050430000     1.2887840000    -2.5957310000
   62      H       2.6137360000     0.1579860000    -2.1300660000
 ----------------------------------------------------------------

   16   -1236.2456283222      6.76e-09  Convergence criterion met
 Total energy in the final basis set =    -1236.3303768558

                    Orbital Energies (a.u.)
 --------------------------------------------------------------

 Alpha MOs
 -- Occupied --
-19.1309 -19.1306 -19.0701 -19.0696 -10.2153 -10.2145 -10.2111 -10.2105
-10.2071 -10.2069 -10.1786 -10.1769 -10.1745 -10.1710 -10.1710 -10.1708
-10.1703 -10.1684 -10.1677 -10.1655 -10.1654 -10.1639 -10.1637 -10.1635
-10.1634 -10.1633 -10.1624 -10.1601  -1.0555  -1.0372  -0.9901  -0.9876
 -0.8340  -0.8287  -0.8185  -0.8076  -0.7779  -0.7642  -0.7449  -0.7296
 -0.7043  -0.7000  -0.6935  -0.6895  -0.6824  -0.6686  -0.6435  -0.6414
 -0.6186  -0.5953  -0.5630  -0.5585  -0.5261  -0.5220  -0.5177  -0.5096
 -0.4943  -0.4859  -0.4815  -0.4719  -0.4641  -0.4618  -0.4521  -0.4428
 -0.4422  -0.4380  -0.4364  -0.4333  -0.4319  -0.4211  -0.4169  -0.4155
 -0.4125  -0.4067  -0.4006  -0.3987  -0.3925  -0.3853  -0.3851  -0.3807
 -0.3763  -0.3748  -0.3733  -0.3714  -0.3684  -0.3638  -0.3619  -0.3581
 -0.3564  -0.3493  -0.3469  -0.3386  -0.3337  -0.3325  -0.3310  -0.3175
 -0.2940  -0.2774  -0.2634  -0.2507  -0.2429  -0.2363  -0.2326  -0.2265
 -0.2182  -0.1539

 Beta MOs
 -- Occupied --
-19.1308 -19.1305 -19.0631 -19.0627 -10.2138 -10.2130 -10.2102 -10.2096
-10.2070 -10.2068 -10.1786 -10.1769 -10.1745 -10.1710 -10.1710 -10.1708
-10.1703 -10.1685 -10.1665 -10.1655 -10.1643 -10.1639 -10.1636 -10.1635
-10.1634 -10.1633 -10.1624 -10.1602  -1.0546  -1.0361  -0.9783  -0.9758
 -0.8329  -0.8268  -0.8169  -0.8070  -0.7767  -0.7636  -0.7441  -0.7285
 -0.7020  -0.6987  -0.6935  -0.6895  -0.6822  -0.6672  -0.6408  -0.6368
 -0.6179  -0.5951  -0.5602  -0.5554  -0.5259  -0.5217  -0.5173  -0.5089
 -0.4926  -0.4844  -0.4812  -0.4719  -0.4615  -0.4607  -0.4519  -0.4423
 -0.4413  -0.4359  -0.4349  -0.4332  -0.4307  -0.4197  -0.4156  -0.4143
 -0.4117  -0.4064  -0.3975  -0.3936  -0.3912  -0.3851  -0.3835  -0.3766
 -0.3754  -0.3740  -0.3712  -0.3698  -0.3683  -0.3624  -0.3572  -0.3520
 -0.3473  -0.3447  -0.3406  -0.3370  -0.3320  -0.3310  -0.3285  -0.3173
 -0.2894  -0.2752  -0.2513  -0.2438  -0.2331  -0.2311  -0.2301  -0.2217
 -0.2122

          Ground-State Mulliken Net Atomic Charges

     Atom                 Charge (a.u.)    Spin (a.u.)
  --------------------------------------------------------
      1 C                    -1.608532       0.070178
      2 C                     0.193947       0.093520
      3 C                     0.204171       0.087385
      4 C                    -1.013074       0.078602
      5 C                    -0.239755       0.071484
      6 C                    -0.806276       0.062880
      7 O                    -0.348782       0.257914
      8 O                    -0.305496       0.253291
      9 C                    -0.041558       0.002759
     10 C                    -0.032264       0.002303
     11 H                     0.232214       0.000371
     12 H                     0.131649      -0.000892
     13 H                     0.119669      -0.000123
     14 H                     0.232321       0.000041
     15 H                     0.120592      -0.000032
     16 C                    -0.109878       0.011475
     17 C                    -0.682557       0.002407
     18 C                     0.221692       0.003544
     19 C                     0.092887      -0.002643
     20 C                    -0.273553       0.000849
     21 C                    -1.075748       0.000838
     22 C                     0.830636      -0.001264
     23 C                    -0.029152       0.000195
     24 C                    -0.447269       0.000005
     25 C                     0.092049       0.000015
     26 C                    -0.038110      -0.000005
     27 C                    -0.238346       0.000001
     28 C                     0.082219      -0.003905
     29 C                    -0.173358      -0.000147
     30 C                    -0.605183       0.000005
     31 H                     0.188857       0.002497
     32 H                     0.034352      -0.000368
     33 H                     0.074293      -0.003577
     34 H                     0.199073       0.000350
     35 H                     0.152706       0.000051
     36 H                     0.168296       0.000029
     37 H                     0.066978       0.000472
     38 H                     0.143281       0.000069
     39 H                     0.213793      -0.000015
     40 H                     0.163259      -0.000003
     41 H                     0.143740      -0.000003
     42 H                     0.073087      -0.000037
     43 H                     0.184540      -0.000000
     44 H                     0.198069       0.000000
     45 H                     0.173704       0.000000
     46 H                     0.261367       0.000021
     47 H                     0.194285       0.000060
     48 H                     0.235373      -0.000116
     49 H                     0.195905      -0.000087
     50 H                     0.184571       0.000007
     51 H                     0.200618       0.000005
     52 H                     0.146419       0.000004
     53 H                     0.162774      -0.000000
     54 H                     0.169643      -0.000000
     55 H                     0.174978       0.000000
     56 O                    -0.128467       0.000219
     57 O                    -0.123448       0.000279
     58 C                     0.014394       0.003139
     59 H                     0.123762      -0.000854
     60 H                     0.225524       0.005153
     61 H                     0.161699      -0.002421
     62 H                     0.137422       0.004076
  --------------------------------------------------------
  Sum of atomic charges =    -1.000000

                    Cartesian Multipole Moments
 -----------------------------------------------------------------
    Charge (ESU x 10^10)
                -4.8032
    Dipole Moment (Debye)
         X     -14.9417      Y     -10.7922      Z      -4.0981
       Tot      18.8817
    Quadrupole Moments (Debye-Ang)
        XX    -226.0956     XY     -42.2990     YY    -216.3110
        XZ      -1.3886     YZ       2.3118     ZZ    -202.4983

 Total job time:  4582.98s(wall), 28699.37s(cpu)
        *  Thank you very much for using Q-Chem.  Have a nice day.  *
