 Gaussian 16, Revision A.03,
 Gaussian 16:  ES64L-G16RevA.03 25-Dec-2016

 ----------------------------------------------------------------
 #P UB3LYP/6-311++G(d,p) SCRF=(PCM,Solvent=n,n-DiMethylFormamide)
 ----------------------------------------------------------------

 ------------------
 Quinone PCM in DMF
 ------------------
 Symbolic Z-matrix:
 Charge =  0 Multiplicity = 1

                         Standard orientation:
 ---------------------------------------------------------------------
 Center     Atomic      Atomic             Coordinates (Angstroms)
 Number     Number       Type             X           Y           Z
 ---------------------------------------------------------------------
      1          6           0        3.008134   -1.561061   -0.000053
      2          6           0        4.246429   -0.963305    0.000028
      3          6           0        4.359257    0.446530    0.000072
      4          6           0        1.827407   -0.774328   -0.000059
      5          6           0        1.941472    0.653985    0.000031
      6          6           0        3.233344    1.237377    0.000087
      7          6           0        0.537080   -1.355025   -0.000115
      8          6           0       -0.594583   -0.566652   -0.000064
      9          6           0       -0.483696    0.857352   -0.000012
     10          6           0        0.760505    1.439913    0.000054
     11          6           0       -1.925901   -1.193333    0.000040
     12          6           0       -3.121425   -0.291102    0.000014
     13          6           0       -3.013647    1.054387   -0.000042
     14          6           0       -1.710036    1.721821   -0.000030
     15          8           0       -2.130543   -2.401796   -0.000093
     16          8           0       -1.623989    2.942384   -0.000121
     17          8           0       -4.294021   -0.932708    0.000183
     18          1           0        2.918045   -2.641903   -0.000064
     19          1           0        5.143441   -1.571715    0.000072
     20          1           0        5.342228    0.903487    0.000093
     21          1           0        3.319985    2.318363    0.000112
     22          1           0        0.427194   -2.433718   -0.000144
     23          1           0        0.826900    2.522132    0.000110
     24          1           0       -3.892820    1.687301   -0.000053
     25          1           0       -4.082599   -1.886355    0.000408
 ---------------------------------------------------------------------

 SCF Done:  E(UB3LYP) =  -764.208939520     A.U. after   15 cycles

 The electronic state is 1-A.
 Alpha  occ. eigenvalues --  -19.18619 -19.15163 -19.12702 -10.29668 -10.28200
 Alpha  occ. eigenvalues --  -10.27774 -10.21297 -10.21127 -10.21064 -10.20966
 Alpha  occ. eigenvalues --  -10.20907 -10.20360 -10.19990 -10.19645 -10.19605
 Alpha  occ. eigenvalues --  -10.19524 -10.19471  -1.11541  -1.07159  -1.06086
 Alpha  occ. eigenvalues --   -0.90677  -0.86537  -0.82593  -0.80407  -0.77140
 Alpha  occ. eigenvalues --   -0.75515  -0.70081  -0.67626  -0.64636  -0.62550
 Alpha  occ. eigenvalues --   -0.61266  -0.57272  -0.56616  -0.53555  -0.52776
 Alpha  occ. eigenvalues --   -0.49819  -0.48820  -0.47396  -0.46884  -0.46298
 Alpha  occ. eigenvalues --   -0.45757  -0.45008  -0.44111  -0.43204  -0.42872
 Alpha  occ. eigenvalues --   -0.41679  -0.40748  -0.40083  -0.39520  -0.37267
 Alpha  occ. eigenvalues --   -0.35686  -0.34903  -0.31349  -0.30623  -0.28554
 Alpha  occ. eigenvalues --   -0.28106  -0.26739  -0.24675
 Alpha virt. eigenvalues --   -0.12626  -0.08359  -0.03582  -0.01746  -0.00775
 Alpha virt. eigenvalues --   -0.00006   0.00748   0.01795   0.01989   0.02172
 Alpha virt. eigenvalues --    0.03529   0.03721   0.03791   0.04553   0.04909

  Beta  occ. eigenvalues --  -19.18619 -19.15163 -19.12702 -10.29668 -10.28200
  Beta  occ. eigenvalues --  -10.27774 -10.21297 -10.21127 -10.21064 -10.20966
  Beta  occ. eigenvalues --  -10.20907 -10.20360 -10.19990 -10.19645 -10.19605
  Beta  occ. eigenvalues --  -10.19524 -10.19471  -1.11541  -1.07159  -1.06086
  Beta  occ. eigenvalues --   -0.90677  -0.86537  -0.82593  -0.80407  -0.77140
  Beta  occ. eigenvalues --   -0.75515  -0.70081  -0.67626  -0.64636  -0.62550
  Beta  occ. eigenvalues --   -0.61266  -0.57272  -0.56616  -0.53555  -0.52776
  Beta  occ. eigenvalues --   -0.49819  -0.48820  -0.47396  -0.46884  -0.46298
  Beta  occ. eigenvalues --   -0.45757  -0.45008  -0.44111  -0.43204  -0.42872
  Beta  occ. eigenvalues --   -0.41679  -0.40748  -0.40083  -0.39520  -0.37267
  Beta  occ. eigenvalues --   -0.35686  -0.34903  -0.31349  -0.30623  -0.28554
  Beta  occ. eigenvalues --   -0.28106  -0.26739  -0.24675
  Beta virt. eigenvalues --   -0.12626  -0.08359  -0.03582  -0.01746  -0.00775
  Beta virt. eigenvalues --   -0.00006   0.00748   0.01795   0.01989   0.02172
  Beta virt. eigenvalues --    0.03529   0.03721   0.03791   0.04553   0.04909

 Mulliken charges and spin densities:
               1          2
     1  C   -0.154820  -0.000000
     2  C   -0.330222   0.000000
     3  C   -0.328887   0.000000
     4  C    0.213694   0.000000
     5  C    0.206635  -0.000000
     6  C   -0.147080  -0.000000
     7  C    0.208014   0.000000
     8  C    0.382317   0.000000
     9  C    0.328998  -0.000000
    10  C    0.203922  -0.000000
    11  C   -0.765197  -0.000000
    12  C   -0.438259   0.000000
    13  C    0.509792  -0.000000
    14  C   -0.676612   0.000000
    15  O   -0.306111   0.000000
    16  O   -0.318575  -0.000000
    17  O   -0.225074  -0.000000
    18  H    0.180601   0.000000
    19  H    0.204236  -0.000000
    20  H    0.204252   0.000000
    21  H    0.180942  -0.000000
    22  H    0.164375   0.000000
    23  H    0.153598   0.000000
    24  H    0.241731  -0.000000
    25  H    0.307728   0.000000
 Sum of Mulliken charges =  -0.00000  -0.00000

 Dipole moment (field-independent basis, Debye):
    X=              5.0745    Y=             -2.7527    Z=              0.0010  Tot=              5.7730
 Quadrupole moment (field-independent basis, Debye-Ang):
   XX=            -83.1479   YY=           -106.1937   ZZ=            -99.8449
   XY=              3.9663   XZ=             -0.0020   YZ=             -0.0006

 Normal termination of Gaussian 16 at Sat Jan 13 19:16:58 2024.
