 Gaussian 16, Revision A.03,
 Gaussian 16:  ES64L-G16RevA.03 25-Dec-2016

 --------------------------------------
 #P UB3LYP/6-311++G(d,p) nosym opt freq
 --------------------------------------

 -------
 Radical
 -------
 Symbolic Z-matrix:
 Charge = -1 Multiplicity = 2

 SCF Done:  E(UB3LYP) =  -573.660638289     A.U. after   21 cycles
 SCF Done:  E(UB3LYP) =  -573.660638319     A.U. after   10 cycles
 Optimization completed.
    -- Stationary point found.
 Normal termination of Gaussian 16 at Sat Jan  6 05:42:42 2024.

 ----------------------------------------------------------------------
 #P Geom=AllCheck Guess=TCheck SCRF=Check GenChk UB3LYP/6-311++G(d,p) F
 req
 ----------------------------------------------------------------------

 Structure from the checkpoint file:  "059-rad.chk"
 -------
 Radical
 -------
 Charge = -1 Multiplicity = 2

                          Input orientation:
 ---------------------------------------------------------------------
 Center     Atomic      Atomic             Coordinates (Angstroms)
 Number     Number       Type             X           Y           Z
 ---------------------------------------------------------------------
      1          6           0       -0.502370    1.167858   -0.363211
      2          6           0       -1.468224    0.139697   -0.799821
      3          6           0       -1.292529   -1.177863   -0.500580
      4          6           0       -0.158878   -1.674214    0.259655
      5          6           0        0.773663   -0.672401    0.695690
      6          6           0        0.630244    0.687428    0.441650
      7          8           0       -0.665435    2.353624   -0.717674
      8          8           0       -0.011031   -2.903600    0.520820
      9          6           0        1.620365    1.635766    1.003306
     10          6           0        3.006810    1.084386    1.371335
     11          8           0        1.400612    2.820654    1.210569
     12          1           0        3.417983    0.440739    0.589832
     13          1           0        2.953924    0.492584    2.291177
     14          1           0        3.668060    1.933860    1.545120
     15          1           0        1.608671   -1.043358    1.279694
     16          6           0       -2.642826    0.625466   -1.605708
     17          1           0       -2.010751   -1.923937   -0.834224
     18          1           0       -3.215006    1.374835   -1.049186
     19          1           0       -3.304124   -0.203572   -1.872670
     20          1           0       -2.308010    1.124708   -2.520805
 ---------------------------------------------------------------------

 SCF Done:  E(UB3LYP) =  -573.660638319     A.U. after    1 cycles

 Alpha  occ. eigenvalues --  -18.97191 -18.94379 -18.94356 -10.12697 -10.09601
 Alpha  occ. eigenvalues --  -10.08770 -10.05467 -10.05077 -10.04631 -10.04401
 Alpha  occ. eigenvalues --  -10.04115 -10.03801  -0.90489  -0.87049  -0.86281
 Alpha  occ. eigenvalues --   -0.70233  -0.65798  -0.61423  -0.57766  -0.54242
 Alpha  occ. eigenvalues --   -0.49168  -0.43542  -0.39775  -0.35775  -0.34583
 Alpha  occ. eigenvalues --   -0.32964  -0.32258  -0.30380  -0.29756  -0.29355
 Alpha  occ. eigenvalues --   -0.27422  -0.26914  -0.26563  -0.26226  -0.24413
 Alpha  occ. eigenvalues --   -0.23964  -0.23377  -0.22371  -0.14993  -0.13241
 Alpha  occ. eigenvalues --   -0.12935  -0.10765  -0.09135  -0.03220
 Alpha virt. eigenvalues --    0.07754   0.08873   0.09167   0.11514   0.11959
 Alpha virt. eigenvalues --    0.12307   0.13254   0.13458   0.14618   0.15119
 Alpha virt. eigenvalues --    0.15239   0.16759   0.17210   0.17631   0.18762

  Beta  occ. eigenvalues --  -18.97084 -18.93765 -18.93586 -10.12690 -10.09551
  Beta  occ. eigenvalues --  -10.08691 -10.05469 -10.04963 -10.04640 -10.04279
  Beta  occ. eigenvalues --  -10.03848 -10.03786  -0.90288  -0.86054  -0.84906
  Beta  occ. eigenvalues --   -0.69681  -0.65556  -0.61257  -0.57484  -0.53411
  Beta  occ. eigenvalues --   -0.48838  -0.43197  -0.39529  -0.35572  -0.34369
  Beta  occ. eigenvalues --   -0.32707  -0.32060  -0.30009  -0.29636  -0.29102
  Beta  occ. eigenvalues --   -0.27330  -0.26457  -0.26114  -0.25063  -0.23651
  Beta  occ. eigenvalues --   -0.23403  -0.22321  -0.20838  -0.12908  -0.12187
  Beta  occ. eigenvalues --   -0.11576  -0.10042  -0.08660
  Beta virt. eigenvalues --    0.03792   0.08818   0.09041   0.09167   0.11530
  Beta virt. eigenvalues --    0.11987   0.12383   0.13386   0.13519   0.15147
  Beta virt. eigenvalues --    0.15235   0.15828   0.17215   0.17421   0.17700

 Mulliken charges and spin densities:
               1          2
     1  C   -1.709778  -0.025272
     2  C    1.484762   0.085114
     3  C   -0.427386   0.002570
     4  C   -0.609121   0.101188
     5  C   -0.618369   0.196858
     6  C    1.763250   0.087389
     7  O   -0.320078   0.222038
     8  O   -0.400882   0.282593
     9  C   -0.034164   0.014476
    10  C   -0.572512   0.003190
    11  O   -0.277356   0.038915
    12  H    0.131316  -0.000546
    13  H    0.145803   0.001224
    14  H    0.165436  -0.000393
    15  H    0.141712  -0.013921
    16  C   -0.414665  -0.000965
    17  H    0.123360  -0.003029
    18  H    0.154753   0.003889
    19  H    0.117103  -0.000330
    20  H    0.156815   0.005011
 Sum of Mulliken charges =  -1.00000   1.00000

 Dipole moment (field-independent basis, Debye):
    X=              0.1772    Y=             -2.0180    Z=             -1.1569  Tot=              2.3328
 Quadrupole moment (field-independent basis, Debye-Ang):
   XX=            -75.3460   YY=           -121.0126   ZZ=            -77.0327
   XY=             -2.0432   XZ=             -2.5618   YZ=              1.6541

  Exact polarizability: 145.281   9.959 180.259  40.805  -4.948 101.440
 Approx polarizability: 188.505  -0.232 324.963  45.992 -20.166 148.589

                      1                      2                      3
                      A                      A                      A
 Frequencies --     38.1923                67.9723               137.9123
 Red. masses --      4.5678                 5.6930                 1.1234
 Frc consts  --      0.0039                 0.0155                 0.0126
 IR Inten    --      6.0427                 4.5594                 0.0616

                      4                      5                      6
                      A                      A                      A
 Frequencies --    141.8102               146.9558               180.7849
 Red. masses --      1.1113                 4.3582                 5.0501
 Frc consts  --      0.0132                 0.0555                 0.0972
 IR Inten    --      0.4456                 6.3239                 4.2934

                      7                      8                      9
                      A                      A                      A
 Frequencies --    201.2223               291.1838               327.8911
 Red. masses --      3.0954                 3.3030                 5.4969
 Frc consts  --      0.0738                 0.1650                 0.3482
 IR Inten    --      0.0718                 0.3378                 3.2032

                     10                     11                     12
                      A                      A                      A
 Frequencies --    330.1429               386.9719               410.9580
 Red. masses --      5.7103                 4.6143                 7.0959
 Frc consts  --      0.3667                 0.4071                 0.7061
 IR Inten    --      2.6829                 2.2851                12.0563

                     13                     14                     15
                      A                      A                      A
 Frequencies --    448.1867               471.7387               520.5313
 Red. masses --      4.8456                 7.5492                 5.6256
 Frc consts  --      0.5735                 0.9898                 0.8981
 IR Inten    --      2.4773                 1.0969                 4.4277

                     16                     17                     18
                      A                      A                      A
 Frequencies --    573.2422               600.1099               647.8932
 Red. masses --      3.0005                 3.3786                 2.8073
 Frc consts  --      0.5809                 0.7169                 0.6943
 IR Inten    --      0.8225                10.6919                 0.2334

                     19                     20                     21
                      A                      A                      A
 Frequencies --    652.2649               774.3555               798.6076
 Red. masses --      4.1142                 5.5502                 5.0283
 Frc consts  --      1.0313                 1.9608                 1.8895
 IR Inten    --      5.3417                 5.6070                18.5743

                     22                     23                     24
                      A                      A                      A
 Frequencies --    851.0838               858.2386               890.8693
 Red. masses --      3.7233                 1.6588                 1.5638
 Frc consts  --      1.5890                 0.7199                 0.7312
 IR Inten    --     14.9363                 4.5614                28.8315

                     25                     26                     27
                      A                      A                      A
 Frequencies --    939.3615               986.0469              1020.6011
 Red. masses --      2.5328                 2.4809                 1.6179
 Frc consts  --      1.3168                 1.4212                 0.9929
 IR Inten    --     52.8369                38.2830                28.3466

                     28                     29                     30
                      A                      A                      A
 Frequencies --   1028.1140              1052.6687              1103.9379
 Red. masses --      1.8917                 1.5027                 2.5727
 Frc consts  --      1.1781                 0.9811                 1.8473
 IR Inten    --      1.3463                 0.9822                10.9744

                     31                     32                     33
                      A                      A                      A
 Frequencies --   1179.9551              1235.0240              1269.0688
 Red. masses --      3.0474                 1.9443                 2.5656
 Frc consts  --      2.4998                 1.7473                 2.4345
 IR Inten    --     61.8743               208.2987                 4.8656

                     34                     35                     36
                      A                      A                      A
 Frequencies --   1330.7652              1367.7716              1395.8806
 Red. masses --      2.2442                 1.3581                 1.6008
 Frc consts  --      2.3416                 1.4970                 1.8378
 IR Inten    --     51.4924                47.0544                15.9904

                     37                     38                     39
                      A                      A                      A
 Frequencies --   1408.0564              1463.5201              1470.7820
 Red. masses --      3.2440                 1.0493                 3.4986
 Frc consts  --      3.7894                 1.3241                 4.4590
 IR Inten    --      0.3322                 5.2913               236.6323

                     40                     41                     42
                      A                      A                      A
 Frequencies --   1474.0469              1478.8949              1479.5394
 Red. masses --      1.1873                 1.0858                 1.1942
 Frc consts  --      1.5200                 1.3992                 1.5402
 IR Inten    --      8.1112                 6.5588                28.4532

                     43                     44                     45
                      A                      A                      A
 Frequencies --   1528.8023              1560.6079              1642.3103
 Red. masses --      4.3899                 9.3790                 6.3642
 Frc consts  --      6.0452                13.4585                10.1136
 IR Inten    --    212.0657                84.4504                53.6547

                     46                     47                     48
                      A                      A                      A
 Frequencies --   1707.5383              3012.3821              3023.1079
 Red. masses --     10.6817                 1.0341                 1.0367
 Frc consts  --     18.3498                 5.5289                 5.5825
 IR Inten    --    402.6509                73.6835                17.4887

                     49                     50                     51
                      A                      A                      A
 Frequencies --   3058.1497              3082.5322              3084.1677
 Red. masses --      1.0987                 1.1029                 1.0974
 Frc consts  --      6.0541                 6.1744                 6.1502
 IR Inten    --     27.0685                24.6068                20.4105

                     52                     53                     54
                      A                      A                      A
 Frequencies --   3119.5883              3128.9010              3170.6419
 Red. masses --      1.1031                 1.0894                 1.0876
 Frc consts  --      6.3250                 6.2838                 6.4419
 IR Inten    --     26.5439                41.0263                12.9002

 - Thermochemistry -
 -------------------
 Temperature   298.150 Kelvin.  Pressure   1.00000 Atm.
 Atom     1 has atomic number  6 and mass  12.00000

 Molecular mass:   164.04734 amu.
 Principal axes and moments of inertia in atomic units:
                           1         2         3
     Eigenvalues --  1453.988152155.883813541.45594
           X            0.69883  -0.49518  -0.51617
           Y            0.61778   0.78157   0.08661
           Z            0.36053  -0.37940   0.85210
 This molecule is an asymmetric top.
 Rotational symmetry number  1.
 Warning -- assumption of classical behavior for rotation
           may cause significant error
 Rotational temperatures (Kelvin)      0.05957     0.04018     0.02446
 Rotational constants (GHZ):           1.24124     0.83712     0.50960
 Zero-point vibrational energy     386106.0 (Joules/Mol)
                                   92.28155 (Kcal/Mol)
 Warning -- explicit consideration of  17 degrees of freedom as
           vibrations may cause significant error
 Vibrational temperatures:     54.95    97.80   198.43   204.03   211.44
          (Kelvin)            260.11   289.51   418.95   471.76   475.00
                              556.77   591.28   644.84   678.73   748.93
                              824.77   863.42   932.17   938.46  1114.12
                             1149.02  1224.52  1234.81  1281.76  1351.53
                             1418.70  1468.42  1479.23  1514.56  1588.32
                             1697.69  1776.92  1825.91  1914.67  1967.92
                             2008.36  2025.88  2105.68  2116.13  2120.82
                             2127.80  2128.73  2199.61  2245.37  2362.92
                             2456.77  4334.15  4349.58  4400.00  4435.08
                             4437.43  4488.39  4501.79  4561.85

 Zero-point correction=                           0.147060 (Hartree/Particle)
 Thermal correction to Energy=                    0.158493
 Thermal correction to Enthalpy=                  0.159438
 Thermal correction to Gibbs Free Energy=         0.108514
 Sum of electronic and zero-point Energies=           -573.513578
 Sum of electronic and thermal Energies=              -573.502145
 Sum of electronic and thermal Enthalpies=            -573.501201
 Sum of electronic and thermal Free Energies=         -573.552124

                     E (Thermal)             CV                S
                      KCal/Mol        Cal/Mol-Kelvin    Cal/Mol-Kelvin
 Total                   99.456             41.859            107.178
 Electronic               0.000              0.000              1.377
 Translational            0.889              2.981             41.193
 Rotational               0.889              2.981             30.785
 Vibrational             97.679             35.897             33.822
 Vibration     1          0.594              1.982              5.351
 Vibration     2          0.598              1.969              4.211
 Vibration     3          0.614              1.915              2.833
 Vibration     4          0.615              1.911              2.779
 Vibration     5          0.617              1.906              2.711
 Vibration     6          0.630              1.866              2.320
 Vibration     7          0.638              1.838              2.122
 Vibration     8          0.687              1.690              1.467
 Vibration     9          0.711              1.620              1.270
 Vibration    10          0.713              1.615              1.259
 Vibration    11          0.755              1.498              1.012
 Vibration    12          0.775              1.446              0.923
 Vibration    13          0.807              1.365              0.801
 Vibration    14          0.829              1.313              0.733
 Vibration    15          0.876              1.205              0.609
 Vibration    16          0.929              1.089              0.498
 Vibration    17          0.958              1.032              0.449

                           ! Non-Optimized Parameters !
 Normal termination of Gaussian 16 at Sat Jan  6 05:51:06 2024.
