 Q-Chem 5.4, Q-Chem, Inc., Pleasanton, CA (2021)
 Q-Chem 5.4.0 for Intel X86 EM64T Linux

User input:
--------------------------------------------------------------
$molecule
-1 2
C                 -0.5023700000      1.1678580000     -0.3632110000
C                 -1.4682240000      0.1396970000     -0.7998210000
C                 -1.2925290000     -1.1778630000     -0.5005800000
C                 -0.1588780000     -1.6742140000      0.2596550000
C                  0.7736630000     -0.6724010000      0.6956900000
C                  0.6302440000      0.6874280000      0.4416500000
O                 -0.6654350000      2.3536240000     -0.7176740000
O                 -0.0110310000     -2.9036000000      0.5208200000
C                  1.6203650000      1.6357660000      1.0033060000
C                  3.0068100000      1.0843860000      1.3713350000
O                  1.4006120000      2.8206540000      1.2105690000
H                  3.4179830000      0.4407390000      0.5898320000
H                  2.9539240000      0.4925840000      2.2911770000
H                  3.6680600000      1.9338600000      1.5451200000
H                  1.6086710000     -1.0433580000      1.2796940000
C                 -2.6428260000      0.6254660000     -1.6057080000
H                 -2.0107510000     -1.9239370000     -0.8342240000
H                 -3.2150060000      1.3748350000     -1.0491860000
H                 -3.3041240000     -0.2035720000     -1.8726700000
H                 -2.3080100000      1.1247080000     -2.5208050000
$end
$rem
MAX_SCF_CYCLES=200
BASIS  =  6-311++G(d,p)
GUI  =  2
JOB_TYPE  =  SP
METHOD  =  B3LYP
SOLVENT_METHOD = PCM
$end
$pcm
theory = CPCM
$end
$solvent
dielectric 37.219
opticaldielectric 1.43
$end

--------------------------------------------------------------

             Standard Nuclear Orientation (Angstroms)
    I     Atom           X                Y                Z
 ----------------------------------------------------------------
    1      C      -0.5023700000     1.1678580000    -0.3632110000
    2      C      -1.4682240000     0.1396970000    -0.7998210000
    3      C      -1.2925290000    -1.1778630000    -0.5005800000
    4      C      -0.1588780000    -1.6742140000     0.2596550000
    5      C       0.7736630000    -0.6724010000     0.6956900000
    6      C       0.6302440000     0.6874280000     0.4416500000
    7      O      -0.6654350000     2.3536240000    -0.7176740000
    8      O      -0.0110310000    -2.9036000000     0.5208200000
    9      C       1.6203650000     1.6357660000     1.0033060000
   10      C       3.0068100000     1.0843860000     1.3713350000
   11      O       1.4006120000     2.8206540000     1.2105690000
   12      H       3.4179830000     0.4407390000     0.5898320000
   13      H       2.9539240000     0.4925840000     2.2911770000
   14      H       3.6680600000     1.9338600000     1.5451200000
   15      H       1.6086710000    -1.0433580000     1.2796940000
   16      C      -2.6428260000     0.6254660000    -1.6057080000
   17      H      -2.0107510000    -1.9239370000    -0.8342240000
   18      H      -3.2150060000     1.3748350000    -1.0491860000
   19      H      -3.3041240000    -0.2035720000    -1.8726700000
   20      H      -2.3080100000     1.1247080000    -2.5208050000
 ----------------------------------------------------------------

    9    -573.7489337567      5.80e-06  Convergence criterion met
 Total energy in the final basis set =     -573.7489337567

                    Orbital Energies (a.u.)
 --------------------------------------------------------------

 Alpha MOs
 -- Occupied --
-19.1067 -19.0854 -19.0851 -10.2587 -10.2338 -10.2252 -10.1798 -10.1767
-10.1737 -10.1656 -10.1608 -10.1576  -1.0408  -1.0126  -1.0045  -0.8339
 -0.7832  -0.7298  -0.7017  -0.6715  -0.6203  -0.5629  -0.5266  -0.4907
 -0.4751  -0.4594  -0.4422  -0.4256  -0.4233  -0.4217  -0.4073  -0.3941
 -0.3927  -0.3840  -0.3776  -0.3679  -0.3643  -0.3541  -0.2880  -0.2697
 -0.2588  -0.2506  -0.2298  -0.1705

 Beta MOs
 -- Occupied --
-19.1059 -19.0798 -19.0779 -10.2586 -10.2328 -10.2239 -10.1786 -10.1756
-10.1710 -10.1655 -10.1608 -10.1577  -1.0391  -1.0031  -0.9917  -0.8281
 -0.7807  -0.7277  -0.6979  -0.6643  -0.6170  -0.5591  -0.5240  -0.4886
 -0.4721  -0.4572  -0.4376  -0.4228  -0.4194  -0.4169  -0.4034  -0.3914
 -0.3835  -0.3778  -0.3662  -0.3641  -0.3556  -0.3469  -0.2669  -0.2573
 -0.2503  -0.2441  -0.2258

          Ground-State Mulliken Net Atomic Charges

     Atom                 Charge (a.u.)    Spin (a.u.)
  --------------------------------------------------------
      1 C                    -1.472197       0.004590
      2 C                     1.256246       0.092285
      3 C                    -0.515288      -0.013408
      4 C                    -0.292465       0.139957
      5 C                    -0.686015       0.191522
      6 C                     1.548629       0.080585
      7 O                    -0.439462       0.207156
      8 O                    -0.509541       0.254675
      9 C                     0.100995       0.017416
     10 C                    -0.637135       0.002019
     11 O                    -0.379293       0.029981
     12 H                     0.168859      -0.000326
     13 H                     0.191079       0.000641
     14 H                     0.187998      -0.000273
     15 H                     0.199826      -0.012993
     16 C                    -0.412340      -0.000277
     17 H                     0.182411      -0.002094
     18 H                     0.173960       0.003974
     19 H                     0.158116      -0.000305
     20 H                     0.175616       0.004875
  --------------------------------------------------------
  Sum of atomic charges =    -1.000000

                    Cartesian Multipole Moments
 -----------------------------------------------------------------
    Charge (ESU x 10^10)
                -4.8032
    Dipole Moment (Debye)
         X       0.4714      Y      -2.8264      Z      -1.2701
       Tot       3.1343
    Quadrupole Moments (Debye-Ang)
        XX     -67.8541     XY      -1.4237     YY    -127.2737
        XZ       0.8562     YZ       2.1538     ZZ     -74.9026

 Total job time:  23.91s(wall), 166.01s(cpu)
        *  Thank you very much for using Q-Chem.  Have a nice day.  *
