 Gaussian 16, Revision A.03,
 Gaussian 16:  ES64L-G16RevA.03 25-Dec-2016

 ----------------------------------------------------------------
 #P UB3LYP/6-311++G(d,p) SCRF=(PCM,Solvent=n,n-DiMethylFormamide)
 ----------------------------------------------------------------

 ------------------
 Quinone PCM in DMF
 ------------------
 Symbolic Z-matrix:
 Charge =  0 Multiplicity = 1

                         Standard orientation:
 ---------------------------------------------------------------------
 Center     Atomic      Atomic             Coordinates (Angstroms)
 Number     Number       Type             X           Y           Z
 ---------------------------------------------------------------------
      1          6           0       -2.533377    1.793731   -0.004157
      2          6           0       -1.302488    0.942088   -0.004083
      3          6           0       -1.277448   -0.403779   -0.001201
      4         17           0       -2.723033   -1.372273    0.003485
      5          6           0       -0.007056   -1.198472   -0.001445
      6          8           0       -0.007594   -2.407289   -0.002357
      7          6           0        1.261648   -0.407416   -0.000408
      8          6           0        1.299895    0.937512    0.001176
      9          6           0        2.564564    1.741414    0.003108
     10          6           0        0.000462    1.682711   -0.000551
     11          8           0       -0.006019    2.901489    0.001174
     12         17           0        2.717325   -1.356125   -0.000689
     13          1           0       -2.569267    2.399187    0.906098
     14          1           0       -2.501004    2.497990   -0.838960
     15          1           0       -3.437335    1.193661   -0.069365
     16          1           0        3.174036    1.496297    0.877313
     17          1           0        3.167398    1.510478   -0.879687
     18          1           0        2.334910    2.804814    0.011909
 ---------------------------------------------------------------------

 SCF Done:  E(UB3LYP) =  -1379.47088885     A.U. after   15 cycles

 The electronic state is 1-A.
 Alpha  occ. eigenvalues -- -101.57856-101.57776 -19.15640 -19.15289 -10.31008
 Alpha  occ. eigenvalues --  -10.30085 -10.27277 -10.27145 -10.23545 -10.23466
 Alpha  occ. eigenvalues --  -10.18458 -10.18347  -9.49315  -9.49239  -7.25778
 Alpha  occ. eigenvalues --   -7.25707  -7.24830  -7.24745  -7.24724  -7.24650
 Alpha  occ. eigenvalues --   -1.09525  -1.08597  -0.91988  -0.90701  -0.84151
 Alpha  occ. eigenvalues --   -0.80900  -0.75603  -0.70727  -0.68711  -0.60954
 Alpha  occ. eigenvalues --   -0.60721  -0.56366  -0.50975  -0.48759  -0.48397
 Alpha  occ. eigenvalues --   -0.46224  -0.46177  -0.44590  -0.44518  -0.44022
 Alpha  occ. eigenvalues --   -0.42851  -0.40898  -0.40484  -0.39471  -0.38264
 Alpha  occ. eigenvalues --   -0.36910  -0.34341  -0.33474  -0.31059  -0.30190
 Alpha  occ. eigenvalues --   -0.29513  -0.27726
 Alpha virt. eigenvalues --   -0.14444  -0.03724  -0.01977  -0.01307   0.00139
 Alpha virt. eigenvalues --    0.00301   0.01970   0.02073   0.03014   0.03402
 Alpha virt. eigenvalues --    0.04378   0.04429   0.04730   0.06182   0.06272

  Beta  occ. eigenvalues -- -101.57856-101.57776 -19.15640 -19.15289 -10.31008
  Beta  occ. eigenvalues --  -10.30085 -10.27277 -10.27145 -10.23545 -10.23466
  Beta  occ. eigenvalues --  -10.18458 -10.18347  -9.49315  -9.49239  -7.25778
  Beta  occ. eigenvalues --   -7.25707  -7.24830  -7.24745  -7.24724  -7.24650
  Beta  occ. eigenvalues --   -1.09525  -1.08597  -0.91988  -0.90701  -0.84151
  Beta  occ. eigenvalues --   -0.80900  -0.75603  -0.70727  -0.68711  -0.60954
  Beta  occ. eigenvalues --   -0.60721  -0.56366  -0.50975  -0.48759  -0.48397
  Beta  occ. eigenvalues --   -0.46224  -0.46177  -0.44590  -0.44518  -0.44022
  Beta  occ. eigenvalues --   -0.42851  -0.40898  -0.40484  -0.39471  -0.38264
  Beta  occ. eigenvalues --   -0.36910  -0.34341  -0.33474  -0.31059  -0.30190
  Beta  occ. eigenvalues --   -0.29513  -0.27726
  Beta virt. eigenvalues --   -0.14444  -0.03724  -0.01977  -0.01307   0.00139
  Beta virt. eigenvalues --    0.00301   0.01970   0.02073   0.03014   0.03402
  Beta virt. eigenvalues --    0.04378   0.04429   0.04730   0.06182   0.06272

 Mulliken charges and spin densities:
               1          2
     1  C   -0.509201   0.000000
     2  C    0.498051   0.000000
     3  C    0.322147  -0.000000
     4  Cl   0.402880  -0.000000
     5  C   -1.151280  -0.000000
     6  O   -0.181707  -0.000000
     7  C    0.251450   0.000000
     8  C    0.575646   0.000000
     9  C   -0.612572   0.000000
    10  C   -0.939948  -0.000000
    11  O   -0.231135   0.000000
    12  Cl   0.475887  -0.000000
    13  H    0.201621  -0.000000
    14  H    0.193065  -0.000000
    15  H    0.133484  -0.000000
    16  H    0.188852  -0.000000
    17  H    0.190749  -0.000000
    18  H    0.192011  -0.000000
 Sum of Mulliken charges =  -0.00000  -0.00000

 Dipole moment (field-independent basis, Debye):
    X=              0.0733    Y=              3.1198    Z=              0.0089  Tot=              3.1207
 Quadrupole moment (field-independent basis, Debye-Ang):
   XX=            -75.6900   YY=            -99.8055   ZZ=            -81.4218
   XY=             -0.3110   XZ=             -0.0233   YZ=             -0.0060

 Normal termination of Gaussian 16 at Sun Jan 21 06:51:46 2024.
