 Q-Chem 5.4, Q-Chem, Inc., Pleasanton, CA (2021)
 Q-Chem 5.4.0 for Intel X86 EM64T Linux

User input:
--------------------------------------------------------------
$molecule
0 1
C                 -0.5683610000      2.0739230000      0.0080590000
C                 -1.8542590000      1.2919820000     -0.0315560000
C                 -1.8005780000     -0.0601500000      0.0226300000
C                 -0.4666830000     -0.7411080000      0.1000500000
C                  0.8154180000      0.0350680000      0.0463340000
C                  0.7716180000      1.3877200000     -0.0046060000
O                 -0.6134890000      3.2963370000      0.0525580000
O                 -0.4232310000     -1.9605590000      0.1997850000
C                  1.9613860000      2.3452600000     -0.0621560000
C                  2.8413010000      2.3206210000      1.2038830000
C                  2.7816890000      2.2283650000     -1.3628840000
C                  2.1064770000     -0.7746580000      0.0602670000
C                  2.3150970000     -1.5486890000      1.3792100000
C                  2.2467600000     -1.6980760000     -1.1681820000
C                 -3.1091080000      2.1602490000     -0.1162500000
C                 -4.0067460000      2.0785780000      1.1349170000
C                 -3.8961180000      1.9769880000     -1.4297880000
C                 -3.0295690000     -0.9613680000      0.0167230000
C                 -3.0833570000     -1.8922550000     -1.2128820000
C                 -3.2023270000     -1.7486980000      1.3330350000
H                  1.5097210000      3.3369510000     -0.0847940000
H                  3.5640680000      3.1408410000      1.1604600000
H                  3.4035540000      1.3923530000      1.3228060000
H                  2.2343660000      2.4622990000      2.1019300000
H                  3.3361780000      1.2911920000     -1.4427770000
H                  3.5071980000      3.0459070000     -1.4101670000
H                  2.1347750000      2.3096750000     -2.2404530000
H                  2.9197760000     -0.0560340000     -0.0041280000
H                  2.2369440000     -0.8841770000      2.2442900000
H                  3.3166680000     -1.9894550000      1.3876210000
H                  1.5861620000     -2.3501230000      1.4919780000
H                  1.5173280000     -2.5069220000     -1.1469390000
H                  3.2482900000     -2.1386330000     -1.1796640000
H                  2.1188990000     -1.1394570000     -2.0998340000
H                 -2.7302300000      3.1819920000     -0.1377030000
H                 -4.7875770000      2.8424500000      1.0730030000
H                 -3.4276530000      2.2707590000      2.0419120000
H                 -4.5003600000      1.1117280000      1.2514090000
H                 -4.6765760000      2.7408700000     -1.4956840000
H                 -4.3816960000      1.0025470000     -1.5118630000
H                 -3.2413460000      2.0980900000     -2.2968840000
H                 -3.8917940000     -0.3036530000     -0.0606230000
H                 -4.0495220000     -2.4052290000     -1.2389270000
H                 -2.2968860000     -2.6453670000     -1.1800320000
H                 -2.9830020000     -1.3254690000     -2.1429720000
H                 -4.1697960000     -2.2600170000      1.3264440000
H                 -3.1853230000     -1.0804520000      2.1986130000
H                 -2.4197460000     -2.4959080000      1.4578320000
$end

$rem
BASIS  =  6-311++G(d,p)
GUI  =  2
JOB_TYPE  =  SP
METHOD  =  B3LYP
SCF_CONVERGENCE  = 8
SOLVENT_METHOD = sm12
$end

$smx
solvent dimethylformamide
charges CM5
$end

--------------------------------------------------------------

             Standard Nuclear Orientation (Angstroms)
    I     Atom           X                Y                Z
 ----------------------------------------------------------------
    1      C      -0.5683610000     2.0739230000     0.0080590000
    2      C      -1.8542590000     1.2919820000    -0.0315560000
    3      C      -1.8005780000    -0.0601500000     0.0226300000
    4      C      -0.4666830000    -0.7411080000     0.1000500000
    5      C       0.8154180000     0.0350680000     0.0463340000
    6      C       0.7716180000     1.3877200000    -0.0046060000
    7      O      -0.6134890000     3.2963370000     0.0525580000
    8      O      -0.4232310000    -1.9605590000     0.1997850000
    9      C       1.9613860000     2.3452600000    -0.0621560000
   10      C       2.8413010000     2.3206210000     1.2038830000
   11      C       2.7816890000     2.2283650000    -1.3628840000
   12      C       2.1064770000    -0.7746580000     0.0602670000
   13      C       2.3150970000    -1.5486890000     1.3792100000
   14      C       2.2467600000    -1.6980760000    -1.1681820000
   15      C      -3.1091080000     2.1602490000    -0.1162500000
   16      C      -4.0067460000     2.0785780000     1.1349170000
   17      C      -3.8961180000     1.9769880000    -1.4297880000
   18      C      -3.0295690000    -0.9613680000     0.0167230000
   19      C      -3.0833570000    -1.8922550000    -1.2128820000
   20      C      -3.2023270000    -1.7486980000     1.3330350000
   21      H       1.5097210000     3.3369510000    -0.0847940000
   22      H       3.5640680000     3.1408410000     1.1604600000
   23      H       3.4035540000     1.3923530000     1.3228060000
   24      H       2.2343660000     2.4622990000     2.1019300000
   25      H       3.3361780000     1.2911920000    -1.4427770000
   26      H       3.5071980000     3.0459070000    -1.4101670000
   27      H       2.1347750000     2.3096750000    -2.2404530000
   28      H       2.9197760000    -0.0560340000    -0.0041280000
   29      H       2.2369440000    -0.8841770000     2.2442900000
   30      H       3.3166680000    -1.9894550000     1.3876210000
   31      H       1.5861620000    -2.3501230000     1.4919780000
   32      H       1.5173280000    -2.5069220000    -1.1469390000
   33      H       3.2482900000    -2.1386330000    -1.1796640000
   34      H       2.1188990000    -1.1394570000    -2.0998340000
   35      H      -2.7302300000     3.1819920000    -0.1377030000
   36      H      -4.7875770000     2.8424500000     1.0730030000
   37      H      -3.4276530000     2.2707590000     2.0419120000
   38      H      -4.5003600000     1.1117280000     1.2514090000
   39      H      -4.6765760000     2.7408700000    -1.4956840000
   40      H      -4.3816960000     1.0025470000    -1.5118630000
   41      H      -3.2413460000     2.0980900000    -2.2968840000
   42      H      -3.8917940000    -0.3036530000    -0.0606230000
   43      H      -4.0495220000    -2.4052290000    -1.2389270000
   44      H      -2.2968860000    -2.6453670000    -1.1800320000
   45      H      -2.9830020000    -1.3254690000    -2.1429720000
   46      H      -4.1697960000    -2.2600170000     1.3264440000
   47      H      -3.1853230000    -1.0804520000     2.1986130000
   48      H      -2.4197460000    -2.4959080000     1.4578320000
 ----------------------------------------------------------------

   14    -853.4506646867      5.98e-09  Convergence criterion met
 Total energy in the final basis set =     -853.4589907577

                    Orbital Energies (a.u.)
 --------------------------------------------------------------

 Alpha MOs
 -- Occupied --
-19.1310 -19.1271 -10.2764 -10.2753 -10.2064 -10.2064 -10.2056 -10.2056
-10.1871 -10.1871 -10.1826 -10.1826 -10.1622 -10.1622 -10.1619 -10.1618
-10.1593 -10.1593 -10.1590 -10.1589  -1.0645  -1.0616  -0.8653  -0.8421
 -0.7990  -0.7965  -0.7799  -0.7388  -0.6904  -0.6902  -0.6882  -0.6856
 -0.6853  -0.6519  -0.6238  -0.5909  -0.5801  -0.5629  -0.5555  -0.5178
 -0.4859  -0.4807  -0.4601  -0.4561  -0.4538  -0.4428  -0.4426  -0.4380
 -0.4325  -0.4266  -0.4258  -0.4254  -0.4205  -0.4131  -0.4116  -0.3991
 -0.3888  -0.3860  -0.3846  -0.3756  -0.3629  -0.3596  -0.3552  -0.3543
 -0.3532  -0.3507  -0.3464  -0.3450  -0.3436  -0.3434  -0.3235  -0.3234
 -0.2881  -0.2790  -0.2670  -0.2553

          Ground-State Mulliken Net Atomic Charges

     Atom                 Charge (a.u.)
  ----------------------------------------
      1 C                    -1.752600
      2 C                     0.464304
      3 C                     0.158580
      4 C                    -1.030389
      5 C                     0.160215
      6 C                     0.469329
      7 O                    -0.190856
      8 O                    -0.197260
      9 C                     0.244297
     10 C                    -0.563255
     11 C                    -0.546816
     12 C                     1.023043
     13 C                    -0.718862
     14 C                    -0.713564
     15 C                     0.241929
     16 C                    -0.563176
     17 C                    -0.547358
     18 C                     1.025244
     19 C                    -0.714521
     20 C                    -0.720462
     21 H                     0.159905
     22 H                     0.185695
     23 H                     0.180195
     24 H                     0.148776
     25 H                     0.182027
     26 H                     0.185880
     27 H                     0.144931
     28 H                     0.173981
     29 H                     0.133573
     30 H                     0.189034
     31 H                     0.113050
     32 H                     0.112831
     33 H                     0.188948
     34 H                     0.137417
     35 H                     0.159969
     36 H                     0.185656
     37 H                     0.148934
     38 H                     0.180092
     39 H                     0.185975
     40 H                     0.181499
     41 H                     0.145047
     42 H                     0.173738
     43 H                     0.188881
     44 H                     0.112858
     45 H                     0.137757
     46 H                     0.189043
     47 H                     0.133431
     48 H                     0.113054
  ----------------------------------------
  Sum of atomic charges =     0.000000

                    Cartesian Multipole Moments
 -----------------------------------------------------------------
    Charge (ESU x 10^10)
                 0.0000
    Dipole Moment (Debye)
         X      -0.0029      Y       0.2489      Z      -0.3571
       Tot       0.4353
    Quadrupole Moments (Debye-Ang)
        XX    -113.9791     XY       0.7796     YY    -138.5837
        XZ       0.2977     YZ      -0.0923     ZZ    -126.1791

 Total job time:  2578.88s(wall), 17688.92s(cpu)
        *  Thank you very much for using Q-Chem.  Have a nice day.  *
