 Gaussian 16, Revision A.03,
 Gaussian 16:  ES64L-G16RevA.03 25-Dec-2016

 ---------------------------------------------------
 #P UB3LYP/6-311++G(d,p) nosym opt freq Int=Acc2E=11
 ---------------------------------------------------

 --------
 Oxidized
 --------
 Symbolic Z-matrix:
 Charge =  0 Multiplicity = 1

 SCF Done:  E(UB3LYP) =  -853.450997682     A.U. after   15 cycles
 Optimization completed.
    -- Stationary point found.
 Normal termination of Gaussian 16 at Sat Jan  6 19:50:28 2024.

 ----------------------------------------------------------------------
 #P Geom=AllCheck Guess=TCheck SCRF=Check GenChk UB3LYP/6-311++G(d,p) F
 req
 ----------------------------------------------------------------------

 Structure from the checkpoint file:  "054.chk"
 --------
 Oxidized
 --------
 Charge =  0 Multiplicity = 1

                          Input orientation:
 ---------------------------------------------------------------------
 Center     Atomic      Atomic             Coordinates (Angstroms)
 Number     Number       Type             X           Y           Z
 ---------------------------------------------------------------------
      1          6           0       -0.568361    2.073923    0.008059
      2          6           0       -1.854259    1.291982   -0.031556
      3          6           0       -1.800578   -0.060150    0.022630
      4          6           0       -0.466683   -0.741108    0.100050
      5          6           0        0.815418    0.035068    0.046334
      6          6           0        0.771618    1.387720   -0.004606
      7          8           0       -0.613489    3.296337    0.052558
      8          8           0       -0.423231   -1.960559    0.199785
      9          6           0        1.961386    2.345260   -0.062156
     10          6           0        2.841301    2.320621    1.203883
     11          6           0        2.781689    2.228365   -1.362884
     12          6           0        2.106477   -0.774658    0.060267
     13          6           0        2.315097   -1.548689    1.379210
     14          6           0        2.246760   -1.698076   -1.168182
     15          6           0       -3.109108    2.160249   -0.116250
     16          6           0       -4.006746    2.078578    1.134917
     17          6           0       -3.896118    1.976988   -1.429788
     18          6           0       -3.029569   -0.961368    0.016723
     19          6           0       -3.083357   -1.892255   -1.212882
     20          6           0       -3.202327   -1.748698    1.333035
     21          1           0        1.509721    3.336951   -0.084794
     22          1           0        3.564068    3.140841    1.160460
     23          1           0        3.403554    1.392353    1.322806
     24          1           0        2.234366    2.462299    2.101930
     25          1           0        3.336178    1.291192   -1.442777
     26          1           0        3.507198    3.045907   -1.410167
     27          1           0        2.134775    2.309675   -2.240453
     28          1           0        2.919776   -0.056034   -0.004128
     29          1           0        2.236944   -0.884177    2.244290
     30          1           0        3.316668   -1.989455    1.387621
     31          1           0        1.586162   -2.350123    1.491978
     32          1           0        1.517328   -2.506922   -1.146939
     33          1           0        3.248290   -2.138633   -1.179664
     34          1           0        2.118899   -1.139457   -2.099834
     35          1           0       -2.730230    3.181992   -0.137703
     36          1           0       -4.787577    2.842450    1.073003
     37          1           0       -3.427653    2.270759    2.041912
     38          1           0       -4.500360    1.111728    1.251409
     39          1           0       -4.676576    2.740870   -1.495684
     40          1           0       -4.381696    1.002547   -1.511863
     41          1           0       -3.241346    2.098090   -2.296884
     42          1           0       -3.891794   -0.303653   -0.060623
     43          1           0       -4.049522   -2.405229   -1.238927
     44          1           0       -2.296886   -2.645367   -1.180032
     45          1           0       -2.983002   -1.325469   -2.142972
     46          1           0       -4.169796   -2.260017    1.326444
     47          1           0       -3.185323   -1.080452    2.198613
     48          1           0       -2.419746   -2.495908    1.457832
 ---------------------------------------------------------------------

 SCF Done:  E(UB3LYP) =  -853.450997682     A.U. after    1 cycles

 Alpha  occ. eigenvalues --  -19.12916 -19.12531 -10.27477 -10.27373 -10.20631
 Alpha  occ. eigenvalues --  -10.20629 -10.20550 -10.20549 -10.18797 -10.18796
 Alpha  occ. eigenvalues --  -10.18515 -10.18514 -10.16733 -10.16731 -10.16665
 Alpha  occ. eigenvalues --  -10.16664 -10.15991 -10.15991 -10.15936 -10.15935
 Alpha  occ. eigenvalues --   -1.06267  -1.05972  -0.86544  -0.84294  -0.80063
 Alpha  occ. eigenvalues --   -0.79824  -0.78128  -0.74012  -0.69468  -0.69454
 Alpha  occ. eigenvalues --   -0.68793  -0.68682  -0.68646  -0.65310  -0.62458
 Alpha  occ. eigenvalues --   -0.59295  -0.58116  -0.56349  -0.55501  -0.51859
 Alpha  occ. eigenvalues --   -0.48663  -0.48068  -0.46286  -0.45690  -0.45439
 Alpha  occ. eigenvalues --   -0.44451  -0.44375  -0.43968  -0.43365  -0.42795
 Alpha  occ. eigenvalues --   -0.42735  -0.42572  -0.42355  -0.41595  -0.41180
 Alpha  occ. eigenvalues --   -0.40095  -0.39278  -0.39110  -0.38603  -0.37563
 Alpha  occ. eigenvalues --   -0.36622  -0.36082  -0.35769  -0.35691  -0.35460
 Alpha  occ. eigenvalues --   -0.35405  -0.34864  -0.34643  -0.34426  -0.34369
 Alpha  occ. eigenvalues --   -0.32595  -0.32567  -0.28720  -0.27701  -0.26750
 Alpha  occ. eigenvalues --   -0.25405
 Alpha virt. eigenvalues --   -0.12052  -0.01921  -0.01431  -0.00600  -0.00181
 Alpha virt. eigenvalues --    0.00339   0.00868   0.01152   0.01257   0.01509
 Alpha virt. eigenvalues --    0.02495   0.02648   0.03368   0.03534   0.03714

  Beta  occ. eigenvalues --  -19.12916 -19.12531 -10.27477 -10.27373 -10.20631
  Beta  occ. eigenvalues --  -10.20629 -10.20550 -10.20549 -10.18797 -10.18796
  Beta  occ. eigenvalues --  -10.18515 -10.18514 -10.16733 -10.16731 -10.16665
  Beta  occ. eigenvalues --  -10.16664 -10.15991 -10.15991 -10.15936 -10.15935
  Beta  occ. eigenvalues --   -1.06267  -1.05972  -0.86544  -0.84294  -0.80063
  Beta  occ. eigenvalues --   -0.79824  -0.78128  -0.74012  -0.69468  -0.69454
  Beta  occ. eigenvalues --   -0.68793  -0.68682  -0.68646  -0.65310  -0.62458
  Beta  occ. eigenvalues --   -0.59295  -0.58116  -0.56349  -0.55501  -0.51859
  Beta  occ. eigenvalues --   -0.48663  -0.48068  -0.46286  -0.45690  -0.45439
  Beta  occ. eigenvalues --   -0.44451  -0.44375  -0.43968  -0.43365  -0.42795
  Beta  occ. eigenvalues --   -0.42735  -0.42572  -0.42355  -0.41595  -0.41180
  Beta  occ. eigenvalues --   -0.40095  -0.39278  -0.39110  -0.38603  -0.37563
  Beta  occ. eigenvalues --   -0.36622  -0.36082  -0.35769  -0.35691  -0.35460
  Beta  occ. eigenvalues --   -0.35405  -0.34864  -0.34643  -0.34426  -0.34369
  Beta  occ. eigenvalues --   -0.32595  -0.32567  -0.28720  -0.27701  -0.26750
  Beta  occ. eigenvalues --   -0.25405
  Beta virt. eigenvalues --   -0.12052  -0.01921  -0.01431  -0.00600  -0.00181
  Beta virt. eigenvalues --    0.00339   0.00868   0.01152   0.01257   0.01509
  Beta virt. eigenvalues --    0.02495   0.02648   0.03368   0.03534   0.03714

 Mulliken charges and spin densities:
               1          2
     1  C   -1.359787   0.000000
     2  C    0.642588  -0.000000
     3  C    0.366381  -0.000000
     4  C   -0.638952   0.000000
     5  C    0.365932  -0.000000
     6  C    0.641136   0.000000
     7  O   -0.147847  -0.000000
     8  O   -0.152224  -0.000000
     9  C    0.120936   0.000000
    10  C   -0.703827  -0.000000
    11  C   -0.704491   0.000000
    12  C    0.638457  -0.000000
    13  C   -0.732223   0.000000
    14  C   -0.739587   0.000000
    15  C    0.121074   0.000000
    16  C   -0.702713   0.000000
    17  C   -0.705693  -0.000000
    18  C    0.639182  -0.000000
    19  C   -0.739489   0.000000
    20  C   -0.732303   0.000000
    21  H    0.235787  -0.000000
    22  H    0.154496  -0.000000
    23  H    0.150133   0.000000
    24  H    0.164161   0.000000
    25  H    0.150941  -0.000000
    26  H    0.154872  -0.000000
    27  H    0.155548   0.000000
    28  H    0.138515  -0.000000
    29  H    0.132360  -0.000000
    30  H    0.159430  -0.000000
    31  H    0.187292   0.000000
    32  H    0.185802   0.000000
    33  H    0.160168  -0.000000
    34  H    0.132285   0.000000
    35  H    0.235688  -0.000000
    36  H    0.154480  -0.000000
    37  H    0.164477   0.000000
    38  H    0.150036  -0.000000
    39  H    0.154935  -0.000000
    40  H    0.150958   0.000000
    41  H    0.155330   0.000000
    42  H    0.138434   0.000000
    43  H    0.160176  -0.000000
    44  H    0.185850  -0.000000
    45  H    0.132309  -0.000000
    46  H    0.159388  -0.000000
    47  H    0.132349  -0.000000
    48  H    0.187246   0.000000
 Sum of Mulliken charges =  -0.00000  -0.00000

 Dipole moment (field-independent basis, Debye):
    X=             -0.0007    Y=              0.1045    Z=             -0.3083  Tot=              0.3255
 Quadrupole moment (field-independent basis, Debye-Ang):
   XX=           -116.4323   YY=           -137.8705   ZZ=           -126.4067
   XY=              0.7322   XZ=              0.2503   YZ=             -0.1029

  Exact polarizability: 236.968  -0.536 252.304   0.706  -2.621 175.636
 Approx polarizability: 299.052  -5.550 452.721   0.620  -6.342 258.540

                      1                      2                      3
                      A                      A                      A
 Frequencies --     10.5009                28.9208                38.4524
 Red. masses --      4.8124                 3.1552                 3.9461
 Frc consts  --      0.0003                 0.0016                 0.0034
 IR Inten    --      3.2035                 0.0012                 0.5240

                      4                      5                      6
                      A                      A                      A
 Frequencies --     64.6624                82.1029                84.8833
 Red. masses --      2.4923                 3.2594                 3.0477
 Frc consts  --      0.0061                 0.0129                 0.0129
 IR Inten    --      0.0020                 0.0545                 1.3408

                      7                      8                      9
                      A                      A                      A
 Frequencies --    102.1791               155.7227               157.9581
 Red. masses --      2.5934                 3.0064                 1.9710
 Frc consts  --      0.0160                 0.0430                 0.0290
 IR Inten    --      0.0046                 0.6086                 0.9517

                     10                     11                     12
                      A                      A                      A
 Frequencies --    161.6018               182.2124               184.0285
 Red. masses --      1.9265                 2.7107                 2.4797
 Frc consts  --      0.0296                 0.0530                 0.0495
 IR Inten    --      0.0233                 0.0551                 0.2958

                     13                     14                     15
                      A                      A                      A
 Frequencies --    195.8574               200.9555               206.8867
 Red. masses --      1.2117                 1.1302                 1.2558
 Frc consts  --      0.0274                 0.0269                 0.0317
 IR Inten    --      0.0107                 0.0025                 0.1715

                     16                     17                     18
                      A                      A                      A
 Frequencies --    210.2513               223.2237               225.7804
 Red. masses --      1.2604                 1.4923                 1.5645
 Frc consts  --      0.0328                 0.0438                 0.0470
 IR Inten    --      0.1778                 0.0214                 0.0870

                     19                     20                     21
                      A                      A                      A
 Frequencies --    227.3201               228.6389               229.3239
 Red. masses --      1.1362                 1.4589                 1.1850
 Frc consts  --      0.0346                 0.0449                 0.0367
 IR Inten    --      0.1159                 0.4904                 0.0672

                     22                     23                     24
                      A                      A                      A
 Frequencies --    242.7934               254.5171               258.6521
 Red. masses --      2.3584                 2.3603                 2.8587
 Frc consts  --      0.0819                 0.0901                 0.1127
 IR Inten    --      0.0013                 0.8035                 0.0042

                     25                     26                     27
                      A                      A                      A
 Frequencies --    295.4568               301.6266               323.8642
 Red. masses --      2.7236                 3.7560                 3.0458
 Frc consts  --      0.1401                 0.2013                 0.1882
 IR Inten    --      0.2208                 0.4088                 1.3785

                     28                     29                     30
                      A                      A                      A
 Frequencies --    385.5130               412.4714               435.3584
 Red. masses --      4.6469                 2.5851                 3.1317
 Frc consts  --      0.4069                 0.2591                 0.3497
 IR Inten    --      0.0481                 0.3827                 0.0489

                     31                     32                     33
                      A                      A                      A
 Frequencies --    442.9274               446.1064               465.5524
 Red. masses --      4.7907                 2.6812                 3.8027
 Frc consts  --      0.5537                 0.3144                 0.4856
 IR Inten    --     15.8277                 0.9965                17.4883

                     34                     35                     36
                      A                      A                      A
 Frequencies --    490.1817               509.5733               525.2765
 Red. masses --      5.1777                 5.3732                 2.9616
 Frc consts  --      0.7330                 0.8220                 0.4815
 IR Inten    --      0.0284                 0.4395                 0.9827

                     37                     38                     39
                      A                      A                      A
 Frequencies --    539.1103               548.7543               598.8758
 Red. masses --      5.5157                 3.4831                 3.0488
 Frc consts  --      0.9445                 0.6180                 0.6443
 IR Inten    --      0.9570                 1.1460                 1.3704

                     40                     41                     42
                      A                      A                      A
 Frequencies --    686.5487               728.4246               776.1313
 Red. masses --      6.6779                 6.2368                 8.6076
 Frc consts  --      1.8545                 1.9498                 3.0549
 IR Inten    --      0.0423                10.1221                17.0784

                     43                     44                     45
                      A                      A                      A
 Frequencies --    804.1361               821.3437               846.9718
 Red. masses --      2.8541                 3.3579                 3.5363
 Frc consts  --      1.0874                 1.3347                 1.4946
 IR Inten    --     25.9957                 1.4728                 0.7174

                     46                     47                     48
                      A                      A                      A
 Frequencies --    848.6828               870.5991               916.8815
 Red. masses --      8.6797                 2.9343                 2.4049
 Frc consts  --      3.6834                 1.3103                 1.1911
 IR Inten    --      0.3422                 0.0364                25.5582

                     49                     50                     51
                      A                      A                      A
 Frequencies --    929.9093               932.5598               933.1980
 Red. masses --      2.4860                 1.1707                 1.1743
 Frc consts  --      1.2666                 0.5999                 0.6025
 IR Inten    --      0.0414                 0.0164                 3.0458

                     52                     53                     54
                      A                      A                      A
 Frequencies --    941.0790               941.3934               955.8209
 Red. masses --      1.2297                 1.2319                 2.4756
 Frc consts  --      0.6416                 0.6433                 1.3325
 IR Inten    --      0.0243                 0.0806                 1.6321

                     55                     56                     57
                      A                      A                      A
 Frequencies --    966.0481               966.3509               970.7408
 Red. masses --      1.4898                 1.4997                 1.4176
 Frc consts  --      0.8191                 0.8251                 0.7871
 IR Inten    --      0.0246                 0.1634                 0.0223

                     58                     59                     60
                      A                      A                      A
 Frequencies --    971.2655              1000.8347              1083.1898
 Red. masses --      1.4251                 2.5395                 2.0223
 Frc consts  --      0.7921                 1.4988                 1.3980
 IR Inten    --      0.0019                 7.6074                87.7779

                     61                     62                     63
                      A                      A                      A
 Frequencies --   1111.4025              1117.1389              1118.7070
 Red. masses --      2.6155                 2.6255                 1.6894
 Frc consts  --      1.9035                 1.9305                 1.2457
 IR Inten    --      0.0297                 6.9048                12.3536

                     64                     65                     66
                      A                      A                      A
 Frequencies --   1122.4910              1123.4483              1135.0001
 Red. masses --      2.6145                 2.6450                 1.7928
 Frc consts  --      1.9409                 1.9669                 1.3607
 IR Inten    --      0.1520                 1.7157                18.4709

                     67                     68                     69
                      A                      A                      A
 Frequencies --   1138.3473              1185.9908              1192.6115
 Red. masses --      1.8522                 1.9704                 2.0821
 Frc consts  --      1.4141                 1.6329                 1.7448
 IR Inten    --      0.2779                 5.7388                 6.6691

                     70                     71                     72
                      A                      A                      A
 Frequencies --   1198.9414              1200.1710              1246.5782
 Red. masses --      2.0872                 2.1052                 6.7874
 Frc consts  --      1.7677                 1.7867                 6.2143
 IR Inten    --     12.3523                 0.4542               209.4297

                     73                     74                     75
                      A                      A                      A
 Frequencies --   1254.4412              1313.0210              1351.2157
 Red. masses --      3.4141                 4.6266                 1.2619
 Frc consts  --      3.1654                 4.6996                 1.3575
 IR Inten    --     29.9249                33.8326                 0.0262

                     76                     77                     78
                      A                      A                      A
 Frequencies --   1351.8899              1370.2791              1373.6032
 Red. masses --      1.2631                 1.3337                 1.3480
 Frc consts  --      1.3601                 1.4754                 1.4986
 IR Inten    --      0.3890                 8.7920                 0.5233

                     79                     80                     81
                      A                      A                      A
 Frequencies --   1380.4959              1381.0987              1390.5756
 Red. masses --      1.2467                 1.2463                 1.2072
 Frc consts  --      1.3999                 1.4006                 1.3754
 IR Inten    --      0.3110                 3.6433                 1.9668

                     82                     83                     84
                      A                      A                      A
 Frequencies --   1391.1623              1404.5970              1405.0147
 Red. masses --      1.2069                 1.2905                 1.1980
 Frc consts  --      1.3761                 1.5001                 1.3934
 IR Inten    --     10.0336                11.2457                 0.8881

                     85                     86                     87
                      A                      A                      A
 Frequencies --   1405.4218              1407.3929              1411.8740
 Red. masses --      1.2035                 1.3127                 1.2189
 Frc consts  --      1.4006                 1.5320                 1.4316
 IR Inten    --     15.5606                 1.8362                21.2870

                     88                     89                     90
                      A                      A                      A
 Frequencies --   1412.6735              1425.7895              1429.2369
 Red. masses --      1.2485                 1.2222                 1.3002
 Frc consts  --      1.4680                 1.4639                 1.5648
 IR Inten    --      2.0303                 5.3912                 4.7101

                     91                     92                     93
                      A                      A                      A
 Frequencies --   1485.5725              1485.9697              1489.9867
 Red. masses --      1.0409                 1.0411                 1.0426
 Frc consts  --      1.3534                 1.3544                 1.3637
 IR Inten    --      0.0083                 1.1801                 0.0112

                     94                     95                     96
                      A                      A                      A
 Frequencies --   1490.6013              1495.7189              1496.2245
 Red. masses --      1.0423                 1.0480                 1.0482
 Frc consts  --      1.3645                 1.3814                 1.3825
 IR Inten    --      0.3512                 1.5833                 4.7389

                     97                     98                     99
                      A                      A                      A
 Frequencies --   1500.0980              1500.2618              1504.0630
 Red. masses --      1.0435                 1.0474                 1.0475
 Frc consts  --      1.3835                 1.3890                 1.3961
 IR Inten    --      4.1041                30.3730                 0.0161

                    100                    101                    102
                      A                      A                      A
 Frequencies --   1504.6889              1505.0755              1505.8621
 Red. masses --      1.0438                 1.0434                 1.0474
 Frc consts  --      1.3923                 1.3926                 1.3993
 IR Inten    --      6.8151                 8.2414                 2.0226

                    103                    104                    105
                      A                      A                      A
 Frequencies --   1509.6293              1510.2259              1521.2344
 Red. masses --      1.0616                 1.0612                 1.0586
 Frc consts  --      1.4254                 1.4261                 1.4434
 IR Inten    --     11.6197                 6.5928                 5.2432

                    106                    107                    108
                      A                      A                      A
 Frequencies --   1522.7722              1637.2458              1675.2740
 Red. masses --      1.0576                 8.0046                 9.0160
 Frc consts  --      1.4450                12.6421                14.9085
 IR Inten    --      9.9572                39.0926                24.9201

                    109                    110                    111
                      A                      A                      A
 Frequencies --   1686.6221              1692.5433              3025.3735
 Red. masses --     12.3726                10.9426                 1.0380
 Frc consts  --     20.7370                18.4693                 5.5975
 IR Inten    --    164.4832               204.1859                 0.7052

                    112                    113                    114
                      A                      A                      A
 Frequencies --   3025.5320              3026.2718              3026.4098
 Red. masses --      1.0379                 1.0359                 1.0360
 Frc consts  --      5.5978                 5.5899                 5.5909
 IR Inten    --     31.2247                13.8992                82.0122

                    115                    116                    117
                      A                      A                      A
 Frequencies --   3028.5377              3028.8706              3029.3431
 Red. masses --      1.0390                 1.0387                 1.0362
 Frc consts  --      5.6145                 5.6141                 5.6029
 IR Inten    --     47.9670                35.4624                54.8243

                    118                    119                    120
                      A                      A                      A
 Frequencies --   3029.8110              3075.3176              3075.8495
 Red. masses --      1.0365                 1.0889                 1.0892
 Frc consts  --      5.6061                 6.0679                 6.0713
 IR Inten    --      3.1331                 7.6310                27.8851

                    121                    122                    123
                      A                      A                      A
 Frequencies --   3080.2003              3080.5298              3082.4415
 Red. masses --      1.1016                 1.1015                 1.1008
 Frc consts  --      6.1580                 6.1589                 6.1623
 IR Inten    --      1.2141                21.9295                36.6944

                    124                    125                    126
                      A                      A                      A
 Frequencies --   3082.7197              3084.7233              3084.8935
 Red. masses --      1.1007                 1.1011                 1.1011
 Frc consts  --      6.1630                 6.1732                 6.1736
 IR Inten    --     52.8204                 2.2556                28.5831

                    127                    128                    129
                      A                      A                      A
 Frequencies --   3088.1077              3088.3725              3099.7611
 Red. masses --      1.1004                 1.1003                 1.1012
 Frc consts  --      6.1826                 6.1833                 6.2339
 IR Inten    --     89.2444                12.9910                 2.1968

                    130                    131                    132
                      A                      A                      A
 Frequencies --   3099.9809              3105.5483              3105.9378
 Red. masses --      1.1011                 1.0909                 1.0906
 Frc consts  --      6.2343                 6.1989                 6.1987
 IR Inten    --      4.6248                 2.6978                32.1526

                    133                    134                    135
                      A                      A                      A
 Frequencies --   3116.2566              3116.5167              3128.1243
 Red. masses --      1.0908                 1.0908                 1.0985
 Frc consts  --      6.2410                 6.2419                 6.3333
 IR Inten    --      3.5573                43.5822                 0.5064

                    136                    137                    138
                      A                      A                      A
 Frequencies --   3128.3274              3139.8123              3140.1571
 Red. masses --      1.0985                 1.0930                 1.0931
 Frc consts  --      6.3340                 6.3484                 6.3504
 IR Inten    --      0.1757                39.7043                11.4708

 - Thermochemistry -
 -------------------
 Temperature   298.150 Kelvin.  Pressure   1.00000 Atm.
 Atom     1 has atomic number  6 and mass  12.00000

 Molecular mass:   276.20893 amu.
 Principal axes and moments of inertia in atomic units:
                           1         2         3
     Eigenvalues --  4063.080186483.061518944.86902
           X            0.99929  -0.03605  -0.01098
           Y            0.03643   0.99864   0.03735
           Z            0.00962  -0.03772   0.99924
 This molecule is an asymmetric top.
 Rotational symmetry number  1.
 Warning -- assumption of classical behavior for rotation
           may cause significant error
 Rotational temperatures (Kelvin)      0.02132     0.01336     0.00968
 Rotational constants (GHZ):           0.44418     0.27838     0.20176
 Zero-point vibrational energy    1108126.0 (Joules/Mol)
                                  264.84846 (Kcal/Mol)
 Warning -- explicit consideration of  39 degrees of freedom as
           vibrations may cause significant error
 Vibrational temperatures:     15.11    41.61    55.32    93.03   118.13
          (Kelvin)            122.13   147.01   224.05   227.27   232.51
                              262.16   264.78   281.80   289.13   297.66
                              302.50   321.17   324.85   327.06   328.96
                              329.95   349.33   366.19   372.14   425.10
                              433.97   465.97   554.67   593.45   626.38
                              637.27   641.85   669.83   705.26   733.16
                              755.76   775.66   789.54   861.65   987.79
                             1048.04  1116.68  1156.97  1181.73  1218.60
                             1221.07  1252.60  1319.19  1337.93  1341.75
                             1342.66  1354.00  1354.46  1375.21  1389.93
                             1390.36  1396.68  1397.43  1439.98  1558.47
                             1599.06  1607.31  1609.57  1615.01  1616.39
                             1633.01  1637.83  1706.38  1715.90  1725.01
                             1726.78  1793.55  1804.86  1889.14  1944.10
                             1945.07  1971.53  1976.31  1986.23  1987.09
                             2000.73  2001.57  2020.90  2021.50  2022.09
                             2024.92  2031.37  2032.52  2051.39  2056.35
                             2137.41  2137.98  2143.76  2144.64  2152.01
                             2152.73  2158.31  2158.54  2164.01  2164.91
                             2165.47  2166.60  2172.02  2172.88  2188.72
                             2190.93  2355.63  2410.35  2426.67  2435.19
                             4352.84  4353.07  4354.13  4354.33  4357.39
                             4357.87  4358.55  4359.22  4424.70  4425.46
                             4431.72  4432.20  4434.95  4435.35  4438.23
                             4438.47  4443.10  4443.48  4459.86  4460.18
                             4468.19  4468.75  4483.60  4483.97  4500.67
                             4500.97  4517.49  4517.99

 Zero-point correction=                           0.422063 (Hartree/Particle)
 Thermal correction to Energy=                    0.445763
 Thermal correction to Enthalpy=                  0.446707
 Thermal correction to Gibbs Free Energy=         0.369010
 Sum of electronic and zero-point Energies=           -853.028935
 Sum of electronic and thermal Energies=              -853.005235
 Sum of electronic and thermal Enthalpies=            -853.004290
 Sum of electronic and thermal Free Energies=         -853.081987

                     E (Thermal)             CV                S
                      KCal/Mol        Cal/Mol-Kelvin    Cal/Mol-Kelvin
 Total                  279.721             88.212            163.527
 Electronic               0.000              0.000              0.000
 Translational            0.889              2.981             42.746
 Rotational               0.889              2.981             33.821
 Vibrational            277.943             82.250             86.960
 Vibration     1          0.593              1.987              7.914
 Vibration     2          0.593              1.984              5.902
 Vibration     3          0.594              1.982              5.337
 Vibration     4          0.597              1.971              4.310
 Vibration     5          0.600              1.961              3.840
 Vibration     6          0.601              1.960              3.775
 Vibration     7          0.604              1.947              3.412
 Vibration     8          0.620              1.896              2.601
 Vibration     9          0.621              1.894              2.574
 Vibration    10          0.622              1.889              2.531
 Vibration    11          0.630              1.864              2.306
 Vibration    12          0.631              1.862              2.287
 Vibration    13          0.636              1.846              2.172
 Vibration    14          0.638              1.839              2.124
 Vibration    15          0.641              1.830              2.071
 Vibration    16          0.642              1.825              2.041
 Vibration    17          0.649              1.806              1.933
 Vibration    18          0.650              1.802              1.912
 Vibration    19          0.651              1.799              1.900
 Vibration    20          0.651              1.797              1.890
 Vibration    21          0.652              1.796              1.884
 Vibration    22          0.659              1.775              1.782
 Vibration    23          0.665              1.755              1.699
 Vibration    24          0.667              1.748              1.671
 Vibration    25          0.690              1.682              1.443
 Vibration    26          0.694              1.671              1.408
 Vibration    27          0.708              1.628              1.291
 Vibration    28          0.754              1.501              1.017
 Vibration    29          0.776              1.443              0.918
 Vibration    30          0.796              1.393              0.841
 Vibration    31          0.803              1.376              0.817
 Vibration    32          0.805              1.369              0.808
 Vibration    33          0.823              1.326              0.750
 Vibration    34          0.846              1.272              0.683
 Vibration    35          0.865              1.229              0.635
 Vibration    36          0.880              1.194              0.598
 Vibration    37          0.894              1.164              0.567
 Vibration    38          0.904              1.142              0.547
 Vibration    39          0.957              1.034              0.452

                           ! Non-Optimized Parameters !
 Normal termination of Gaussian 16 at Sat Jan  6 22:17:04 2024.
