 Q-Chem 5.4, Q-Chem, Inc., Pleasanton, CA (2021)
 Q-Chem 5.4.0 for Intel X86 EM64T Linux

User input:
--------------------------------------------------------------
$molecule
-2 1
C                 -2.4010860000      1.9051610000     -0.0312620000
C                 -1.2424200000      0.9349060000     -0.0133570000
C                 -1.4798560000     -0.4555920000      0.1425560000
C                 -2.8930220000     -0.9729020000      0.2824780000
C                 -0.4355010000     -1.4298260000      0.1778210000
O                 -0.6463740000     -2.7000890000      0.3225510000
C                  0.9087740000     -0.8880540000      0.0303050000
C                  2.0221950000     -1.7616350000      0.0321180000
C                  3.3211290000     -1.3013640000     -0.0940250000
C                  3.5595100000      0.0897280000     -0.2324550000
C                  2.4895060000      0.9671630000     -0.2462100000
C                  1.1501550000      0.5255050000     -0.1279990000
C                  0.0635260000      1.4953080000     -0.1601380000
O                  0.2858030000      2.7635570000     -0.3055150000
H                 -3.0813960000      1.7389180000     -0.8832480000
H                 -3.0235970000      1.8350410000      0.8750750000
H                 -1.9960500000      2.9175040000     -0.1057660000
H                 -2.8524730000     -2.0637650000      0.3356050000
H                 -3.5348550000     -0.6799250000     -0.5637550000
H                 -3.3945170000     -0.5986360000      1.1906460000
H                  1.8052810000     -2.8200740000      0.1407840000
H                  4.1582150000     -1.9990650000     -0.0846140000
H                  4.5796570000      0.4603770000     -0.3299690000
H                  2.6373950000      2.0377560000     -0.3516270000
$end

$rem
BASIS  =  6-311++G(d,p)
GUI  =  2
JOB_TYPE  =  SP
METHOD  =  B3LYP
SCF_CONVERGENCE  = 8
SOLVENT_METHOD = sm12
$end

$smx
solvent dimethylformamide
charges CM5
$end

--------------------------------------------------------------

             Standard Nuclear Orientation (Angstroms)
    I     Atom           X                Y                Z
 ----------------------------------------------------------------
    1      C      -2.4010860000     1.9051610000    -0.0312620000
    2      C      -1.2424200000     0.9349060000    -0.0133570000
    3      C      -1.4798560000    -0.4555920000     0.1425560000
    4      C      -2.8930220000    -0.9729020000     0.2824780000
    5      C      -0.4355010000    -1.4298260000     0.1778210000
    6      O      -0.6463740000    -2.7000890000     0.3225510000
    7      C       0.9087740000    -0.8880540000     0.0303050000
    8      C       2.0221950000    -1.7616350000     0.0321180000
    9      C       3.3211290000    -1.3013640000    -0.0940250000
   10      C       3.5595100000     0.0897280000    -0.2324550000
   11      C       2.4895060000     0.9671630000    -0.2462100000
   12      C       1.1501550000     0.5255050000    -0.1279990000
   13      C       0.0635260000     1.4953080000    -0.1601380000
   14      O       0.2858030000     2.7635570000    -0.3055150000
   15      H      -3.0813960000     1.7389180000    -0.8832480000
   16      H      -3.0235970000     1.8350410000     0.8750750000
   17      H      -1.9960500000     2.9175040000    -0.1057660000
   18      H      -2.8524730000    -2.0637650000     0.3356050000
   19      H      -3.5348550000    -0.6799250000    -0.5637550000
   20      H      -3.3945170000    -0.5986360000     1.1906460000
   21      H       1.8052810000    -2.8200740000     0.1407840000
   22      H       4.1582150000    -1.9990650000    -0.0846140000
   23      H       4.5796570000     0.4603770000    -0.3299690000
   24      H       2.6373950000     2.0377560000    -0.3516270000
 ----------------------------------------------------------------

   18    -613.8765492317      2.76e-09  Convergence criterion met
 Total energy in the final basis set =     -614.1687685346

                    Orbital Energies (a.u.)
 --------------------------------------------------------------

 Alpha MOs
 -- Occupied --
-19.0228 -19.0227 -10.1815 -10.1815 -10.1754 -10.1749 -10.1696 -10.1696
-10.1635 -10.1635 -10.1549 -10.1546 -10.1449 -10.1445  -0.9386  -0.9353
 -0.8448  -0.7972  -0.7474  -0.7429  -0.7204  -0.6673  -0.6405  -0.5919
 -0.5774  -0.5394  -0.4987  -0.4813  -0.4486  -0.4462  -0.4296  -0.4221
 -0.3965  -0.3952  -0.3880  -0.3832  -0.3808  -0.3744  -0.3593  -0.3486
 -0.3260  -0.3254  -0.3214  -0.3142  -0.2482  -0.2356  -0.2192  -0.2048
 -0.1969  -0.1209

          Ground-State Mulliken Net Atomic Charges

     Atom                 Charge (a.u.)
  ----------------------------------------
      1 C                     0.846609
      2 C                    -0.254733
      3 C                    -0.255745
      4 C                     0.842662
      5 C                    -2.101787
      6 O                    -0.336393
      7 C                    -1.937942
      8 C                    -0.013770
      9 C                     1.665699
     10 C                     1.666972
     11 C                    -0.012086
     12 C                    -1.936561
     13 C                    -2.103388
     14 O                    -0.336126
     15 H                     0.198037
     16 H                     0.207669
     17 H                     0.193993
     18 H                     0.193815
     19 H                     0.207492
     20 H                     0.198333
     21 H                     0.122395
     22 H                     0.411150
     23 H                     0.411213
     24 H                     0.122492
  ----------------------------------------
  Sum of atomic charges =    -2.000000

                    Cartesian Multipole Moments
 -----------------------------------------------------------------
    Charge (ESU x 10^10)
                -9.6064
    Dipole Moment (Debye)
         X      -0.9561      Y       0.1690      Z       0.0473
       Tot       0.9721
    Quadrupole Moments (Debye-Ang)
        XX    -118.2292     XY      -5.0783     YY    -147.7966
        XZ       1.9718     YZ       5.6866     ZZ     -96.9904

 Total job time:  533.84s(wall), 3565.13s(cpu)
        *  Thank you very much for using Q-Chem.  Have a nice day.  *
