 Gaussian 16, Revision A.03,
 Gaussian 16:  ES64L-G16RevA.03 25-Dec-2016

 ----------------------------------------------------------------
 #P UB3LYP/6-311++G(d,p) SCRF=(PCM,Solvent=n,n-DiMethylFormamide)
 ----------------------------------------------------------------

 ------------------
 Radical PCM in DMF
 ------------------
 Symbolic Z-matrix:
 Charge = -1 Multiplicity = 2

                         Standard orientation:
 ---------------------------------------------------------------------
 Center     Atomic      Atomic             Coordinates (Angstroms)
 Number     Number       Type             X           Y           Z
 ---------------------------------------------------------------------
      1          6           0       -0.337932   -1.815293   -0.000195
      2          6           0       -1.687478   -1.541072   -0.000078
      3          6           0       -2.129294   -0.190586   -0.000033
      4          6           0        0.622791   -0.782120   -0.000259
      5          6           0        0.179382    0.572212   -0.000277
      6          6           0       -1.195326    0.843371   -0.000151
      7          6           0        2.054131   -1.117230   -0.000270
      8          6           0        2.951590    0.010731    0.000292
      9          6           0        2.528229    1.317649    0.000212
     10          6           0        1.137715    1.696909   -0.000410
     11          8           0        2.459387   -2.309991    0.000282
     12          8           0        0.756986    2.893308    0.000051
     13          6           0       -3.527556    0.096677    0.000166
     14          7           0       -4.666807    0.310633    0.000343
     15          1           0        0.027896   -2.835622   -0.000209
     16          1           0       -2.418966   -2.341120   -0.000019
     17          1           0       -1.507820    1.880933   -0.000157
     18          1           0        4.012063   -0.225572    0.000727
     19          1           0        3.245977    2.132925    0.000610
 ---------------------------------------------------------------------

 SCF Done:  E(UB3LYP) =  -627.686245251     A.U. after   20 cycles

 The electronic state is 2-A.
 Alpha  occ. eigenvalues --  -19.08581 -19.08390 -14.32275 -10.23227 -10.22880
 Alpha  occ. eigenvalues --  -10.22438 -10.21926 -10.19552 -10.19414 -10.18796
 Alpha  occ. eigenvalues --  -10.18701 -10.18353 -10.17193 -10.17059  -1.01110
 Alpha  occ. eigenvalues --   -1.00686  -0.92405  -0.87716  -0.81858  -0.77465
 Alpha  occ. eigenvalues --   -0.76135  -0.69029  -0.65403  -0.63024  -0.57717
 Alpha  occ. eigenvalues --   -0.55397  -0.51751  -0.48730  -0.47430  -0.44199
 Alpha  occ. eigenvalues --   -0.43857  -0.43121  -0.42820  -0.41326  -0.40002
 Alpha  occ. eigenvalues --   -0.39746  -0.38637  -0.38555  -0.36629  -0.36173
 Alpha  occ. eigenvalues --   -0.34676  -0.34471  -0.28526  -0.27221  -0.26400
 Alpha  occ. eigenvalues --   -0.25257  -0.24607  -0.16276
 Alpha virt. eigenvalues --   -0.06255  -0.03766  -0.00295   0.00908   0.01477
 Alpha virt. eigenvalues --    0.01681   0.02839   0.03158   0.03392   0.04137
 Alpha virt. eigenvalues --    0.04755   0.04795   0.05558   0.06434   0.06696

  Beta  occ. eigenvalues --  -19.07967 -19.07717 -14.32244 -10.23104 -10.22739
  Beta  occ. eigenvalues --  -10.22447 -10.21881 -10.19578 -10.19352 -10.18707
  Beta  occ. eigenvalues --  -10.18639 -10.18358 -10.17074 -10.16910  -1.00040
  Beta  occ. eigenvalues --   -0.99508  -0.92357  -0.87540  -0.81339  -0.77281
  Beta  occ. eigenvalues --   -0.75917  -0.68191  -0.65105  -0.62754  -0.57550
  Beta  occ. eigenvalues --   -0.55102  -0.51530  -0.48483  -0.47167  -0.44148
  Beta  occ. eigenvalues --   -0.43657  -0.42821  -0.41794  -0.40814  -0.39744
  Beta  occ. eigenvalues --   -0.38896  -0.38544  -0.36443  -0.36015  -0.35954
  Beta  occ. eigenvalues --   -0.34403  -0.33966  -0.26624  -0.25746  -0.25603
  Beta  occ. eigenvalues --   -0.24660  -0.24014
  Beta virt. eigenvalues --   -0.09738  -0.05471  -0.02763  -0.00278   0.00923
  Beta virt. eigenvalues --    0.01495   0.01699   0.02861   0.03178   0.04230
  Beta virt. eigenvalues --    0.04672   0.04830   0.05573   0.05753   0.06463

 Mulliken charges and spin densities:
               1          2
     1  C    0.426702   0.033389
     2  C   -0.865862   0.042901
     3  C    1.936391   0.031298
     4  C    0.173106   0.051492
     5  C   -0.087376   0.029410
     6  C    0.251654   0.000240
     7  C   -0.594571   0.076764
     8  C    0.096595   0.099329
     9  C    0.067920   0.120724
    10  C   -0.484987   0.070288
    11  O   -0.475800   0.243193
    12  O   -0.466863   0.220790
    13  C   -1.645888  -0.011459
    14  N   -0.276155   0.015780
    15  H    0.174379  -0.001899
    16  H    0.208441  -0.003332
    17  H    0.182177  -0.000995
    18  H    0.188771  -0.008248
    19  H    0.191367  -0.009665
 Sum of Mulliken charges =  -1.00000   1.00000

 Dipole moment (field-independent basis, Debye):
    X=             -0.4375    Y=             -2.0694    Z=             -0.0013  Tot=              2.1152
 Quadrupole moment (field-independent basis, Debye-Ang):
   XX=           -128.4339   YY=           -112.4392   ZZ=            -84.2950
   XY=             14.6146   XZ=              0.0025   YZ=              0.0015

 Normal termination of Gaussian 16 at Sun Jan 21 08:12:27 2024.
