 Q-Chem 5.4, Q-Chem, Inc., Pleasanton, CA (2021)
 Q-Chem 5.4.0 for Intel X86 EM64T Linux

User input:
--------------------------------------------------------------
$molecule
0 1
C                 -0.1610190000      3.8985470000      0.3881290000
C                 -1.4015770000      3.4296160000      0.8076210000
C                 -1.6934020000      2.0649540000      0.7439760000
C                  0.7973720000      3.0012000000     -0.0903840000
C                  0.5049410000      1.6333130000     -0.1539360000
C                 -0.7444680000      1.1687140000      0.2622430000
C                  2.1144610000      3.5182320000     -0.5588650000
C                  3.1605950000      2.5153140000     -0.9412730000
C                  2.8710230000      1.1840180000     -1.0313080000
C                  1.5222990000      0.6705520000     -0.6620290000
O                  2.3177080000      4.7174390000     -0.6399850000
O                  1.2635300000     -0.5216280000     -0.7479280000
H                  0.0825100000      4.9531150000      0.4208210000
H                 -2.1435990000      4.1258130000      1.1815950000
H                 -2.6622220000      1.7027110000      1.0686550000
H                 -0.9504350000      0.1074160000      0.2002310000
S                  4.7620720000      3.0574980000     -1.4703300000
C                  5.1463730000      4.5940810000     -0.5474090000
C                  3.8681410000      0.1619380000     -1.4926760000
H                  6.2221260000      4.7172130000     -0.6819470000
H                  4.9308020000      4.4717000000      0.5124950000
H                  4.6074560000      5.4459700000     -0.9472710000
H                  4.0281940000      0.2318440000     -2.5746380000
H                  3.5085770000     -0.8410100000     -1.2708250000
H                  4.8387030000      0.3286380000     -1.0177340000
$end

$rem
BASIS  =  6-311++G(d,p)
GUI  =  2
JOB_TYPE  =  SP
METHOD  =  B3LYP
SCF_CONVERGENCE  = 8
SOLVENT_METHOD = sm12
$end

$smx
solvent dimethylformamide
charges CM5
$end

--------------------------------------------------------------

             Standard Nuclear Orientation (Angstroms)
    I     Atom           X                Y                Z
 ----------------------------------------------------------------
    1      C      -0.1610190000     3.8985470000     0.3881290000
    2      C      -1.4015770000     3.4296160000     0.8076210000
    3      C      -1.6934020000     2.0649540000     0.7439760000
    4      C       0.7973720000     3.0012000000    -0.0903840000
    5      C       0.5049410000     1.6333130000    -0.1539360000
    6      C      -0.7444680000     1.1687140000     0.2622430000
    7      C       2.1144610000     3.5182320000    -0.5588650000
    8      C       3.1605950000     2.5153140000    -0.9412730000
    9      C       2.8710230000     1.1840180000    -1.0313080000
   10      C       1.5222990000     0.6705520000    -0.6620290000
   11      O       2.3177080000     4.7174390000    -0.6399850000
   12      O       1.2635300000    -0.5216280000    -0.7479280000
   13      H       0.0825100000     4.9531150000     0.4208210000
   14      H      -2.1435990000     4.1258130000     1.1815950000
   15      H      -2.6622220000     1.7027110000     1.0686550000
   16      H      -0.9504350000     0.1074160000     0.2002310000
   17      S       4.7620720000     3.0574980000    -1.4703300000
   18      C       5.1463730000     4.5940810000    -0.5474090000
   19      C       3.8681410000     0.1619380000    -1.4926760000
   20      H       6.2221260000     4.7172130000    -0.6819470000
   21      H       4.9308020000     4.4717000000     0.5124950000
   22      H       4.6074560000     5.4459700000    -0.9472710000
   23      H       4.0281940000     0.2318440000    -2.5746380000
   24      H       3.5085770000    -0.8410100000    -1.2708250000
   25      H       4.8387030000     0.3286380000    -1.0177340000
 ----------------------------------------------------------------

   15   -1012.1252034618      7.90e-09  Convergence criterion met
 Total energy in the final basis set =    -1012.1408198547

                    Orbital Energies (a.u.)
 --------------------------------------------------------------

 Alpha MOs
 -- Occupied --
-88.8670 -19.1343 -19.1277 -10.2884 -10.2781 -10.2363 -10.2147 -10.2077
-10.2066 -10.1975 -10.1971 -10.1971 -10.1964 -10.1962 -10.1710  -7.9529
 -5.9168  -5.9125  -5.9071  -1.0704  -1.0612  -0.8906  -0.8602  -0.7986
 -0.7777  -0.7770  -0.7253  -0.6861  -0.6672  -0.6279  -0.6095  -0.5844
 -0.5495  -0.5194  -0.4983  -0.4745  -0.4622  -0.4600  -0.4553  -0.4507
 -0.4393  -0.4300  -0.4250  -0.4127  -0.4099  -0.4018  -0.3922  -0.3798
 -0.3763  -0.3679  -0.3405  -0.3089  -0.2880  -0.2828  -0.2778  -0.2726
 -0.2364

          Ground-State Mulliken Net Atomic Charges

     Atom                 Charge (a.u.)
  ----------------------------------------
      1 C                     0.272268
      2 C                     0.285029
      3 C                     0.274166
      4 C                    -0.253382
      5 C                     0.074780
      6 C                    -0.047372
      7 C                    -1.286281
      8 C                     0.643501
      9 C                     0.803175
     10 C                    -1.712886
     11 O                    -0.215277
     12 O                    -0.281551
     13 H                     0.217521
     14 H                     0.321519
     15 H                     0.318140
     16 H                     0.191185
     17 S                    -0.505033
     18 C                    -0.442266
     19 C                     0.150689
     20 H                     0.219294
     21 H                     0.195206
     22 H                     0.192233
     23 H                     0.223514
     24 H                     0.166138
     25 H                     0.195688
  ----------------------------------------
  Sum of atomic charges =     0.000000

                    Cartesian Multipole Moments
 -----------------------------------------------------------------
    Charge (ESU x 10^10)
                -0.0000
    Dipole Moment (Debye)
         X      -0.6043      Y       1.8673      Z       1.6955
       Tot       2.5936
    Quadrupole Moments (Debye-Ang)
        XX     -78.5533     XY       1.5724     YY     -94.2168
        XZ      -1.0276     YZ       5.4471     ZZ     -96.4314

 Total job time:  431.10s(wall), 3340.32s(cpu)
        *  Thank you very much for using Q-Chem.  Have a nice day.  *
