 Gaussian 16, Revision A.03,
 Gaussian 16:  ES64L-G16RevA.03 25-Dec-2016

 ----------------------------------------------------------------------
 #P UB3LYP/6-311++G(d,p) nosym opt freq SCRF=(PCM,Solvent=n,n-DiMethylF
 ormamide)
 ----------------------------------------------------------------------

 --------
 Oxidized
 --------
 Symbolic Z-matrix:
 Charge =  0 Multiplicity = 1

 SCF Done:  E(UB3LYP) =  -989.995242175     A.U. after   13 cycles
 SCF Done:  E(UB3LYP) =  -989.995332800     A.U. after   10 cycles
 SCF Done:  E(UB3LYP) =  -989.995346484     A.U. after   10 cycles
 SCF Done:  E(UB3LYP) =  -989.995348254     A.U. after    9 cycles
 Optimization completed.
    -- Stationary point found.
 Normal termination of Gaussian 16 at Sat Feb 10 22:14:22 2024.

 ----------------------------------------------------------------------
 #P Geom=AllCheck Guess=TCheck SCRF=Check GenChk UB3LYP/6-311++G(d,p) F
 req
 ----------------------------------------------------------------------

 Structure from the checkpoint file:  "205.chk"
 --------
 Oxidized
 --------
 Charge =  0 Multiplicity = 1

                          Input orientation:
 ---------------------------------------------------------------------
 Center     Atomic      Atomic             Coordinates (Angstroms)
 Number     Number       Type             X           Y           Z
 ---------------------------------------------------------------------
      1          8           0       -2.729552   -2.542325    0.539348
      2          6           0       -2.559577   -1.218059    0.397608
      3          6           0       -3.718025   -0.411491    0.407356
      4          6           0       -3.627593    0.951300    0.268104
      5          6           0       -2.373856    1.580897    0.111520
      6          8           0       -2.367633    2.917203   -0.018387
      7          6           0       -1.203996    0.801440    0.097832
      8          6           0        0.095513    1.437423   -0.063700
      9          8           0        0.178842    2.693159   -0.192519
     10          6           0        1.298245    0.617275   -0.076434
     11          6           0        2.559743    1.218044   -0.231470
     12          8           0        2.730163    2.542242   -0.373142
     13          6           0        3.718057    0.411287   -0.241547
     14          6           0        3.627483   -0.951479   -0.102286
     15          6           0        2.373713   -1.580892    0.054642
     16          8           0        2.367371   -2.917174    0.184658
     17          6           0        1.203947   -0.801300    0.068612
     18          6           0       -0.095580   -1.437228    0.230355
     19          8           0       -0.179368   -2.693013    0.358331
     20          6           0       -1.298217   -0.617095    0.242868
     21          1           0       -1.831575   -2.953670    0.511254
     22          1           0       -4.679827   -0.894947    0.527373
     23          1           0       -4.516160    1.570631    0.275515
     24          1           0       -1.424103    3.193607   -0.116841
     25          1           0        1.832295    2.953833   -0.344625
     26          1           0        4.679907    0.894595   -0.361782
     27          1           0        4.515966   -1.570928   -0.109905
     28          1           0        1.423816   -3.193331    0.283552
 ---------------------------------------------------------------------

 SCF Done:  E(UB3LYP) =  -989.995348254     A.U. after    1 cycles

 Alpha  occ. eigenvalues --  -19.16849 -19.16847 -19.16847 -19.16840 -19.14838
 Alpha  occ. eigenvalues --  -19.14837 -10.29590 -10.29589 -10.27277 -10.27276
 Alpha  occ. eigenvalues --  -10.27275 -10.27273 -10.21707 -10.21704 -10.21664
 Alpha  occ. eigenvalues --  -10.21661 -10.20847 -10.20847 -10.20783 -10.20783
 Alpha  occ. eigenvalues --   -1.10173  -1.09989  -1.08924  -1.08801  -1.06022
 Alpha  occ. eigenvalues --   -1.05922  -0.90137  -0.88197  -0.82889  -0.78908
 Alpha  occ. eigenvalues --   -0.78208  -0.76600  -0.71293  -0.68827  -0.68066
 Alpha  occ. eigenvalues --   -0.64361  -0.63065  -0.59286  -0.56910  -0.56232
 Alpha  occ. eigenvalues --   -0.55793  -0.55318  -0.54978  -0.50788  -0.49542
 Alpha  occ. eigenvalues --   -0.48221  -0.47614  -0.47463  -0.47023  -0.45063
 Alpha  occ. eigenvalues --   -0.44698  -0.44579  -0.44196  -0.43975  -0.43690
 Alpha  occ. eigenvalues --   -0.42275  -0.41315  -0.40129  -0.40021  -0.40016
 Alpha  occ. eigenvalues --   -0.38587  -0.38342  -0.34386  -0.33513  -0.31089
 Alpha  occ. eigenvalues --   -0.30247  -0.29232  -0.28867  -0.25101  -0.23101
 Alpha virt. eigenvalues --   -0.13167  -0.07160  -0.04934  -0.00878  -0.00589
 Alpha virt. eigenvalues --    0.00397   0.00450   0.01256   0.02201   0.02495
 Alpha virt. eigenvalues --    0.03380   0.03439   0.03538   0.04132   0.04475

  Beta  occ. eigenvalues --  -19.16849 -19.16847 -19.16847 -19.16840 -19.14838
  Beta  occ. eigenvalues --  -19.14837 -10.29590 -10.29589 -10.27277 -10.27276
  Beta  occ. eigenvalues --  -10.27275 -10.27273 -10.21707 -10.21704 -10.21664
  Beta  occ. eigenvalues --  -10.21661 -10.20847 -10.20847 -10.20783 -10.20783
  Beta  occ. eigenvalues --   -1.10173  -1.09989  -1.08924  -1.08801  -1.06022
  Beta  occ. eigenvalues --   -1.05922  -0.90137  -0.88197  -0.82889  -0.78908
  Beta  occ. eigenvalues --   -0.78208  -0.76600  -0.71293  -0.68827  -0.68066
  Beta  occ. eigenvalues --   -0.64361  -0.63065  -0.59286  -0.56910  -0.56232
  Beta  occ. eigenvalues --   -0.55793  -0.55318  -0.54978  -0.50788  -0.49542
  Beta  occ. eigenvalues --   -0.48221  -0.47614  -0.47463  -0.47023  -0.45063
  Beta  occ. eigenvalues --   -0.44698  -0.44579  -0.44196  -0.43975  -0.43690
  Beta  occ. eigenvalues --   -0.42275  -0.41315  -0.40129  -0.40021  -0.40016
  Beta  occ. eigenvalues --   -0.38587  -0.38342  -0.34386  -0.33513  -0.31089
  Beta  occ. eigenvalues --   -0.30247  -0.29232  -0.28867  -0.25101  -0.23101
  Beta virt. eigenvalues --   -0.13167  -0.07160  -0.04934  -0.00878  -0.00589
  Beta virt. eigenvalues --    0.00397   0.00450   0.01256   0.02201   0.02495
  Beta virt. eigenvalues --    0.03380   0.03439   0.03538   0.04132   0.04475

 Mulliken charges and spin densities:
               1          2
     1  O   -0.329092  -0.000000
     2  C   -0.296959   0.000000
     3  C   -0.075190   0.000000
     4  C   -0.075030  -0.000000
     5  C   -0.297961   0.000000
     6  O   -0.328693  -0.000000
     7  C    0.492155   0.000000
     8  C   -0.373187   0.000000
     9  O   -0.419081  -0.000000
    10  C    0.492159  -0.000000
    11  C   -0.297933  -0.000000
    12  O   -0.328737   0.000000
    13  C   -0.075035   0.000000
    14  C   -0.075119   0.000000
    15  C   -0.298056  -0.000000
    16  O   -0.328680   0.000000
    17  C    0.492451  -0.000000
    18  C   -0.373285  -0.000000
    19  O   -0.419180  -0.000000
    20  C    0.491733  -0.000000
    21  H    0.373196   0.000000
    22  H    0.232653   0.000000
    23  H    0.232635   0.000000
    24  H    0.372969   0.000000
    25  H    0.372962  -0.000000
    26  H    0.232666   0.000000
    27  H    0.232633  -0.000000
    28  H    0.373006  -0.000000
 Sum of Mulliken charges =  -0.00000  -0.00000

 Dipole moment (field-independent basis, Debye):
    X=              0.0024    Y=              0.0011    Z=              0.0022  Tot=              0.0035
 Quadrupole moment (field-independent basis, Debye-Ang):
   XX=           -100.9442   YY=           -131.5252   ZZ=           -115.4580
   XY=             -2.1521   XZ=             -0.8892   YZ=              1.7358

  Exact polarizability: 505.515 -15.289 318.139 -28.305 -18.405 120.519
 Approx polarizability: 585.704 -14.904 410.254 -32.775 -25.229 143.715

                      1                      2                      3
                      A                      A                      A
 Frequencies --     56.5469                68.4409               132.2750
 Red. masses --      6.5271                 9.3681                13.8841
 Frc consts  --      0.0123                 0.0259                 0.1431
 IR Inten    --      1.4474                 0.0019                 0.0000

                      4                      5                      6
                      A                      A                      A
 Frequencies --    147.1320               154.0406               186.7439
 Red. masses --      5.5514                 8.8867                 7.8028
 Frc consts  --      0.0708                 0.1242                 0.1603
 IR Inten    --      0.0000                 2.7454                 0.0059

                      7                      8                      9
                      A                      A                      A
 Frequencies --    206.0109               240.4302               297.3853
 Red. masses --      6.8844                 8.4790                 7.2939
 Frc consts  --      0.1721                 0.2888                 0.3801
 IR Inten    --      5.7318                 0.0000                 0.0001

                     10                     11                     12
                      A                      A                      A
 Frequencies --    307.5461               363.3196               365.0620
 Red. masses --      6.9891                 5.4042                 5.4905
 Frc consts  --      0.3895                 0.4203                 0.4311
 IR Inten    --      0.0000                 0.0002                 0.0000

                     13                     14                     15
                      A                      A                      A
 Frequencies --    402.6595               422.5172               426.6042
 Red. masses --      5.3161                11.2637                 7.2582
 Frc consts  --      0.5078                 1.1847                 0.7783
 IR Inten    --     14.3335                 0.0000                 0.0000

                     16                     17                     18
                      A                      A                      A
 Frequencies --    436.4015               466.2239               466.6444
 Red. masses --      8.4555                10.1433                 8.7748
 Frc consts  --      0.9488                 1.2990                 1.1258
 IR Inten    --      0.0000                33.9002                 0.0081

                     19                     20                     21
                      A                      A                      A
 Frequencies --    481.8749               488.8502               497.5799
 Red. masses --     12.8083                 6.3062                 7.8556
 Frc consts  --      1.7523                 0.8879                 1.1459
 IR Inten    --     74.0788                 0.0017                31.0005

                     22                     23                     24
                      A                      A                      A
 Frequencies --    512.6500               554.8166               559.2499
 Red. masses --      5.1142                 3.6512                 9.5255
 Frc consts  --      0.7919                 0.6622                 1.7553
 IR Inten    --      0.0000                30.7674                 0.0011

                     25                     26                     27
                      A                      A                      A
 Frequencies --    603.9824               610.3275               671.1889
 Red. masses --      3.0428                 4.3363                 6.3297
 Frc consts  --      0.6540                 0.9517                 1.6800
 IR Inten    --      0.0000                54.5687                 0.0000

                     28                     29                     30
                      A                      A                      A
 Frequencies --    700.5071               715.0587               740.6179
 Red. masses --      8.3867                 7.3004                11.8219
 Frc consts  --      2.4248                 2.1993                 3.8206
 IR Inten    --      0.0025                 0.0000                 0.0005

                     31                     32                     33
                      A                      A                      A
 Frequencies --    744.9121               746.2409               748.2217
 Red. masses --      1.1621                 1.0735                 7.7836
 Frc consts  --      0.3799                 0.3522                 2.5674
 IR Inten    --    541.8269                 0.4246                43.3585

                     34                     35                     36
                      A                      A                      A
 Frequencies --    761.1821               762.1579               774.8258
 Red. masses --      1.0600                 1.1054                 4.7243
 Frc consts  --      0.3619                 0.3783                 1.6711
 IR Inten    --      8.1911                 0.0006               110.0187

                     37                     38                     39
                      A                      A                      A
 Frequencies --    842.7589               855.6621               855.9450
 Red. masses --      9.3823                 1.5831                 1.6424
 Frc consts  --      3.9261                 0.6829                 0.7090
 IR Inten    --    117.9930                 0.0001                77.1133

                     40                     41                     42
                      A                      A                      A
 Frequencies --    868.6507               979.5925               981.9299
 Red. masses --      8.7270                 4.8526                 1.2902
 Frc consts  --      3.8797                 2.7436                 0.7329
 IR Inten    --      0.0000                 0.0019                 0.0003

                     43                     44                     45
                      A                      A                      A
 Frequencies --    984.6734               990.3242              1015.0510
 Red. masses --      1.3063                 8.8952                 4.7360
 Frc consts  --      0.7463                 5.1399                 2.8750
 IR Inten    --      0.0000               203.3762                 0.0001

                     46                     47                     48
                      A                      A                      A
 Frequencies --   1126.9247              1174.3638              1184.1785
 Red. masses --      1.5423                 1.2806                 2.4327
 Frc consts  --      1.1540                 1.0406                 2.0099
 IR Inten    --     97.7648                 0.0004               177.5175

                     49                     50                     51
                      A                      A                      A
 Frequencies --   1189.1016              1245.0390              1276.7085
 Red. masses --      2.4208                 1.7554                 5.9545
 Frc consts  --      2.0167                 1.6032                 5.7184
 IR Inten    --   2660.3837                 0.0010                 0.0001

                     52                     53                     54
                      A                      A                      A
 Frequencies --   1278.9245              1306.3706              1320.3700
 Red. masses --      4.5435                 3.7975                 2.5966
 Frc consts  --      4.3785                 3.8184                 2.6672
 IR Inten    --    227.4050               627.5073                 0.0001

                     55                     56                     57
                      A                      A                      A
 Frequencies --   1343.8648              1356.0741              1379.5235
 Red. masses --      2.3339                 2.4951                 3.0318
 Frc consts  --      2.4834                 2.7034                 3.3994
 IR Inten    --   1057.0840                 0.0230               782.4247

                     58                     59                     60
                      A                      A                      A
 Frequencies --   1419.9284              1422.8751              1435.9479
 Red. masses --      6.9907                10.2421                 3.3614
 Frc consts  --      8.3044                12.2172                 4.0836
 IR Inten    --      0.0312               255.4799                 0.0033

                     61                     62                     63
                      A                      A                      A
 Frequencies --   1454.9730              1470.6575              1470.9573
 Red. masses --      6.2005                 2.8996                 2.0631
 Frc consts  --      7.7337                 3.6950                 2.6301
 IR Inten    --      0.0014                 0.0964               805.4810

                     64                     65                     66
                      A                      A                      A
 Frequencies --   1509.4285              1591.6916              1593.1470
 Red. masses --      2.2802                 2.2709                 5.9752
 Frc consts  --      3.0609                 3.3898                 8.9354
 IR Inten    --    303.9960                 0.2487              1190.4716

                     67                     68                     69
                      A                      A                      A
 Frequencies --   1608.5512              1621.9198              1637.2343
 Red. masses --      3.8408                 5.9312                 3.5307
 Frc consts  --      5.8552                 9.1928                 5.5760
 IR Inten    --      0.0017               409.6146                14.4556

                     70                     71                     72
                      A                      A                      A
 Frequencies --   1671.8974              3192.6890              3192.7524
 Red. masses --      7.8033                 1.0886                 1.0886
 Frc consts  --     12.8513                 6.5377                 6.5379
 IR Inten    --      0.0002                 0.0070                 6.6141

                     73                     74                     75
                      A                      A                      A
 Frequencies --   3205.1401              3205.2638              3308.4449
 Red. masses --      1.0963                 1.0962                 1.0665
 Frc consts  --      6.6352                 6.6356                 6.8781
 IR Inten    --     15.5282                 0.0032                 5.0432

                     76                     77                     78
                      A                      A                      A
 Frequencies --   3309.8489              3338.6357              3342.9324
 Red. masses --      1.0670                 1.0691                 1.0683
 Frc consts  --      6.8869                 7.0212                 7.0338
 IR Inten    --   1130.2606                 0.0401               182.1598

 - Thermochemistry -
 -------------------
 Temperature   298.150 Kelvin.  Pressure   1.00000 Atm.
 Atom     1 has atomic number  8 and mass  15.99491

 Molecular mass:   272.03209 amu.
 Principal axes and moments of inertia in atomic units:
                           1         2         3
     Eigenvalues --  3417.509275505.927088923.43615
           X            0.99492   0.06597   0.07604
           Y           -0.07319   0.99265   0.09638
           Z           -0.06912  -0.10146   0.99244
 This molecule is an asymmetric top.
 Rotational symmetry number  1.
 Warning -- assumption of classical behavior for rotation
           may cause significant error
 Rotational temperatures (Kelvin)      0.02534     0.01573     0.00971
 Rotational constants (GHZ):           0.52809     0.32778     0.20225
 Zero-point vibrational energy     516674.2 (Joules/Mol)
                                  123.48809 (Kcal/Mol)
 Warning -- explicit consideration of  26 degrees of freedom as
           vibrations may cause significant error
 Vibrational temperatures:     81.36    98.47   190.31   211.69   221.63
          (Kelvin)            268.68   296.40   345.93   427.87   442.49
                              522.74   525.24   579.34   607.91   613.79
                              627.88   670.79   671.40   693.31   703.35
                              715.91   737.59   798.26   804.64   869.00
                              878.13   965.69  1007.87  1028.81  1065.58
                             1071.76  1073.67  1076.52  1095.17  1096.58
                             1114.80  1212.54  1231.11  1231.51  1249.79
                             1409.42  1412.78  1416.73  1424.86  1460.43
                             1621.39  1689.65  1703.77  1710.85  1791.33
                             1836.90  1840.09  1879.58  1899.72  1933.52
                             1951.09  1984.83  2042.96  2047.20  2066.01
                             2093.38  2115.95  2116.38  2171.73  2290.09
                             2292.18  2314.35  2333.58  2355.61  2405.49
                             4593.57  4593.66  4611.48  4611.66  4760.11
                             4762.13  4803.55  4809.73

 Zero-point correction=                           0.196791 (Hartree/Particle)
 Thermal correction to Energy=                    0.211271
 Thermal correction to Enthalpy=                  0.212215
 Thermal correction to Gibbs Free Energy=         0.155969
 Sum of electronic and zero-point Energies=           -989.798557
 Sum of electronic and thermal Energies=              -989.784077
 Sum of electronic and thermal Enthalpies=            -989.783133
 Sum of electronic and thermal Free Energies=         -989.839380

                     E (Thermal)             CV                S
                      KCal/Mol        Cal/Mol-Kelvin    Cal/Mol-Kelvin
 Total                  132.575             59.969            118.382
 Electronic               0.000              0.000              0.000
 Translational            0.889              2.981             42.701
 Rotational               0.889              2.981             33.484
 Vibrational            130.797             54.007             42.196
 Vibration     1          0.596              1.975              4.574
 Vibration     2          0.598              1.969              4.198
 Vibration     3          0.612              1.921              2.913
 Vibration     4          0.617              1.906              2.709
 Vibration     5          0.620              1.898              2.622
 Vibration     6          0.632              1.858              2.260
 Vibration     7          0.640              1.831              2.079
 Vibration     8          0.658              1.779              1.800
 Vibration     9          0.691              1.679              1.432
 Vibration    10          0.697              1.659              1.375
 Vibration    11          0.737              1.548              1.108
 Vibration    12          0.738              1.544              1.100
 Vibration    13          0.768              1.464              0.953
 Vibration    14          0.785              1.421              0.883
 Vibration    15          0.788              1.412              0.870
 Vibration    16          0.797              1.391              0.838
 Vibration    17          0.824              1.325              0.748
 Vibration    18          0.824              1.324              0.747
 Vibration    19          0.838              1.290              0.705
 Vibration    20          0.845              1.275              0.687
 Vibration    21          0.853              1.255              0.664
 Vibration    22          0.868              1.222              0.627
 Vibration    23          0.910              1.129              0.534
 Vibration    24          0.915              1.119              0.525
 Vibration    25          0.962              1.023              0.443
 Vibration    26          0.969              1.010              0.432

 Optimization completed.
    -- Stationary point found.
 Normal termination of Gaussian 16 at Sat Feb 10 22:57:09 2024.
