 Gaussian 16, Revision A.03,
 Gaussian 16:  ES64L-G16RevA.03 25-Dec-2016

 --------------------------------------
 #P UB3LYP/6-311++G(d,p) nosym opt freq
 --------------------------------------

 -------
 Reduced
 -------
 Symbolic Z-matrix:
 Charge = -2 Multiplicity = 1

 SCF Done:  E(UB3LYP) =  -1608.16711099     A.U. after   19 cycles
 SCF Done:  E(UB3LYP) =  -1608.16711117     A.U. after   11 cycles
 Optimization completed.
    -- Stationary point found.
 Normal termination of Gaussian 16 at Wed Dec 27 19:56:43 2023.

 ----------------------------------------------------------------------
 #P Geom=AllCheck Guess=TCheck SCRF=Check GenChk UB3LYP/6-311++G(d,p) F
 req
 ----------------------------------------------------------------------

 Structure from the checkpoint file:  "121-an.chk"
 -------
 Reduced
 -------
 Charge = -2 Multiplicity = 1

                          Input orientation:
 ---------------------------------------------------------------------
 Center     Atomic      Atomic             Coordinates (Angstroms)
 Number     Number       Type             X           Y           Z
 ---------------------------------------------------------------------
      1         17           0        2.651216    3.207167   -0.522490
      2          6           0        2.474594    1.443365   -0.206843
      3          6           0        3.679110    0.792276   -0.062160
      4          6           0        3.692890   -0.604468    0.191319
      5          6           0        2.498497   -1.277925    0.287020
      6          6           0        1.245811   -0.633365    0.142451
      7          6           0        0.072664   -1.485748    0.271011
      8          8           0        0.196463   -2.738740    0.501041
      9          6           0       -1.197918   -0.807935    0.119926
     10          6           0       -2.474757   -1.443394    0.206841
     11         17           0       -2.652028   -3.207137    0.522465
     12          6           0       -3.679171   -0.792165    0.062153
     13          6           0       -3.692819    0.604576   -0.191320
     14          6           0       -2.498375    1.277900   -0.287014
     15          6           0       -1.245736    0.633247   -0.142451
     16          6           0       -0.072582    1.485594   -0.271022
     17          8           0       -0.196025    2.738625   -0.501008
     18          6           0        1.197937    0.807741   -0.119914
     19          1           0        4.602308    1.354980   -0.143674
     20          1           0        4.642187   -1.123173    0.306322
     21          1           0        2.454822   -2.344486    0.479386
     22          1           0       -4.602428   -1.354777    0.143663
     23          1           0       -4.642057    1.123385   -0.306324
     24          1           0       -2.454604    2.344457   -0.479377
 ---------------------------------------------------------------------

 SCF Done:  E(UB3LYP) =  -1608.16711117     A.U. after    2 cycles

 Alpha  occ. eigenvalues -- -101.30549-101.30547 -18.77608 -18.77607  -9.99045
 Alpha  occ. eigenvalues --   -9.99044  -9.94638  -9.94636  -9.93640  -9.93640
 Alpha  occ. eigenvalues --   -9.93368  -9.93367  -9.92342  -9.92340  -9.92186
 Alpha  occ. eigenvalues --   -9.92186  -9.91199  -9.91198  -9.22002  -9.22000
 Alpha  occ. eigenvalues --   -6.98428  -6.98426  -6.97537  -6.97535  -6.97445
 Alpha  occ. eigenvalues --   -6.97442  -0.70300  -0.69858  -0.63268  -0.63140
 Alpha  occ. eigenvalues --   -0.58402  -0.57735  -0.52988  -0.48974  -0.48646
 Alpha  occ. eigenvalues --   -0.48368  -0.41163  -0.38720  -0.37489  -0.32798
 Alpha  occ. eigenvalues --   -0.29486  -0.29252  -0.27278  -0.23140  -0.21857
 Alpha  occ. eigenvalues --   -0.21386  -0.20944  -0.18201  -0.18063  -0.16521
 Alpha  occ. eigenvalues --   -0.16081  -0.14622  -0.14311  -0.14247  -0.11756
 Alpha  occ. eigenvalues --   -0.10780  -0.10374  -0.10077  -0.09774  -0.08319
 Alpha  occ. eigenvalues --   -0.07294  -0.07070  -0.06869  -0.06559  -0.00423
 Alpha  occ. eigenvalues --    0.00412   0.00527   0.01255   0.04420   0.05142
 Alpha  occ. eigenvalues --    0.12982
 Alpha virt. eigenvalues --    0.16297   0.16334   0.18226   0.18304   0.19406
 Alpha virt. eigenvalues --    0.20547   0.21380   0.21483   0.21689   0.22405
 Alpha virt. eigenvalues --    0.23169   0.24989   0.25872   0.26029   0.26058

  Beta  occ. eigenvalues -- -101.30549-101.30547 -18.77608 -18.77607  -9.99045
  Beta  occ. eigenvalues --   -9.99044  -9.94638  -9.94636  -9.93640  -9.93640
  Beta  occ. eigenvalues --   -9.93368  -9.93367  -9.92342  -9.92340  -9.92186
  Beta  occ. eigenvalues --   -9.92186  -9.91199  -9.91198  -9.22002  -9.22000
  Beta  occ. eigenvalues --   -6.98428  -6.98426  -6.97537  -6.97535  -6.97445
  Beta  occ. eigenvalues --   -6.97442  -0.70300  -0.69858  -0.63268  -0.63140
  Beta  occ. eigenvalues --   -0.58402  -0.57735  -0.52988  -0.48974  -0.48646
  Beta  occ. eigenvalues --   -0.48368  -0.41163  -0.38720  -0.37489  -0.32798
  Beta  occ. eigenvalues --   -0.29486  -0.29252  -0.27278  -0.23140  -0.21857
  Beta  occ. eigenvalues --   -0.21386  -0.20944  -0.18201  -0.18063  -0.16521
  Beta  occ. eigenvalues --   -0.16081  -0.14622  -0.14311  -0.14247  -0.11756
  Beta  occ. eigenvalues --   -0.10780  -0.10374  -0.10077  -0.09774  -0.08319
  Beta  occ. eigenvalues --   -0.07294  -0.07070  -0.06869  -0.06559  -0.00423
  Beta  occ. eigenvalues --    0.00412   0.00527   0.01255   0.04420   0.05142
  Beta  occ. eigenvalues --    0.12982
  Beta virt. eigenvalues --    0.16297   0.16334   0.18226   0.18304   0.19406
  Beta virt. eigenvalues --    0.20547   0.21380   0.21483   0.21689   0.22405
  Beta virt. eigenvalues --    0.23169   0.24989   0.25872   0.26029   0.26058

 Mulliken charges and spin densities:
               1          2
     1  Cl   0.283649   0.000000
     2  C    0.990278   0.000000
     3  C   -0.324043  -0.000000
     4  C   -0.650613  -0.000000
     5  C    0.432798   0.000000
     6  C    0.402506  -0.000000
     7  C   -2.063729   0.000000
     8  O   -0.379253  -0.000000
     9  C   -0.018643  -0.000000
    10  C    0.990249   0.000000
    11  Cl   0.283845  -0.000000
    12  C   -0.323974   0.000000
    13  C   -0.650923  -0.000000
    14  C    0.433142   0.000000
    15  C    0.403288   0.000000
    16  C   -2.063584  -0.000000
    17  O   -0.379102   0.000000
    18  C   -0.018368   0.000000
    19  H    0.098719   0.000000
    20  H    0.077010  -0.000000
    21  H    0.150498   0.000000
    22  H    0.098756  -0.000000
    23  H    0.077000  -0.000000
    24  H    0.150492   0.000000
 Sum of Mulliken charges =  -2.00000  -0.00000

 Dipole moment (field-independent basis, Debye):
    X=              0.0001    Y=              0.0010    Z=             -0.0002  Tot=              0.0011
 Quadrupole moment (field-independent basis, Debye-Ang):
   XX=           -172.8069   YY=           -191.5633   ZZ=           -131.7718
   XY=            -15.7906   XZ=              1.9097   YZ=             10.8407

  Exact polarizability: 433.720  24.266 285.424   2.307 -27.527 135.634
 Approx polarizability: 781.283   1.720 527.601  12.640 -60.070 207.249

                      1                      2                      3
                      A                      A                      A
 Frequencies --     15.1848                44.9573                50.2336
 Red. masses --     16.9422                13.7872                 6.5949
 Frc consts  --      0.0023                 0.0164                 0.0098
 IR Inten    --      3.4862                 0.0001                 4.4656

                      4                      5                      6
                      A                      A                      A
 Frequencies --    156.1052               158.8987               193.8590
 Red. masses --      6.9667                12.1517                23.2832
 Frc consts  --      0.1000                 0.1808                 0.5155
 IR Inten    --      2.6913                 6.9425                 0.0000

                      7                      8                      9
                      A                      A                      A
 Frequencies --    198.0753               206.8427               260.6887
 Red. masses --      4.5802                 5.2655                 5.8021
 Frc consts  --      0.1059                 0.1327                 0.2323
 IR Inten    --      0.0000                 0.1236                 0.0000

                     10                     11                     12
                      A                      A                      A
 Frequencies --    316.4639               321.3419               359.5921
 Red. masses --     12.5595                17.1973                 6.2333
 Frc consts  --      0.7411                 1.0463                 0.4749
 IR Inten    --      0.6142                 0.0000                 0.0000

                     13                     14                     15
                      A                      A                      A
 Frequencies --    376.5063               380.4609               405.8050
 Red. masses --      7.7332                13.0633                 7.8370
 Frc consts  --      0.6459                 1.1141                 0.7604
 IR Inten    --      0.0000                 7.8754                22.2317

                     16                     17                     18
                      A                      A                      A
 Frequencies --    414.6436               478.4137               484.3135
 Red. masses --      8.4077                 9.0305                 4.2236
 Frc consts  --      0.8517                 1.2178                 0.5837
 IR Inten    --      0.0000                 0.0000                 0.0178

                     19                     20                     21
                      A                      A                      A
 Frequencies --    490.6425               500.0087               557.2656
 Red. masses --      5.5208                12.0803                 5.0819
 Frc consts  --      0.7830                 1.7794                 0.9298
 IR Inten    --      1.5301                 0.0000                 0.0000

                     22                     23                     24
                      A                      A                      A
 Frequencies --    603.3605               612.5328               672.9115
 Red. masses --      6.5129                 4.8500                 1.8674
 Frc consts  --      1.3969                 1.0721                 0.4982
 IR Inten    --     34.2501                 0.0000                70.1667

                     25                     26                     27
                      A                      A                      A
 Frequencies --    688.9950               689.8454               712.6446
 Red. masses --      8.5805                 7.0808                 1.2725
 Frc consts  --      2.3999                 1.9853                 0.3808
 IR Inten    --    151.8475                 0.0001                 0.0000

                     28                     29                     30
                      A                      A                      A
 Frequencies --    726.4013               753.3533               766.2338
 Red. masses --      4.6689                 2.8706                 8.7007
 Frc consts  --      1.4515                 0.9599                 3.0097
 IR Inten    --     26.2519                24.7983                 0.0000

                     31                     32                     33
                      A                      A                      A
 Frequencies --    793.6478               802.7148               813.9678
 Red. masses --      1.4432                 1.3596                 5.2741
 Frc consts  --      0.5356                 0.5162                 2.0588
 IR Inten    --      0.0000                 1.3059                 0.0000

                     34                     35                     36
                      A                      A                      A
 Frequencies --    819.1815               931.0911               948.9247
 Red. masses --      6.9638                 6.8745                 8.5861
 Frc consts  --      2.7533                 3.5114                 4.5552
 IR Inten    --     17.3452                 0.0001                53.3487

                     37                     38                     39
                      A                      A                      A
 Frequencies --    969.5959               970.6877              1058.5840
 Red. masses --      1.2964                 1.3010                 2.1680
 Frc consts  --      0.7181                 0.7222                 1.4314
 IR Inten    --      0.0000                 3.7801               337.4266

                     40                     41                     42
                      A                      A                      A
 Frequencies --   1062.7320              1083.0746              1097.8624
 Red. masses --      2.1968                 3.1044                 2.7683
 Frc consts  --      1.4618                 2.1456                 1.9659
 IR Inten    --      0.0052                37.0712                 0.0010

                     43                     44                     45
                      A                      A                      A
 Frequencies --   1118.0017              1154.2674              1181.7784
 Red. masses --      2.4060                 1.3529                 3.0267
 Frc consts  --      1.7718                 1.0620                 2.4905
 IR Inten    --    271.1876                 0.0000                 0.0001

                     46                     47                     48
                      A                      A                      A
 Frequencies --   1193.2088              1219.2812              1308.4001
 Red. masses --      2.1154                 2.5255                 3.6969
 Frc consts  --      1.7745                 2.2121                 3.7288
 IR Inten    --    121.5366                77.4013                 0.1253

                     49                     50                     51
                      A                      A                      A
 Frequencies --   1312.6643              1336.0330              1337.4603
 Red. masses --      5.3648                 2.5835                 3.1504
 Frc consts  --      5.4464                 2.7170                 3.3203
 IR Inten    --    678.6720                 0.0059               694.8405

                     52                     53                     54
                      A                      A                      A
 Frequencies --   1412.1877              1419.3654              1459.0145
 Red. masses --      3.0128                 5.2117                 3.1626
 Frc consts  --      3.5400                 6.1861                 3.9666
 IR Inten    --    196.9048                 0.0000                 0.0000

                     55                     56                     57
                      A                      A                      A
 Frequencies --   1468.9840              1481.0311              1510.9544
 Red. masses --      8.5850                 4.8197                 5.3826
 Frc consts  --     10.9150                 6.2287                 7.2401
 IR Inten    --      0.0038               840.4157               133.5858

                     58                     59                     60
                      A                      A                      A
 Frequencies --   1569.8916              1570.0392              1579.3894
 Red. masses --      7.4634                 5.5310                 5.7105
 Frc consts  --     10.8374                 8.0329                 8.3927
 IR Inten    --      0.0069                 3.1855                 0.0001

                     61                     62                     63
                      A                      A                      A
 Frequencies --   3111.7777              3112.1650              3160.7480
 Red. masses --      1.0853                 1.0856                 1.0907
 Frc consts  --      6.1918                 6.1949                 6.4198
 IR Inten    --    137.9075                 0.0568                80.5578

                     64                     65                     66
                      A                      A                      A
 Frequencies --   3160.9007              3169.4443              3169.9029
 Red. masses --      1.0905                 1.0913                 1.0914
 Frc consts  --      6.4196                 6.4588                 6.4613
 IR Inten    --      0.7141                67.6593                 0.0002

 - Thermochemistry -
 -------------------
 Temperature   298.150 Kelvin.  Pressure   1.00000 Atm.
 Atom     1 has atomic number 17 and mass  34.96885

 Molecular mass:   275.97448 amu.
 Principal axes and moments of inertia in atomic units:
                           1         2         3
     Eigenvalues --  2764.561697285.51641**********
           X            0.81370  -0.58088  -0.02180
           Y            0.57487   0.79858   0.17832
           Z           -0.08617  -0.15763   0.98373
 This molecule is an asymmetric top.
 Rotational symmetry number  1.
 Warning -- assumption of classical behavior for rotation
           may cause significant error
 Rotational temperatures (Kelvin)      0.03133     0.01189     0.00862
 Rotational constants (GHZ):           0.65281     0.24772     0.17957
 Zero-point vibrational energy     403533.5 (Joules/Mol)
                                   96.44683 (Kcal/Mol)
 Warning -- explicit consideration of  23 degrees of freedom as
           vibrations may cause significant error
 Vibrational temperatures:     21.85    64.68    72.28   224.60   228.62
          (Kelvin)            278.92   284.99   297.60   375.07   455.32
                              462.34   517.37   541.71   547.40   583.86
                              596.58   688.33   696.82   705.93   719.40
                              801.78   868.10   881.30   968.17   991.31
                              992.53  1025.34  1045.13  1083.91  1102.44
                             1141.88  1154.93  1171.12  1178.62  1339.63
                             1365.29  1395.03  1396.60  1523.07  1529.03
                             1558.30  1579.58  1608.56  1660.73  1700.32
                             1716.76  1754.27  1882.50  1888.63  1922.25
                             1924.31  2031.82  2042.15  2099.20  2113.54
                             2130.87  2173.93  2258.72  2258.94  2272.39
                             4477.15  4477.71  4547.61  4547.83  4560.12
                             4560.78

 Zero-point correction=                           0.153698 (Hartree/Particle)
 Thermal correction to Energy=                    0.167893
 Thermal correction to Enthalpy=                  0.168837
 Thermal correction to Gibbs Free Energy=         0.110624
 Sum of electronic and zero-point Energies=          -1608.013413
 Sum of electronic and thermal Energies=             -1607.999219
 Sum of electronic and thermal Enthalpies=           -1607.998274
 Sum of electronic and thermal Free Energies=        -1608.056487

                     E (Thermal)             CV                S
                      KCal/Mol        Cal/Mol-Kelvin    Cal/Mol-Kelvin
 Total                  105.354             55.425            122.518
 Electronic               0.000              0.000              0.000
 Translational            0.889              2.981             42.744
 Rotational               0.889              2.981             33.670
 Vibrational            103.577             49.463             46.104
 Vibration     1          0.593              1.986              7.181
 Vibration     2          0.595              1.979              5.028
 Vibration     3          0.595              1.978              4.808
 Vibration     4          0.620              1.896              2.596
 Vibration     5          0.621              1.893              2.563
 Vibration     6          0.635              1.848              2.191
 Vibration     7          0.637              1.843              2.151
 Vibration     8          0.641              1.830              2.071
 Vibration     9          0.669              1.745              1.657
 Vibration    10          0.703              1.642              1.328
 Vibration    11          0.707              1.633              1.303
 Vibration    12          0.734              1.556              1.124
 Vibration    13          0.747              1.520              1.053
 Vibration    14          0.750              1.512              1.037
 Vibration    15          0.771              1.458              0.942
 Vibration    16          0.778              1.438              0.910
 Vibration    17          0.835              1.298              0.714
 Vibration    18          0.840              1.285              0.699
 Vibration    19          0.846              1.271              0.682
 Vibration    20          0.855              1.250              0.658
 Vibration    21          0.913              1.124              0.529
 Vibration    22          0.962              1.025              0.444
 Vibration    23          0.972              1.005              0.429

 Optimization completed.
    -- Stationary point found.
 Normal termination of Gaussian 16 at Wed Dec 27 20:48:35 2023.
