 Q-Chem 5.4, Q-Chem, Inc., Pleasanton, CA (2021)
 Q-Chem 5.4.0 for Intel X86 EM64T Linux

User input:
--------------------------------------------------------------
$molecule
-2 1
Cl                 2.6512160000      3.2071670000     -0.5224900000
C                  2.4745940000      1.4433650000     -0.2068430000
C                  3.6791100000      0.7922760000     -0.0621600000
C                  3.6928900000     -0.6044680000      0.1913190000
C                  2.4984970000     -1.2779250000      0.2870200000
C                  1.2458110000     -0.6333650000      0.1424510000
C                  0.0726640000     -1.4857480000      0.2710110000
O                  0.1964630000     -2.7387400000      0.5010410000
C                 -1.1979180000     -0.8079350000      0.1199260000
C                 -2.4747570000     -1.4433940000      0.2068410000
Cl                -2.6520280000     -3.2071370000      0.5224650000
C                 -3.6791710000     -0.7921650000      0.0621530000
C                 -3.6928190000      0.6045760000     -0.1913200000
C                 -2.4983750000      1.2779000000     -0.2870140000
C                 -1.2457360000      0.6332470000     -0.1424510000
C                 -0.0725820000      1.4855940000     -0.2710220000
O                 -0.1960250000      2.7386250000     -0.5010080000
C                  1.1979370000      0.8077410000     -0.1199140000
H                  4.6023080000      1.3549800000     -0.1436740000
H                  4.6421870000     -1.1231730000      0.3063220000
H                  2.4548220000     -2.3444860000      0.4793860000
H                 -4.6024280000     -1.3547770000      0.1436630000
H                 -4.6420570000      1.1233850000     -0.3063240000
H                 -2.4546040000      2.3444570000     -0.4793770000
$end

$rem
BASIS  =  6-311++G(d,p)
GUI  =  2
JOB_TYPE  =  SP
METHOD  =  B3LYP
SCF_CONVERGENCE  = 8
SOLVENT_METHOD = sm12
$end

$smx
solvent dimethylformamide
charges CM5
$end

--------------------------------------------------------------

             Standard Nuclear Orientation (Angstroms)
    I     Atom           X                Y                Z
 ----------------------------------------------------------------
    1      Cl      2.6512160000     3.2071670000    -0.5224900000
    2      C       2.4745940000     1.4433650000    -0.2068430000
    3      C       3.6791100000     0.7922760000    -0.0621600000
    4      C       3.6928900000    -0.6044680000     0.1913190000
    5      C       2.4984970000    -1.2779250000     0.2870200000
    6      C       1.2458110000    -0.6333650000     0.1424510000
    7      C       0.0726640000    -1.4857480000     0.2710110000
    8      O       0.1964630000    -2.7387400000     0.5010410000
    9      C      -1.1979180000    -0.8079350000     0.1199260000
   10      C      -2.4747570000    -1.4433940000     0.2068410000
   11      Cl     -2.6520280000    -3.2071370000     0.5224650000
   12      C      -3.6791710000    -0.7921650000     0.0621530000
   13      C      -3.6928190000     0.6045760000    -0.1913200000
   14      C      -2.4983750000     1.2779000000    -0.2870140000
   15      C      -1.2457360000     0.6332470000    -0.1424510000
   16      C      -0.0725820000     1.4855940000    -0.2710220000
   17      O      -0.1960250000     2.7386250000    -0.5010080000
   18      C       1.1979370000     0.8077410000    -0.1199140000
   19      H       4.6023080000     1.3549800000    -0.1436740000
   20      H       4.6421870000    -1.1231730000     0.3063220000
   21      H       2.4548220000    -2.3444860000     0.4793860000
   22      H      -4.6024280000    -1.3547770000     0.1436630000
   23      H      -4.6420570000     1.1233850000    -0.3063240000
   24      H      -2.4546040000     2.3444570000    -0.4793770000
 ----------------------------------------------------------------

   16   -1608.1598110828      7.21e-09  Convergence criterion met
 Total energy in the final basis set =    -1608.4263332517

                    Orbital Energies (a.u.)
 --------------------------------------------------------------

 Alpha MOs
 -- Occupied --
********-101.5350 -19.0233 -19.0233 -10.2277 -10.2277 -10.1928 -10.1928
-10.1735 -10.1735 -10.1730 -10.1729 -10.1683 -10.1683 -10.1646 -10.1646
-10.1577 -10.1577  -9.4483  -9.4483  -7.2127  -7.2127  -7.2036  -7.2036
 -7.2027  -7.2027  -0.9494  -0.9461  -0.8697  -0.8683  -0.8212  -0.8137
 -0.7726  -0.7307  -0.7260  -0.7223  -0.6545  -0.6282  -0.6159  -0.5677
 -0.5350  -0.5339  -0.5117  -0.4694  -0.4570  -0.4550  -0.4499  -0.4183
 -0.4169  -0.4052  -0.4046  -0.3863  -0.3828  -0.3790  -0.3638  -0.3476
 -0.3428  -0.3413  -0.3382  -0.3234  -0.3097  -0.3052  -0.2957  -0.2945
 -0.2432  -0.2401  -0.2345  -0.2321  -0.2010  -0.1934  -0.1161

          Ground-State Mulliken Net Atomic Charges

     Atom                 Charge (a.u.)
  ----------------------------------------
      1 Cl                    0.958212
      2 C                     0.883091
      3 C                     2.104208
      4 C                     1.004470
      5 C                     0.266777
      6 C                    -1.416313
      7 C                    -4.044256
      8 O                    -0.217025
      9 C                    -1.376171
     10 C                     0.883285
     11 Cl                    0.958523
     12 C                     2.105077
     13 C                     1.003670
     14 C                     0.267378
     15 C                    -1.415345
     16 C                    -4.044098
     17 O                    -0.216853
     18 C                    -1.375414
     19 H                     0.378758
     20 H                     0.362003
     21 H                     0.094636
     22 H                     0.378811
     23 H                     0.361931
     24 H                     0.094644
  ----------------------------------------
  Sum of atomic charges =    -2.000000

                    Cartesian Multipole Moments
 -----------------------------------------------------------------
    Charge (ESU x 10^10)
                -9.6064
    Dipole Moment (Debye)
         X       0.0001      Y       0.0011      Z      -0.0002
       Tot       0.0011
    Quadrupole Moments (Debye-Ang)
        XX    -161.3116     XY     -11.1922     YY    -187.7088
        XZ       1.3451     YZ      10.1104     ZZ    -132.3836

 Total job time:  546.23s(wall), 4075.79s(cpu)
        *  Thank you very much for using Q-Chem.  Have a nice day.  *
