 Gaussian 16, Revision A.03,
 Gaussian 16:  ES64L-G16RevA.03 25-Dec-2016

 ----------------------------------------------------------------------
 #P UB3LYP/6-311++G(d,p) nosym opt freq SCRF=(PCM,Solvent=n,n-DiMethylF
 ormamide)
 ----------------------------------------------------------------------

 -------
 Reduced
 -------
 Symbolic Z-matrix:
 Charge = -2 Multiplicity = 1

 SCF Done:  E(UB3LYP) =  -886.038620662     A.U. after   18 cycles
 SCF Done:  E(UB3LYP) =  -886.040964879     A.U. after   14 cycles
 SCF Done:  E(UB3LYP) =  -886.041266658     A.U. after   13 cycles
 SCF Done:  E(UB3LYP) =  -886.041275915     A.U. after   13 cycles
 SCF Done:  E(UB3LYP) =  -886.041319998     A.U. after   12 cycles
 SCF Done:  E(UB3LYP) =  -886.041325170     A.U. after   14 cycles
 SCF Done:  E(UB3LYP) =  -886.041339961     A.U. after   12 cycles
 SCF Done:  E(UB3LYP) =  -886.041345861     A.U. after   11 cycles
 SCF Done:  E(UB3LYP) =  -886.041355232     A.U. after   12 cycles
 SCF Done:  E(UB3LYP) =  -886.041346545     A.U. after   13 cycles
 SCF Done:  E(UB3LYP) =  -886.041354601     A.U. after   14 cycles
 SCF Done:  E(UB3LYP) =  -886.041361425     A.U. after   13 cycles
 SCF Done:  E(UB3LYP) =  -886.041361983     A.U. after   12 cycles
 SCF Done:  E(UB3LYP) =  -886.041363843     A.U. after   11 cycles
 SCF Done:  E(UB3LYP) =  -886.041365484     A.U. after   11 cycles
 SCF Done:  E(UB3LYP) =  -886.041366591     A.U. after   10 cycles
 SCF Done:  E(UB3LYP) =  -886.041366942     A.U. after   10 cycles
 SCF Done:  E(UB3LYP) =  -886.041366976     A.U. after   10 cycles
 SCF Done:  E(UB3LYP) =  -886.041367002     A.U. after    8 cycles
 Optimization completed.
    -- Stationary point found.
 Normal termination of Gaussian 16 at Sun Feb 11 06:22:34 2024.

 ----------------------------------------------------------------------
 #P Geom=AllCheck Guess=TCheck SCRF=Check GenChk UB3LYP/6-311++G(d,p) F
 req
 ----------------------------------------------------------------------

 Structure from the checkpoint file:  "285-an.chk"
 -------
 Reduced
 -------
 Charge = -2 Multiplicity = 1

                          Input orientation:
 ---------------------------------------------------------------------
 Center     Atomic      Atomic             Coordinates (Angstroms)
 Number     Number       Type             X           Y           Z
 ---------------------------------------------------------------------
      1          6           0        0.001109    3.935920    0.160720
      2          6           0       -0.476851    3.582436    1.404311
      3          6           0       -0.126577    2.327444    1.967141
      4          6           0        0.848000    3.073983   -0.595012
      5          6           0        1.206829    1.788863   -0.021630
      6          6           0        0.693972    1.469150    1.259236
      7          6           0        1.334013    3.450361   -1.878915
      8          6           0        2.165367    2.511945   -2.515736
      9          6           0        2.540761    1.256658   -2.000250
     10          6           0        2.067977    0.846984   -0.721366
     11          8           0        1.073459    4.590584   -2.514128
     12          8           0        2.376443   -0.307665   -0.193880
     13          1           0       -0.262225    4.894079   -0.275601
     14          1           0       -1.120552    4.262700    1.954696
     15          1           0       -0.500384    2.046713    2.947079
     16          1           0        0.971212    0.508233    1.679458
     17          8           0        2.610999    2.926314   -3.762347
     18          6           0        3.448484    0.352092   -2.800684
     19          6           0        4.953651    0.631157   -2.608352
     20          6           0        5.857235   -0.314573   -3.407884
     21          6           0        7.354827   -0.048067   -3.215597
     22          6           0        8.259105   -0.994612   -4.013240
     23          1           0        2.171565    3.809469   -3.814134
     24          1           0        3.217818    0.441994   -3.869083
     25          1           0        3.248542   -0.683270   -2.506822
     26          1           0        5.199082    0.551803   -1.542286
     27          1           0        5.166014    1.667287   -2.898195
     28          1           0        5.610829   -0.233991   -4.475251
     29          1           0        5.636552   -1.351935   -3.122452
     30          1           0        7.601003   -0.129027   -2.148626
     31          1           0        7.576657    0.988578   -3.501512
     32          1           0        8.017367   -0.912106   -5.081213
     33          1           0        8.036752   -2.031890   -3.729654
     34          6           0        9.756192   -0.730306   -3.815297
     35          6           0       10.651392   -1.681657   -4.615238
     36          1           0        9.998088   -0.812974   -2.748539
     37          1           0        9.979489    0.305503   -4.099142
     38          1           0       10.475076   -2.723561   -4.328691
     39          1           0       11.711360   -1.466711   -4.451299
     40          1           0       10.456985   -1.596704   -5.689362
 ---------------------------------------------------------------------

 SCF Done:  E(UB3LYP) =  -886.041367002     A.U. after    2 cycles

 Alpha  occ. eigenvalues --  -19.10812 -19.02202 -19.01309 -10.17465 -10.17010
 Alpha  occ. eigenvalues --  -10.15841 -10.15837 -10.15518 -10.15372 -10.15269
 Alpha  occ. eigenvalues --  -10.15083 -10.14736 -10.14579 -10.14376 -10.14372
 Alpha  occ. eigenvalues --  -10.14282 -10.13957 -10.13730 -10.13292 -10.12393
 Alpha  occ. eigenvalues --   -1.01877  -0.92277  -0.91445  -0.82167  -0.80150
 Alpha  occ. eigenvalues --   -0.77911  -0.75955  -0.72954  -0.71991  -0.69673
 Alpha  occ. eigenvalues --   -0.66088  -0.63479  -0.60658  -0.58086  -0.57243
 Alpha  occ. eigenvalues --   -0.56799  -0.55279  -0.53267  -0.49955  -0.47456
 Alpha  occ. eigenvalues --   -0.46902  -0.44993  -0.43945  -0.42754  -0.42477
 Alpha  occ. eigenvalues --   -0.42062  -0.40689  -0.40056  -0.39786  -0.39270
 Alpha  occ. eigenvalues --   -0.38032  -0.36614  -0.36474  -0.35897  -0.35172
 Alpha  occ. eigenvalues --   -0.34974  -0.34601  -0.34199  -0.33046  -0.32723
 Alpha  occ. eigenvalues --   -0.31917  -0.31706  -0.31568  -0.30860  -0.30634
 Alpha  occ. eigenvalues --   -0.29875  -0.29090  -0.29018  -0.22694  -0.21976
 Alpha  occ. eigenvalues --   -0.20996  -0.19261  -0.18877  -0.11114
 Alpha virt. eigenvalues --   -0.00392  -0.00130   0.00217   0.00980   0.01255
 Alpha virt. eigenvalues --    0.01359   0.01958   0.02064   0.02327   0.03110
 Alpha virt. eigenvalues --    0.03259   0.04007   0.04640   0.04898   0.05111

  Beta  occ. eigenvalues --  -19.10812 -19.02202 -19.01309 -10.17465 -10.17010
  Beta  occ. eigenvalues --  -10.15841 -10.15837 -10.15518 -10.15372 -10.15269
  Beta  occ. eigenvalues --  -10.15083 -10.14736 -10.14579 -10.14376 -10.14372
  Beta  occ. eigenvalues --  -10.14282 -10.13957 -10.13730 -10.13292 -10.12393
  Beta  occ. eigenvalues --   -1.01877  -0.92277  -0.91445  -0.82167  -0.80150
  Beta  occ. eigenvalues --   -0.77911  -0.75955  -0.72954  -0.71991  -0.69673
  Beta  occ. eigenvalues --   -0.66088  -0.63479  -0.60658  -0.58086  -0.57243
  Beta  occ. eigenvalues --   -0.56799  -0.55279  -0.53267  -0.49955  -0.47456
  Beta  occ. eigenvalues --   -0.46902  -0.44993  -0.43945  -0.42754  -0.42477
  Beta  occ. eigenvalues --   -0.42062  -0.40689  -0.40056  -0.39786  -0.39270
  Beta  occ. eigenvalues --   -0.38032  -0.36614  -0.36474  -0.35897  -0.35172
  Beta  occ. eigenvalues --   -0.34974  -0.34601  -0.34199  -0.33046  -0.32723
  Beta  occ. eigenvalues --   -0.31917  -0.31706  -0.31568  -0.30860  -0.30634
  Beta  occ. eigenvalues --   -0.29875  -0.29090  -0.29018  -0.22694  -0.21976
  Beta  occ. eigenvalues --   -0.20996  -0.19261  -0.18877  -0.11114
  Beta virt. eigenvalues --   -0.00392  -0.00130   0.00217   0.00980   0.01255
  Beta virt. eigenvalues --    0.01359   0.01958   0.02064   0.02327   0.03110
  Beta virt. eigenvalues --    0.03259   0.04007   0.04640   0.04898   0.05111

 Mulliken charges and spin densities:
               1          2
     1  C   -0.099111   0.000000
     2  C   -0.371859  -0.000000
     3  C   -0.474335  -0.000000
     4  C    0.495882   0.000000
     5  C   -0.021031  -0.000000
     6  C   -0.000445   0.000000
     7  C   -1.004961  -0.000000
     8  C   -0.689427  -0.000000
     9  C    1.975880   0.000000
    10  C   -0.774618   0.000000
    11  O   -0.756094   0.000000
    12  O   -0.678646  -0.000000
    13  H    0.144026  -0.000000
    14  H    0.155699   0.000000
    15  H    0.150237  -0.000000
    16  H    0.144731  -0.000000
    17  O   -0.333187   0.000000
    18  C   -0.268203  -0.000000
    19  C   -0.602738   0.000000
    20  C   -0.080244  -0.000000
    21  C   -0.083657  -0.000000
    22  C   -0.271580  -0.000000
    23  H    0.273430  -0.000000
    24  H    0.188094   0.000000
    25  H    0.184858   0.000000
    26  H    0.163203  -0.000000
    27  H    0.153047   0.000000
    28  H    0.110493  -0.000000
    29  H    0.103767  -0.000000
    30  H    0.118356   0.000000
    31  H    0.122002   0.000000
    32  H    0.123972   0.000000
    33  H    0.124971   0.000000
    34  C   -0.223789  -0.000000
    35  C   -0.681784   0.000000
    36  H    0.130482   0.000000
    37  H    0.130527   0.000000
    38  H    0.139437  -0.000000
    39  H    0.143265  -0.000000
    40  H    0.139349  -0.000000
 Sum of Mulliken charges =  -2.00000  -0.00000

 Dipole moment (field-independent basis, Debye):
    X=            -16.1317    Y=            -20.5908    Z=             12.0006  Tot=             28.7789
 Quadrupole moment (field-independent basis, Debye-Ang):
   XX=           -171.1499   YY=           -219.4792   ZZ=           -168.8487
   XY=            -21.2763   XZ=             23.1489   YZ=             41.1846

  Exact polarizability: 319.919 -64.881 352.586 -90.599  -9.138 392.164
 Approx polarizability: 328.326 -64.849 393.969 -94.461 -22.431 442.281

                      1                      2                      3
                      A                      A                      A
 Frequencies --     23.0563                27.4480                38.5833
 Red. masses --      4.6731                 5.0809                 1.6063
 Frc consts  --      0.0015                 0.0023                 0.0014
 IR Inten    --      0.9186                 2.3685                 0.2980

                      4                      5                      6
                      A                      A                      A
 Frequencies --     62.0478                76.6769               104.3352
 Red. masses --      3.4689                 4.2355                 2.4533
 Frc consts  --      0.0079                 0.0147                 0.0157
 IR Inten    --      3.2634                 8.1675                 3.8998

                      7                      8                      9
                      A                      A                      A
 Frequencies --    117.2728               131.2493               133.9188
 Red. masses --      2.9417                 4.3596                 2.3937
 Frc consts  --      0.0238                 0.0442                 0.0253
 IR Inten    --      6.1916                 3.2750                 1.2464

                     10                     11                     12
                      A                      A                      A
 Frequencies --    158.5847               167.8323               190.2253
 Red. masses --      1.9519                 6.1151                 7.7973
 Frc consts  --      0.0289                 0.1015                 0.1662
 IR Inten    --      0.1796                 1.6295                 3.9763

                     13                     14                     15
                      A                      A                      A
 Frequencies --    205.8332               243.2694               252.5587
 Red. masses --      3.6728                 1.1205                 4.5818
 Frc consts  --      0.0917                 0.0391                 0.1722
 IR Inten    --      0.8739                 0.0285                17.4095

                     16                     17                     18
                      A                      A                      A
 Frequencies --    282.8015               296.9217               320.1306
 Red. masses --      4.1548                 2.7790                 5.6402
 Frc consts  --      0.1958                 0.1444                 0.3406
 IR Inten    --      0.1381                 3.8623                28.3031

                     19                     20                     21
                      A                      A                      A
 Frequencies --    348.3946               363.1994               396.2990
 Red. masses --      4.8965                 9.2518                 3.9636
 Frc consts  --      0.3502                 0.7191                 0.3668
 IR Inten    --      2.5168                 7.8102                 1.6067

                     22                     23                     24
                      A                      A                      A
 Frequencies --    398.5881               440.3953               452.5411
 Red. masses --      5.6548                 8.6271                 3.2702
 Frc consts  --      0.5293                 0.9858                 0.3946
 IR Inten    --      5.9938                 6.9054                 5.3529

                     25                     26                     27
                      A                      A                      A
 Frequencies --    478.8027               491.9374               529.9072
 Red. masses --      3.6578                 5.1816                 6.2482
 Frc consts  --      0.4941                 0.7388                 1.0337
 IR Inten    --      3.0468                 5.3009                 1.6902

                     28                     29                     30
                      A                      A                      A
 Frequencies --    561.8709               635.4263               667.2884
 Red. masses --      5.1115                 6.0558                 5.5013
 Frc consts  --      0.9508                 1.4406                 1.4433
 IR Inten    --      4.7308                65.8360                 7.3890

                     31                     32                     33
                      A                      A                      A
 Frequencies --    689.0522               694.4105               705.5520
 Red. masses --      3.3206                 3.3711                 3.4964
 Frc consts  --      0.9289                 0.9578                 1.0255
 IR Inten    --      5.3285                71.3958                 9.3851

                     34                     35                     36
                      A                      A                      A
 Frequencies --    727.4953               734.0383               736.4382
 Red. masses --      1.0873                 1.1681                 1.2904
 Frc consts  --      0.3390                 0.3708                 0.4123
 IR Inten    --     11.1523                 2.6623               197.9756

                     37                     38                     39
                      A                      A                      A
 Frequencies --    755.0557               761.5000               776.4842
 Red. masses --      2.0204                 1.2723                 3.5327
 Frc consts  --      0.6786                 0.4347                 1.2550
 IR Inten    --     13.4055                 0.3198                 6.8246

                     40                     41                     42
                      A                      A                      A
 Frequencies --    815.7871               840.5546               871.6080
 Red. masses --      1.4658                 1.4767                 2.0710
 Frc consts  --      0.5748                 0.6147                 0.9270
 IR Inten    --     20.1254                 0.1692                56.2533

                     43                     44                     45
                      A                      A                      A
 Frequencies --    893.8868               924.9324               932.6580
 Red. masses --      1.9504                 2.7432                 2.1259
 Frc consts  --      0.9182                 1.3827                 1.0895
 IR Inten    --      3.4768                56.2659                31.5210

                     46                     47                     48
                      A                      A                      A
 Frequencies --    962.3557               974.2468               984.0567
 Red. masses --      1.3238                 1.2510                 4.4958
 Frc consts  --      0.7223                 0.6996                 2.5650
 IR Inten    --      2.7986                 1.2237                42.7163

                     49                     50                     51
                      A                      A                      A
 Frequencies --   1006.8168              1017.1898              1023.7653
 Red. masses --      1.7939                 2.1955                 2.2464
 Frc consts  --      1.0714                 1.3384                 1.3872
 IR Inten    --     64.5518               109.4000                 8.4971

                     52                     53                     54
                      A                      A                      A
 Frequencies --   1036.6522              1040.1896              1054.9809
 Red. masses --      3.0253                 2.7672                 2.4888
 Frc consts  --      1.9155                 1.7641                 1.6320
 IR Inten    --     92.0632               268.6382                 2.5831

                     55                     56                     57
                      A                      A                      A
 Frequencies --   1064.6319              1095.0698              1111.6715
 Red. masses --      2.2472                 2.4361                 1.8402
 Frc consts  --      1.5007                 1.7212                 1.3399
 IR Inten    --      0.7388                89.0777               181.0436

                     58                     59                     60
                      A                      A                      A
 Frequencies --   1127.5408              1131.5476              1159.9012
 Red. masses --      1.6976                 2.4688                 2.1573
 Frc consts  --      1.2716                 1.8624                 1.7100
 IR Inten    --     13.3195                 9.3939                53.4079

                     61                     62                     63
                      A                      A                      A
 Frequencies --   1180.1150              1210.0490              1231.7925
 Red. masses --      1.7624                 1.7131                 2.5346
 Frc consts  --      1.4462                 1.4778                 2.2659
 IR Inten    --    105.3325                 1.4132               240.7964

                     64                     65                     66
                      A                      A                      A
 Frequencies --   1237.3253              1261.2147              1278.8543
 Red. masses --      1.2752                 1.4859                 1.7866
 Frc consts  --      1.1502                 1.3926                 1.7216
 IR Inten    --      3.0335                34.3680                87.1934

                     67                     68                     69
                      A                      A                      A
 Frequencies --   1294.0099              1305.5519              1315.7151
 Red. masses --      1.4882                 1.3324                 4.8658
 Frc consts  --      1.4682                 1.3381                 4.9628
 IR Inten    --     11.4996               124.3058               498.8685

                     70                     71                     72
                      A                      A                      A
 Frequencies --   1318.9947              1326.1984              1328.2492
 Red. masses --      1.1298                 1.1408                 1.0767
 Frc consts  --      1.1581                 1.1822                 1.1192
 IR Inten    --    118.4086                47.6669                 1.5957

                     73                     74                     75
                      A                      A                      A
 Frequencies --   1336.3263              1343.6705              1362.4386
 Red. masses --      1.4120                 1.6469                 1.6828
 Frc consts  --      1.4856                 1.7519                 1.8404
 IR Inten    --     33.5674                74.4553                99.1507

                     76                     77                     78
                      A                      A                      A
 Frequencies --   1380.6084              1383.5688              1392.8883
 Red. masses --      3.1827                 1.8610                 1.6204
 Frc consts  --      3.5742                 2.0990                 1.8523
 IR Inten    --   1038.7968               340.1525                 4.0167

                     79                     80                     81
                      A                      A                      A
 Frequencies --   1403.0194              1420.3931              1435.2961
 Red. masses --      1.2523                 4.8589                 2.5525
 Frc consts  --      1.4524                 5.7757                 3.0981
 IR Inten    --      1.7436                97.9939               120.9639

                     82                     83                     84
                      A                      A                      A
 Frequencies --   1459.1447              1460.2550              1470.0177
 Red. masses --      1.1837                 2.3770                 1.0712
 Frc consts  --      1.4849                 2.9863                 1.3639
 IR Inten    --      1.5312                67.6302                 0.2381

                     85                     86                     87
                      A                      A                      A
 Frequencies --   1472.9985              1480.5470              1487.8536
 Red. masses --      1.0727                 1.0750                 1.0402
 Frc consts  --      1.3713                 1.3883                 1.3567
 IR Inten    --      1.3042                 0.4672                10.1795

                     88                     89                     90
                      A                      A                      A
 Frequencies --   1489.8273              1498.9881              1505.9546
 Red. masses --      1.0842                 1.0932                 1.0977
 Frc consts  --      1.4179                 1.4472                 1.4668
 IR Inten    --      3.0774                 0.2532                19.4831

                     91                     92                     93
                      A                      A                      A
 Frequencies --   1516.5036              1544.5119              1595.2292
 Red. masses --      4.2625                 5.2289                 5.2508
 Frc consts  --      5.7756                 7.3493                 7.8726
 IR Inten    --      5.4954               299.1381               142.7168

                     94                     95                     96
                      A                      A                      A
 Frequencies --   1612.5889              2984.1711              2987.3393
 Red. masses --      5.8515                 1.0576                 1.0571
 Frc consts  --      8.9653                 5.5490                 5.5584
 IR Inten    --     12.8165                 8.5581                 0.8365

                     97                     98                     99
                      A                      A                      A
 Frequencies --   2992.2112              2999.0701              3001.1633
 Red. masses --      1.0587                 1.0591                 1.0978
 Frc consts  --      5.5850                 5.6128                 5.8256
 IR Inten    --     80.9416                31.9662                 1.5820

                    100                    101                    102
                      A                      A                      A
 Frequencies --   3002.0882              3007.0542              3008.4577
 Red. masses --      1.0595                 1.0620                 1.0992
 Frc consts  --      5.6261                 5.6582                 5.8617
 IR Inten    --    101.7884               258.6727                10.9672

                    103                    104                    105
                      A                      A                      A
 Frequencies --   3012.5399              3022.4589              3032.4501
 Red. masses --      1.0355                 1.1027                 1.1024
 Frc consts  --      5.5366                 5.9349                 5.9729
 IR Inten    --     57.5564                 3.6443                 5.4578

                    106                    107                    108
                      A                      A                      A
 Frequencies --   3040.0875              3054.5495              3071.1679
 Red. masses --      1.1049                 1.1039                 1.1026
 Frc consts  --      6.0166                 6.0685                 6.1274
 IR Inten    --    185.9855               160.0124               118.4100

                    109                    110                    111
                      A                      A                      A
 Frequencies --   3075.7604              3134.6627              3149.9309
 Red. masses --      1.1011                 1.0841                 1.0879
 Frc consts  --      6.1375                 6.2765                 6.3598
 IR Inten    --     74.0035                13.7403                25.8036

                    112                    113                    114
                      A                      A                      A
 Frequencies --   3162.8001              3172.1515              3380.0398
 Red. masses --      1.0927                 1.0930                 1.0639
 Frc consts  --      6.4401                 6.4802                 7.1611
 IR Inten    --     67.0860                65.4519               265.7719

 - Thermochemistry -
 -------------------
 Temperature   298.150 Kelvin.  Pressure   1.00000 Atm.
 Atom     1 has atomic number  6 and mass  12.00000

 Molecular mass:   272.14124 amu.
 Principal axes and moments of inertia in atomic units:
                           1         2         3
     Eigenvalues --  2343.91156********************
           X            0.82983   0.06018   0.55476
           Y           -0.38411  -0.65954   0.64611
           Z           -0.40477   0.74925   0.52419
 This molecule is an asymmetric top.
 Rotational symmetry number  1.
 Warning -- assumption of classical behavior for rotation
           may cause significant error
 Rotational temperatures (Kelvin)      0.03695     0.00548     0.00501
 Rotational constants (GHZ):           0.76997     0.11427     0.10437
 Zero-point vibrational energy     866564.8 (Joules/Mol)
                                  207.11396 (Kcal/Mol)
 Warning -- explicit consideration of  28 degrees of freedom as
           vibrations may cause significant error
 Vibrational temperatures:     33.17    39.49    55.51    89.27   110.32
          (Kelvin)            150.12   168.73   188.84   192.68   228.17
                              241.47   273.69   296.15   350.01   363.38
                              406.89   427.20   460.60   501.26   522.56
                              570.19   573.48   633.63   651.11   688.89
                              707.79   762.42   808.41   914.24   960.08
                              991.39   999.10  1015.13  1046.70  1056.12
                             1059.57  1086.36  1095.63  1117.19  1173.74
                             1209.37  1254.05  1286.10  1330.77  1341.89
                             1384.62  1401.72  1415.84  1448.58  1463.51
                             1472.97  1491.51  1496.60  1517.88  1531.77
                             1575.56  1599.45  1622.28  1628.04  1668.84
                             1697.92  1740.99  1772.27  1780.24  1814.61
                             1839.99  1861.79  1878.40  1893.02  1897.74
                             1908.10  1911.05  1922.68  1933.24  1960.25
                             1986.39  1990.65  2004.06  2018.63  2043.63
                             2065.07  2099.38  2100.98  2115.03  2119.32
                             2130.18  2140.69  2143.53  2156.71  2166.73
                             2181.91  2222.21  2295.18  2320.16  4293.56
                             4298.11  4305.12  4314.99  4318.00  4319.34
                             4326.48  4328.50  4334.37  4348.64  4363.02
                             4374.01  4394.82  4418.73  4425.33  4510.08
                             4532.05  4550.56  4564.02  4863.12

 Zero-point correction=                           0.330057 (Hartree/Particle)
 Thermal correction to Energy=                    0.349506
 Thermal correction to Enthalpy=                  0.350450
 Thermal correction to Gibbs Free Energy=         0.280461
 Sum of electronic and zero-point Energies=           -885.711310
 Sum of electronic and thermal Energies=              -885.691861
 Sum of electronic and thermal Enthalpies=            -885.690917
 Sum of electronic and thermal Free Energies=         -885.760906

                     E (Thermal)             CV                S
                      KCal/Mol        Cal/Mol-Kelvin    Cal/Mol-Kelvin
 Total                  219.318             74.081            147.304
 Electronic               0.000              0.000              0.000
 Translational            0.889              2.981             42.702
 Rotational               0.889              2.981             34.814
 Vibrational            217.541             68.119             69.788
 Vibration     1          0.593              1.985              6.352
 Vibration     2          0.593              1.984              6.006
 Vibration     3          0.594              1.981              5.331
 Vibration     4          0.597              1.972              4.391
 Vibration     5          0.599              1.965              3.974
 Vibration     6          0.605              1.946              3.372
 Vibration     7          0.608              1.935              3.145
 Vibration     8          0.612              1.922              2.928
 Vibration     9          0.613              1.919              2.889
 Vibration    10          0.621              1.893              2.567
 Vibration    11          0.625              1.882              2.460
 Vibration    12          0.634              1.853              2.226
 Vibration    13          0.640              1.832              2.080
 Vibration    14          0.659              1.774              1.779
 Vibration    15          0.664              1.758              1.713
 Vibration    16          0.682              1.706              1.517
 Vibration    17          0.691              1.679              1.434
 Vibration    18          0.706              1.635              1.309
 Vibration    19          0.726              1.579              1.173
 Vibration    20          0.737              1.548              1.108
 Vibration    21          0.763              1.478              0.976
 Vibration    22          0.765              1.473              0.968
 Vibration    23          0.800              1.382              0.825
 Vibration    24          0.811              1.355              0.788
 Vibration    25          0.835              1.297              0.713
 Vibration    26          0.848              1.268              0.679
 Vibration    27          0.885              1.184              0.587
 Vibration    28          0.918              1.114              0.520

 Optimization completed.
    -- Stationary point found.
 Normal termination of Gaussian 16 at Sun Feb 11 08:48:02 2024.
