 Q-Chem 5.4, Q-Chem, Inc., Pleasanton, CA (2021)
 Q-Chem 5.4.0 for Intel X86 EM64T Linux

User input:
--------------------------------------------------------------
$molecule
-1 2
O                  2.3215880000      1.6540690000      0.3496470000
C                  1.6625290000      0.4826820000      0.2205650000
C                  2.3751570000     -0.7130220000      0.2555510000
C                  1.6995900000     -1.9339070000      0.1223310000
C                  0.3242810000     -1.9736830000     -0.0449390000
C                 -0.4182780000     -0.7805080000     -0.0836230000
C                 -1.8859690000     -0.8350400000     -0.2626020000
O                 -2.4984870000     -1.9278280000     -0.3826500000
C                 -2.5614070000      0.4351510000     -0.2897280000
C                 -1.9057060000      1.6402070000     -0.1595100000
C                 -0.4915400000      1.7275770000      0.0143260000
O                  0.1140710000      2.8536940000      0.1349750000
C                  0.2476150000      0.4679520000      0.0496520000
H                  1.6000330000      2.3612760000      0.2929000000
H                  3.4509800000     -0.6719370000      0.3867800000
H                  2.2680920000     -2.8593970000      0.1514470000
H                 -0.2124480000     -2.9086500000     -0.1492830000
H                 -3.6391630000      0.4022150000     -0.4207440000
H                 -2.4509370000      2.5791490000     -0.1850960000
$end
$rem
MAX_SCF_CYCLES=200
BASIS  =  6-311++G(d,p)
GUI  =  2
JOB_TYPE  =  SP
METHOD  =  B3LYP
SOLVENT_METHOD = COSMO
$end
$solvent
dielectric 37.219
opticaldielectric 1.43
$end

--------------------------------------------------------------

             Standard Nuclear Orientation (Angstroms)
    I     Atom           X                Y                Z
 ----------------------------------------------------------------
    1      O       2.7188908933    -0.8669978276     0.0000360167
    2      C       1.7701094512     0.0937218017     0.0000023087
    3      C       2.1500557850     1.4332782659    -0.0000661513
    4      C       1.1722152874     2.4375324590    -0.0000533721
    5      C      -0.1768573724     2.1196658493     0.0000220386
    6      C      -0.5865984434     0.7747981412     0.0000792061
    7      C      -2.0294558232     0.4472516972     0.0001193777
    8      O      -2.9123061715     1.3441076961    -0.0000049961
    9      C      -2.3536354946    -0.9546202681    -0.0000279359
   10      C      -1.3992759840    -1.9487321387    -0.0001018926
   11      C       0.0000863781    -1.6667695108    -0.0000447509
   12      O       0.8849594564    -2.5976078349     0.0000646681
   13      C       0.3890660570    -0.2585976512     0.0000200977
   14      H       2.2021127055    -1.7370230486     0.0000216732
   15      H       3.2079662562     1.6722962350    -0.0000850887
   16      H       1.4827662804     3.4787490951    -0.0001067521
   17      H      -0.9445529362     2.8837159145     0.0000233170
   18      H      -3.4112770694    -1.2020111747    -0.0001073312
   19      H      -1.6836277092    -2.9969151627    -0.0002048843
 ----------------------------------------------------------------

    9    -610.5997301638      8.30e-06  Convergence criterion met
 Total energy in the final basis set =     -610.5997301638
    5    -610.6815346811      4.69e-06  Convergence criterion met
 Total energy in the final basis set =     -610.6815346811

                    Orbital Energies (a.u.)
 --------------------------------------------------------------

 Alpha MOs
 -- Occupied --
-19.1352 -19.0974 -19.0856 -10.2378 -10.2356 -10.2299 -10.1798 -10.1789
-10.1768 -10.1691 -10.1685 -10.1682 -10.1656  -1.0587  -1.0105  -1.0087
 -0.8590  -0.8088  -0.7475  -0.7435  -0.6833  -0.6304  -0.6173  -0.5746
 -0.5156  -0.5100  -0.5026  -0.4779  -0.4508  -0.4342  -0.4335  -0.4268
 -0.4035  -0.3973  -0.3953  -0.3836  -0.3813  -0.3610  -0.3508  -0.3348
 -0.2878  -0.2627  -0.2571  -0.2479  -0.2336  -0.1631

 Beta MOs
 -- Occupied --
-19.1350 -19.0919 -19.0794 -10.2376 -10.2333 -10.2285 -10.1794 -10.1790
-10.1764 -10.1677 -10.1677 -10.1667 -10.1653  -1.0573  -1.0010  -0.9981
 -0.8568  -0.8034  -0.7453  -0.7413  -0.6738  -0.6278  -0.6149  -0.5723
 -0.5141  -0.5078  -0.4995  -0.4750  -0.4498  -0.4314  -0.4253  -0.4221
 -0.4009  -0.3932  -0.3827  -0.3801  -0.3611  -0.3594  -0.3493  -0.3271
 -0.2607  -0.2580  -0.2519  -0.2424  -0.2254

          Ground-State Mulliken Net Atomic Charges

     Atom                 Charge (a.u.)    Spin (a.u.)
  --------------------------------------------------------
      1 O                    -0.421550       0.008966
      2 C                    -0.074295       0.035489
      3 C                    -0.200986       0.038010
      4 C                    -0.372756       0.026419
      5 C                    -0.126211       0.049988
      6 C                     0.406552       0.029209
      7 C                    -0.397806       0.092969
      8 O                    -0.521139       0.221361
      9 C                    -0.094497       0.140285
     10 C                    -0.234259       0.064441
     11 C                    -0.390670       0.143048
     12 O                    -0.554593       0.191396
     13 C                     0.593487      -0.008731
     14 H                     0.379179      -0.004058
     15 H                     0.208457      -0.003266
     16 H                     0.212642      -0.002083
     17 H                     0.175121      -0.003297
     18 H                     0.205259      -0.011383
     19 H                     0.208067      -0.008762
  --------------------------------------------------------
  Sum of atomic charges =    -1.000000

                    Cartesian Multipole Moments
 -----------------------------------------------------------------
    Charge (ESU x 10^10)
                -4.8032
    Dipole Moment (Debye)
         X       2.5034      Y       1.9350      Z       0.0002
       Tot       3.1641
    Quadrupole Moments (Debye-Ang)
        XX    -106.3320     XY      20.0891     YY     -91.9871
        XZ       0.0002     YZ       0.0026     ZZ     -80.4182

 Total job time:  34.69s(wall), 249.07s(cpu)
        *  Thank you very much for using Q-Chem.  Have a nice day.  *
