 Gaussian 16, Revision A.03,
 Gaussian 16:  ES64L-G16RevA.03 25-Dec-2016

 ----------------------------------------------------------------
 #P UB3LYP/6-311++G(d,p) SCRF=(PCM,Solvent=n,n-DiMethylFormamide)
 ----------------------------------------------------------------

 ------------------
 Quinone PCM in DMF
 ------------------
 Symbolic Z-matrix:
 Charge =  0 Multiplicity = 1

                         Standard orientation:
 ---------------------------------------------------------------------
 Center     Atomic      Atomic             Coordinates (Angstroms)
 Number     Number       Type             X           Y           Z
 ---------------------------------------------------------------------
      1          6           0       -1.393721    3.798544   -0.057486
      2          6           0       -0.698713    4.998881   -0.028871
      3          6           0        0.700294    4.998620    0.028941
      4          6           0       -0.699549    2.581363   -0.028799
      5          6           0        0.700206    2.581107    0.028983
      6          6           0        1.394845    3.798019    0.057638
      7          6           0       -1.460662    1.309341   -0.063187
      8          6           0        1.460823    1.308788    0.063324
      9          6           0       -0.720931    0.047067   -0.031547
     10          6           0        0.720645    0.046835    0.030974
     11          6           0       -1.439877   -1.182650   -0.064260
     12          6           0       -0.682165   -2.388486   -0.028911
     13          6           0        0.681296   -2.388696    0.026390
     14          6           0        1.439269   -1.183057    0.063091
     15          8           0       -2.703384    1.361586   -0.119745
     16          8           0        2.703562    1.360459    0.119962
     17          1           0       -2.474973    3.772657   -0.102628
     18          1           0       -1.239902    5.938280   -0.051214
     19          1           0        1.241844    5.937812    0.051244
     20          1           0        2.476084    3.771712    0.102821
     21          1           0        1.195707   -3.339809    0.045621
     22          1           0       -1.196839   -3.339436   -0.049126
     23          7           0       -2.797197   -1.227752   -0.144388
     24          7           0        2.796536   -1.228387    0.144066
     25          1           0       -3.239503   -0.309353   -0.146472
     26          1           0        3.238974   -0.310056    0.147537
     27          6           0        3.635103   -2.423068    0.110281
     28          6           0        4.984149   -2.084738    0.751115
     29          6           0        3.812163   -2.965628   -1.317847
     30          6           0       -3.635920   -2.422325   -0.110171
     31          6           0       -3.810649   -2.966014    1.317809
     32          6           0       -4.985977   -2.083175   -0.748431
     33          1           0        3.161549   -3.197613    0.724485
     34          1           0        5.635878   -2.961443    0.753049
     35          1           0        4.854430   -1.747157    1.781736
     36          1           0        5.489905   -1.291403    0.191797
     37          1           0        2.849067   -3.178848   -1.787225
     38          1           0        4.399629   -3.888610   -1.309789
     39          1           0        4.332796   -2.231903   -1.939615
     40          1           0       -3.163569   -3.196495   -0.725784
     41          1           0       -2.846817   -3.180090    1.785294
     42          1           0       -4.398550   -3.888723    1.309997
     43          1           0       -4.329846   -2.232587    1.941126
     44          1           0       -5.490694   -1.290354   -0.187451
     45          1           0       -5.637826   -2.959788   -0.750199
     46          1           0       -4.857914   -1.744543   -1.778913
 ---------------------------------------------------------------------

 SCF Done:  E(UB3LYP) =  -1035.66441524     A.U. after   14 cycles

 The electronic state is 1-A.
 Alpha  occ. eigenvalues --  -19.11107 -19.11107 -14.33397 -14.33395 -10.26340
 Alpha  occ. eigenvalues --  -10.26339 -10.24006 -10.24005 -10.21944 -10.21943
 Alpha  occ. eigenvalues --  -10.19687 -10.19667 -10.19619 -10.19614 -10.19460
 Alpha  occ. eigenvalues --  -10.19421 -10.19080 -10.19029 -10.18820 -10.18819
 Alpha  occ. eigenvalues --  -10.16573 -10.16573 -10.16356 -10.16356  -1.04544
 Alpha  occ. eigenvalues --   -1.04327  -0.95669  -0.95076  -0.88125  -0.86017
 Alpha  occ. eigenvalues --   -0.80564  -0.80188  -0.78209  -0.76942  -0.76079
 Alpha  occ. eigenvalues --   -0.72650  -0.69690  -0.69568  -0.68068  -0.66114
 Alpha  occ. eigenvalues --   -0.65084  -0.61939  -0.60529  -0.60248  -0.58855
 Alpha  occ. eigenvalues --   -0.55002  -0.54682  -0.53227  -0.51097  -0.50247
 Alpha  occ. eigenvalues --   -0.49043  -0.48408  -0.47493  -0.46146  -0.45700
 Alpha  occ. eigenvalues --   -0.45465  -0.44778  -0.44316  -0.44002  -0.43745
 Alpha  occ. eigenvalues --   -0.42836  -0.42324  -0.42188  -0.41622  -0.40446
 Alpha  occ. eigenvalues --   -0.39825  -0.39528  -0.39257  -0.38975  -0.37974
 Alpha  occ. eigenvalues --   -0.37775  -0.37037  -0.36736  -0.36495  -0.35893
 Alpha  occ. eigenvalues --   -0.35659  -0.35200  -0.34740  -0.33002  -0.28431
 Alpha  occ. eigenvalues --   -0.27505  -0.27287  -0.27072  -0.26273  -0.26099
 Alpha  occ. eigenvalues --   -0.19310
 Alpha virt. eigenvalues --   -0.10676  -0.05774  -0.03172  -0.00972  -0.00525
 Alpha virt. eigenvalues --   -0.00109  -0.00065   0.01064   0.01408   0.01520
 Alpha virt. eigenvalues --    0.01668   0.02006   0.02710   0.03489   0.03642

  Beta  occ. eigenvalues --  -19.11107 -19.11107 -14.33397 -14.33395 -10.26340
  Beta  occ. eigenvalues --  -10.26339 -10.24006 -10.24005 -10.21944 -10.21943
  Beta  occ. eigenvalues --  -10.19687 -10.19667 -10.19619 -10.19614 -10.19460
  Beta  occ. eigenvalues --  -10.19421 -10.19080 -10.19029 -10.18820 -10.18819
  Beta  occ. eigenvalues --  -10.16573 -10.16573 -10.16356 -10.16356  -1.04544
  Beta  occ. eigenvalues --   -1.04327  -0.95669  -0.95076  -0.88125  -0.86017
  Beta  occ. eigenvalues --   -0.80564  -0.80188  -0.78209  -0.76942  -0.76079
  Beta  occ. eigenvalues --   -0.72650  -0.69690  -0.69568  -0.68068  -0.66114
  Beta  occ. eigenvalues --   -0.65084  -0.61939  -0.60529  -0.60248  -0.58855
  Beta  occ. eigenvalues --   -0.55002  -0.54682  -0.53227  -0.51097  -0.50247
  Beta  occ. eigenvalues --   -0.49043  -0.48408  -0.47493  -0.46146  -0.45700
  Beta  occ. eigenvalues --   -0.45465  -0.44778  -0.44316  -0.44002  -0.43745
  Beta  occ. eigenvalues --   -0.42836  -0.42324  -0.42188  -0.41622  -0.40446
  Beta  occ. eigenvalues --   -0.39825  -0.39528  -0.39257  -0.38975  -0.37974
  Beta  occ. eigenvalues --   -0.37775  -0.37037  -0.36736  -0.36495  -0.35893
  Beta  occ. eigenvalues --   -0.35659  -0.35200  -0.34740  -0.33002  -0.28431
  Beta  occ. eigenvalues --   -0.27505  -0.27287  -0.27072  -0.26273  -0.26099
  Beta  occ. eigenvalues --   -0.19310
  Beta virt. eigenvalues --   -0.10676  -0.05774  -0.03172  -0.00972  -0.00525
  Beta virt. eigenvalues --   -0.00109  -0.00065   0.01064   0.01408   0.01520
  Beta virt. eigenvalues --    0.01668   0.02006   0.02710   0.03489   0.03642

 Mulliken charges and spin densities:
               1          2
     1  C   -0.065824  -0.000000
     2  C   -0.358285   0.000000
     3  C   -0.358128  -0.000000
     4  C    0.388839   0.000000
     5  C    0.388905  -0.000000
     6  C   -0.065806   0.000000
     7  C   -0.301981  -0.000000
     8  C   -0.301632  -0.000000
     9  C    0.022014   0.000000
    10  C    0.021768   0.000000
    11  C   -0.436461   0.000000
    12  C    0.029520  -0.000000
    13  C    0.029851  -0.000000
    14  C   -0.436621   0.000000
    15  O   -0.344065  -0.000000
    16  O   -0.344085   0.000000
    17  H    0.175397   0.000000
    18  H    0.200216  -0.000000
    19  H    0.200220   0.000000
    20  H    0.175377  -0.000000
    21  H    0.231669  -0.000000
    22  H    0.231686   0.000000
    23  N   -0.056822   0.000000
    24  N   -0.057033  -0.000000
    25  H    0.420905  -0.000000
    26  H    0.421049  -0.000000
    27  C    0.056993  -0.000000
    28  C   -0.544866   0.000000
    29  C   -0.502231  -0.000000
    30  C    0.056712  -0.000000
    31  C   -0.502085   0.000000
    32  C   -0.544892   0.000000
    33  H    0.148332   0.000000
    34  H    0.168443  -0.000000
    35  H    0.160311  -0.000000
    36  H    0.150893  -0.000000
    37  H    0.139611   0.000000
    38  H    0.150459  -0.000000
    39  H    0.166772   0.000000
    40  H    0.148397  -0.000000
    41  H    0.139560   0.000000
    42  H    0.150446   0.000000
    43  H    0.166798   0.000000
    44  H    0.150917  -0.000000
    45  H    0.168440  -0.000000
    46  H    0.160317  -0.000000
 Sum of Mulliken charges =  -0.00000  -0.00000

 Dipole moment (field-independent basis, Debye):
    X=             -0.0009    Y=             -5.9118    Z=              0.0012  Tot=              5.9118
 Quadrupole moment (field-independent basis, Debye-Ang):
   XX=           -135.0679   YY=           -113.8099   ZZ=           -148.1580
   XY=              0.0085   XZ=             -0.0886   YZ=              0.0028

 Normal termination of Gaussian 16 at Sun Jan 14 01:13:22 2024.
