 Gaussian 16, Revision A.03,
 Gaussian 16:  ES64L-G16RevA.03 25-Dec-2016

 ----------------------------------------------------------------
 #P UB3LYP/6-311++G(d,p) SCRF=(PCM,Solvent=n,n-DiMethylFormamide)
 ----------------------------------------------------------------

 -------
 Reduced
 -------
 Symbolic Z-matrix:
 Charge = -2 Multiplicity = 1

                         Standard orientation:
 ---------------------------------------------------------------------
 Center     Atomic      Atomic             Coordinates (Angstroms)
 Number     Number       Type             X           Y           Z
 ---------------------------------------------------------------------
      1          8           0        1.345203   -2.411210    0.000082
      2          6           0        0.714191   -1.180680   -0.000002
      3          6           0        1.383868    0.041919    0.000016
      4         17           0        3.178156    0.043757    0.000149
      5          6           0        0.709581    1.288158   -0.000099
      6          8           0        1.222024    2.495056   -0.000373
      7          6           0       -0.714444    1.180719   -0.000130
      8          6           0       -1.383831   -0.041699   -0.000131
      9         17           0       -3.178245   -0.043893    0.000106
     10          6           0       -0.709403   -1.288275   -0.000184
     11          8           0       -1.222346   -2.494887   -0.000087
     12          8           0       -1.344789    2.411282    0.000167
     13          1           0        0.532873   -2.983323   -0.000448
     14          1           0       -0.531856    2.982858    0.000967
 ---------------------------------------------------------------------

 SCF Done:  E(UB3LYP) =  -1451.60308787     A.U. after   16 cycles

 The electronic state is 1-A.
 Alpha  occ. eigenvalues -- -101.53440-101.53439 -19.11980 -19.11979 -19.04035
 Alpha  occ. eigenvalues --  -19.04029 -10.19474 -10.19470 -10.19412 -10.19409
 Alpha  occ. eigenvalues --  -10.18910 -10.18908  -9.44854  -9.44853  -7.21265
 Alpha  occ. eigenvalues --   -7.21264  -7.20377  -7.20376  -7.20334  -7.20333
 Alpha  occ. eigenvalues --   -1.03403  -1.03200  -0.94134  -0.94106  -0.84702
 Alpha  occ. eigenvalues --   -0.83598  -0.77548  -0.68445  -0.66205  -0.57213
 Alpha  occ. eigenvalues --   -0.55659  -0.52253  -0.47638  -0.46223  -0.43147
 Alpha  occ. eigenvalues --   -0.41507  -0.41468  -0.38162  -0.37455  -0.37417
 Alpha  occ. eigenvalues --   -0.35598  -0.34972  -0.33031  -0.32626  -0.30318
 Alpha  occ. eigenvalues --   -0.30022  -0.29837  -0.29724  -0.23278  -0.23167
 Alpha  occ. eigenvalues --   -0.22667  -0.19429  -0.13098
 Alpha virt. eigenvalues --   -0.00672   0.01575   0.01898   0.03078   0.03140
 Alpha virt. eigenvalues --    0.04988   0.05018   0.05566   0.05962   0.06725
 Alpha virt. eigenvalues --    0.06798   0.07433   0.08586   0.08834   0.09737

  Beta  occ. eigenvalues -- -101.53440-101.53439 -19.11980 -19.11979 -19.04035
  Beta  occ. eigenvalues --  -19.04029 -10.19474 -10.19470 -10.19412 -10.19409
  Beta  occ. eigenvalues --  -10.18910 -10.18908  -9.44854  -9.44853  -7.21265
  Beta  occ. eigenvalues --   -7.21264  -7.20377  -7.20376  -7.20334  -7.20333
  Beta  occ. eigenvalues --   -1.03403  -1.03200  -0.94134  -0.94106  -0.84702
  Beta  occ. eigenvalues --   -0.83598  -0.77548  -0.68445  -0.66205  -0.57213
  Beta  occ. eigenvalues --   -0.55659  -0.52253  -0.47638  -0.46223  -0.43147
  Beta  occ. eigenvalues --   -0.41507  -0.41468  -0.38162  -0.37455  -0.37417
  Beta  occ. eigenvalues --   -0.35598  -0.34972  -0.33031  -0.32626  -0.30318
  Beta  occ. eigenvalues --   -0.30022  -0.29837  -0.29724  -0.23278  -0.23167
  Beta  occ. eigenvalues --   -0.22667  -0.19429  -0.13098
  Beta virt. eigenvalues --   -0.00672   0.01575   0.01898   0.03078   0.03140
  Beta virt. eigenvalues --    0.04988   0.05018   0.05566   0.05962   0.06725
  Beta virt. eigenvalues --    0.06798   0.07433   0.08586   0.08834   0.09737

 Mulliken charges and spin densities:
               1          2
     1  O   -0.309947   0.000000
     2  C   -1.515648  -0.000000
     3  C    2.208543   0.000000
     4  Cl   0.081036  -0.000000
     5  C   -1.071515  -0.000000
     6  O   -0.671425   0.000000
     7  C   -1.515908  -0.000000
     8  C    2.208220   0.000000
     9  Cl   0.081091  -0.000000
    10  C   -1.069845   0.000000
    11  O   -0.671567   0.000000
    12  O   -0.309918   0.000000
    13  H    0.278414   0.000000
    14  H    0.278468  -0.000000
 Sum of Mulliken charges =  -2.00000  -0.00000

 Dipole moment (field-independent basis, Debye):
    X=              0.0023    Y=              0.0016    Z=              0.0016  Tot=              0.0032
 Quadrupole moment (field-independent basis, Debye-Ang):
   XX=           -129.3124   YY=           -132.7709   ZZ=            -89.5527
   XY=            -10.9717   XZ=              0.0000   YZ=              0.0099

 Normal termination of Gaussian 16 at Wed Jan 24 22:49:14 2024.
