 Gaussian 16, Revision A.03,
 Gaussian 16:  ES64L-G16RevA.03 25-Dec-2016

 --------------------------------------
 #P UB3LYP/6-311++G(d,p) nosym opt freq
 --------------------------------------

 -------
 Reduced
 -------
 Symbolic Z-matrix:
 Charge = -2 Multiplicity = 1

 SCF Done:  E(UB3LYP) =  -751.487293269     A.U. after   69 cycles
 SCF Done:  E(UB3LYP) =  -751.503392784     A.U. after   43 cycles
 SCF Done:  E(UB3LYP) =  -751.507203647     A.U. after   34 cycles
 SCF Done:  E(UB3LYP) =  -751.507618476     A.U. after   28 cycles
 SCF Done:  E(UB3LYP) =  -751.506770373     A.U. after   29 cycles
 SCF Done:  E(UB3LYP) =  -751.507860080     A.U. after   30 cycles
 SCF Done:  E(UB3LYP) =  -751.508183198     A.U. after   29 cycles
 SCF Done:  E(UB3LYP) =  -751.508360772     A.U. after   33 cycles
 SCF Done:  E(UB3LYP) =  -751.508613517     A.U. after   32 cycles
 SCF Done:  E(UB3LYP) =  -751.508850263     A.U. after   32 cycles
 SCF Done:  E(UB3LYP) =  -751.509842381     A.U. after   29 cycles
 SCF Done:  E(UB3LYP) =  -751.480161958     A.U. after   32 cycles
 SCF Done:  E(UB3LYP) =  -751.509161668     A.U. after   37 cycles
 SCF Done:  E(UB3LYP) =  -751.509996721     A.U. after   28 cycles
 SCF Done:  E(UB3LYP) =  -751.509929796     A.U. after   32 cycles
 SCF Done:  E(UB3LYP) =  -751.510115036     A.U. after   28 cycles
 SCF Done:  E(UB3LYP) =  -751.510129137     A.U. after   28 cycles
 SCF Done:  E(UB3LYP) =  -751.510136561     A.U. after   27 cycles
 SCF Done:  E(UB3LYP) =  -751.510136980     A.U. after   27 cycles
 Optimization completed.
    -- Stationary point found.
 Normal termination of Gaussian 16 at Thu Dec 21 06:26:22 2023.

 ----------------------------------------------------------------------
 #P Geom=AllCheck Guess=TCheck SCRF=Check GenChk UB3LYP/6-311++G(d,p) F
 req
 ----------------------------------------------------------------------

 Structure from the checkpoint file:  "106-an.chk"
 -------
 Reduced
 -------
 Charge = -2 Multiplicity = 1

                          Input orientation:
 ---------------------------------------------------------------------
 Center     Atomic      Atomic             Coordinates (Angstroms)
 Number     Number       Type             X           Y           Z
 ---------------------------------------------------------------------
      1          6           0       -1.093327   -1.916218    3.488346
      2          6           0        0.028174   -2.504424    2.807709
      3          6           0        0.049550   -2.571807    1.408383
      4          6           0       -1.008990   -2.105394    0.557028
      5          6           0       -2.122709   -1.535142    1.259742
      6          6           0       -2.157866   -1.426884    2.646021
      7          8           0       -1.199280   -1.809603    4.791111
      8          8           0       -0.968051   -2.215149   -0.729377
      9          7           0       -3.275985   -0.886554    3.367443
     10          6           0       -3.561230    0.575572    3.303321
     11          6           0       -4.495783    0.882384    4.487245
     12          6           0       -4.288252    0.933367    1.995904
     13          6           0       -2.282430    1.433410    3.431708
     14          1           0       -2.977176   -1.230408    0.662526
     15          1           0       -3.020805   -1.094205    4.338415
     16          1           0       -4.001531    0.656073    5.438218
     17          1           0       -5.403972    0.273979    4.421005
     18          1           0       -4.787469    1.939225    4.502391
     19          1           0       -5.178019    0.306699    1.876676
     20          1           0       -3.639536    0.771399    1.133435
     21          1           0       -4.596927    1.986774    2.002445
     22          1           0       -1.753252    1.182126    4.355416
     23          1           0       -2.523306    2.505240    3.437976
     24          1           0       -1.607267    1.229801    2.596579
     25          6           0        1.203411   -3.036426    3.655682
     26          6           0        0.692819   -4.142628    4.612058
     27          6           0        2.341861   -3.638347    2.808937
     28          6           0        1.801010   -1.880942    4.495353
     29          1           0        0.892166   -3.014814    0.886192
     30          1           0       -0.121072   -3.742140    5.219577
     31          1           0        1.503300   -4.500401    5.267076
     32          1           0        0.318000   -4.995725    4.034756
     33          1           0        1.994696   -4.484911    2.208427
     34          1           0        3.141302   -3.995692    3.472505
     35          1           0        2.772084   -2.899309    2.126179
     36          1           0        1.010824   -1.429812    5.098906
     37          1           0        2.223491   -1.115057    3.834765
     38          1           0        2.604376   -2.247676    5.153670
 ---------------------------------------------------------------------

 SCF Done:  E(UB3LYP) =  -751.510136980     A.U. after    2 cycles

 Alpha  occ. eigenvalues --  -18.78409 -18.77077 -14.04940  -9.98914  -9.95764
 Alpha  occ. eigenvalues --   -9.95194  -9.94692  -9.94322  -9.93516  -9.93126
 Alpha  occ. eigenvalues --   -9.93120  -9.93085  -9.93059  -9.91989  -9.90270
 Alpha  occ. eigenvalues --   -9.88243  -9.87962  -0.70105  -0.68112  -0.66050
 Alpha  occ. eigenvalues --   -0.59212  -0.56250  -0.52182  -0.47929  -0.46890
 Alpha  occ. eigenvalues --   -0.46829  -0.45892  -0.45078  -0.40208  -0.35494
 Alpha  occ. eigenvalues --   -0.33354  -0.29288  -0.28322  -0.24940  -0.23473
 Alpha  occ. eigenvalues --   -0.22938  -0.22267  -0.21751  -0.21732  -0.19675
 Alpha  occ. eigenvalues --   -0.18964  -0.18532  -0.17592  -0.17282  -0.16665
 Alpha  occ. eigenvalues --   -0.16061  -0.15249  -0.14562  -0.13800  -0.12360
 Alpha  occ. eigenvalues --   -0.11656  -0.11330  -0.11181  -0.11046  -0.10206
 Alpha  occ. eigenvalues --   -0.09822  -0.08518  -0.07446  -0.06302  -0.02114
 Alpha  occ. eigenvalues --    0.02105   0.03761   0.04848   0.05520   0.13031
 Alpha virt. eigenvalues --    0.14608   0.15251   0.16803   0.17473   0.17542
 Alpha virt. eigenvalues --    0.17846   0.18462   0.19343   0.20109   0.20611
 Alpha virt. eigenvalues --    0.20793   0.20986   0.21590   0.21663   0.23117

  Beta  occ. eigenvalues --  -18.78409 -18.77077 -14.04940  -9.98914  -9.95764
  Beta  occ. eigenvalues --   -9.95194  -9.94692  -9.94322  -9.93516  -9.93126
  Beta  occ. eigenvalues --   -9.93120  -9.93085  -9.93059  -9.91989  -9.90270
  Beta  occ. eigenvalues --   -9.88243  -9.87962  -0.70105  -0.68112  -0.66050
  Beta  occ. eigenvalues --   -0.59212  -0.56250  -0.52182  -0.47929  -0.46890
  Beta  occ. eigenvalues --   -0.46829  -0.45892  -0.45078  -0.40208  -0.35494
  Beta  occ. eigenvalues --   -0.33354  -0.29288  -0.28322  -0.24940  -0.23473
  Beta  occ. eigenvalues --   -0.22938  -0.22267  -0.21751  -0.21732  -0.19675
  Beta  occ. eigenvalues --   -0.18964  -0.18532  -0.17592  -0.17282  -0.16665
  Beta  occ. eigenvalues --   -0.16061  -0.15249  -0.14562  -0.13800  -0.12360
  Beta  occ. eigenvalues --   -0.11656  -0.11330  -0.11181  -0.11046  -0.10206
  Beta  occ. eigenvalues --   -0.09822  -0.08518  -0.07446  -0.06302  -0.02114
  Beta  occ. eigenvalues --    0.02105   0.03761   0.04848   0.05520   0.13031
  Beta virt. eigenvalues --    0.14608   0.15251   0.16803   0.17473   0.17542
  Beta virt. eigenvalues --    0.17846   0.18462   0.19343   0.20109   0.20611
  Beta virt. eigenvalues --    0.20793   0.20986   0.21590   0.21663   0.23117

 Mulliken charges and spin densities:
               1          2
     1  C   -1.215724  -0.000000
     2  C    1.116810   0.000000
     3  C   -0.317223  -0.000000
     4  C   -1.032520   0.000000
     5  C    0.319737   0.000000
     6  C    0.585394  -0.000000
     7  O   -0.511692  -0.000000
     8  O   -0.544003   0.000000
     9  N    0.169070   0.000000
    10  C   -0.612687  -0.000000
    11  C    0.209750   0.000000
    12  C   -0.156909  -0.000000
    13  C   -0.056042   0.000000
    14  H    0.097825   0.000000
    15  H    0.287834  -0.000000
    16  H   -0.004881  -0.000000
    17  H    0.064153  -0.000000
    18  H   -0.423466  -0.000000
    19  H    0.127190  -0.000000
    20  H    0.075502  -0.000000
    21  H   -0.105349  -0.000000
    22  H    0.145962   0.000000
    23  H   -0.194870  -0.000000
    24  H    0.130590  -0.000000
    25  C    0.667529  -0.000000
    26  C   -0.707755   0.000000
    27  C   -0.526779  -0.000000
    28  C   -0.730008  -0.000000
    29  H    0.102565  -0.000000
    30  H    0.206536   0.000000
    31  H    0.058076   0.000000
    32  H    0.095734  -0.000000
    33  H    0.109526  -0.000000
    34  H    0.110201   0.000000
    35  H    0.108463   0.000000
    36  H    0.183685   0.000000
    37  H    0.096119   0.000000
    38  H    0.071660  -0.000000
 Sum of Mulliken charges =  -2.00000   0.00000

 Dipole moment (field-independent basis, Debye):
    X=             15.0774    Y=             12.1859    Z=            -23.1621  Tot=             30.2044
 Quadrupole moment (field-independent basis, Debye-Ang):
   XX=           -187.0769   YY=           -181.4562   ZZ=           -237.7524
   XY=             14.0664   XZ=             44.0489   YZ=             15.2837

  Exact polarizability:1016.986-513.8361109.322-238.378 132.111 752.443
 Approx polarizability:2240.574********3572.044-935.4281201.3801126.287

                      1                      2                      3
                      A                      A                      A
 Frequencies --     25.6363                47.0400                65.4231
 Red. masses --      3.1200                 3.3026                 3.1717
 Frc consts  --      0.0012                 0.0043                 0.0080
 IR Inten    --      2.8144                 2.6292                 2.1844

                      4                      5                      6
                      A                      A                      A
 Frequencies --     86.8710               106.9199               170.6548
 Red. masses --      4.3421                 4.3290                 5.8121
 Frc consts  --      0.0193                 0.0292                 0.0997
 IR Inten    --      5.3619                 0.7732                 5.8596

                      7                      8                      9
                      A                      A                      A
 Frequencies --    181.5642               201.7087               240.6080
 Red. masses --      2.4272                 1.1878                 2.8978
 Frc consts  --      0.0471                 0.0285                 0.0988
 IR Inten    --     10.3773                 3.1719                 0.7132

                     10                     11                     12
                      A                      A                      A
 Frequencies --    249.3485               250.6127               262.0884
 Red. masses --      2.1053                 1.0558                 1.2458
 Frc consts  --      0.0771                 0.0391                 0.0504
 IR Inten    --      7.7782                 0.0810                 4.7641

                     13                     14                     15
                      A                      A                      A
 Frequencies --    263.6253               284.4736               286.6033
 Red. masses --      2.1478                 1.3832                 2.4935
 Frc consts  --      0.0879                 0.0660                 0.1207
 IR Inten    --      3.6777                 4.2516                11.8596

                     16                     17                     18
                      A                      A                      A
 Frequencies --    295.0878               300.4853               316.3574
 Red. masses --      1.3454                 2.6079                 1.0533
 Frc consts  --      0.0690                 0.1387                 0.0621
 IR Inten    --     11.9159                11.4746                 0.2837

                     19                     20                     21
                      A                      A                      A
 Frequencies --    334.1438               363.0379               373.5878
 Red. masses --      3.2582                 2.7262                 3.1354
 Frc consts  --      0.2143                 0.2117                 0.2578
 IR Inten    --      7.3282                 2.3809                18.5918

                     22                     23                     24
                      A                      A                      A
 Frequencies --    384.4637               413.5855               416.0416
 Red. masses --      2.5596                 2.7890                 3.2135
 Frc consts  --      0.2229                 0.2811                 0.3277
 IR Inten    --      9.5105                25.2094                 2.5247

                     25                     26                     27
                      A                      A                      A
 Frequencies --    432.2381               450.8623               466.8347
 Red. masses --      3.6593                 3.4375                 2.8650
 Frc consts  --      0.4028                 0.4117                 0.3679
 IR Inten    --     61.6796               196.1160                25.1757

                     28                     29                     30
                      A                      A                      A
 Frequencies --    470.8608               535.2272               578.4638
 Red. masses --      4.9961                 3.0517                 4.3674
 Frc consts  --      0.6526                 0.5151                 0.8610
 IR Inten    --    495.5491                 8.9866                20.9156

                     31                     32                     33
                      A                      A                      A
 Frequencies --    633.0759               657.9187               664.9357
 Red. masses --      2.5230                 3.8365                 4.4598
 Frc consts  --      0.5958                 0.9784                 1.1618
 IR Inten    --      0.4273                24.5448                34.1080

                     34                     35                     36
                      A                      A                      A
 Frequencies --    734.5437               783.4892               794.2882
 Red. masses --      4.1004                 4.8379                 3.7102
 Frc consts  --      1.3035                 1.7497                 1.3791
 IR Inten    --     13.5955                 1.5341                 9.7916

                     37                     38                     39
                      A                      A                      A
 Frequencies --    809.4388               812.6771               834.4833
 Red. masses --      4.4476                 1.5849                 2.0554
 Frc consts  --      1.7169                 0.6167                 0.8433
 IR Inten    --     50.4271                42.3435                24.8229

                     40                     41                     42
                      A                      A                      A
 Frequencies --    859.8661               903.0968               913.1079
 Red. masses --      2.4847                 1.7572                 1.7927
 Frc consts  --      1.0824                 0.8444                 0.8807
 IR Inten    --     28.5903                47.2139                48.8737

                     43                     44                     45
                      A                      A                      A
 Frequencies --    914.9443               924.0714               936.6948
 Red. masses --      1.8015                 1.9403                 2.4451
 Frc consts  --      0.8885                 0.9762                 1.2640
 IR Inten    --      1.6088                 8.1673               241.2905

                     46                     47                     48
                      A                      A                      A
 Frequencies --    952.6068               954.6399               988.6300
 Red. masses --      1.2100                 1.2010                 1.5975
 Frc consts  --      0.6469                 0.6449                 0.9199
 IR Inten    --      0.4230                 4.1253                58.5749

                     49                     50                     51
                      A                      A                      A
 Frequencies --    999.4142              1040.4778              1043.6350
 Red. masses --      2.1589                 1.4284                 1.4682
 Frc consts  --      1.2705                 0.9111                 0.9421
 IR Inten    --     47.1481                47.6063               111.9014

                     52                     53                     54
                      A                      A                      A
 Frequencies --   1046.6792              1056.9541              1144.1822
 Red. masses --      1.3834                 1.4077                 3.2329
 Frc consts  --      0.8929                 0.9266                 2.4936
 IR Inten    --      2.3519                17.4243               166.6512

                     55                     56                     57
                      A                      A                      A
 Frequencies --   1173.8943              1205.6583              1207.5947
 Red. masses --      5.0313                 2.1198                 2.6205
 Frc consts  --      4.0850                 1.8155                 2.2515
 IR Inten    --      6.9223               367.8166                 8.0813

                     58                     59                     60
                      A                      A                      A
 Frequencies --   1211.7604              1219.6865              1235.2656
 Red. masses --      2.3393                 2.2854                 2.7811
 Frc consts  --      2.0238                 2.0031                 2.5003
 IR Inten    --     50.6605                73.1060               148.9524

                     61                     62                     63
                      A                      A                      A
 Frequencies --   1250.2359              1259.0300              1289.6470
 Red. masses --      1.9446                 2.7006                 3.2124
 Frc consts  --      1.7909                 2.5222                 3.1479
 IR Inten    --    120.2580               283.4770               147.7788

                     64                     65                     66
                      A                      A                      A
 Frequencies --   1335.8778              1354.4727              1367.7716
 Red. masses --      3.6502                 1.2152                 1.2806
 Frc consts  --      3.8379                 1.3135                 1.4116
 IR Inten    --   3351.4974                11.3588               308.7216

                     67                     68                     69
                      A                      A                      A
 Frequencies --   1370.7515              1375.4923              1390.7780
 Red. masses --      1.3431                 1.2408                 1.4069
 Frc consts  --      1.4869                 1.3832                 1.6034
 IR Inten    --    211.4181                44.7856               101.8358

                     70                     71                     72
                      A                      A                      A
 Frequencies --   1401.7586              1412.3807              1448.3395
 Red. masses --      1.3748                 3.0463                 3.4045
 Frc consts  --      1.5916                 3.5804                 4.2077
 IR Inten    --    112.8231               194.2895               362.2285

                     73                     74                     75
                      A                      A                      A
 Frequencies --   1459.1358              1460.4651              1475.6461
 Red. masses --      1.0474                 1.0607                 1.0590
 Frc consts  --      1.3139                 1.3330                 1.3586
 IR Inten    --      1.0697                 3.4427               131.6257

                     76                     77                     78
                      A                      A                      A
 Frequencies --   1479.2832              1484.2859              1484.7425
 Red. masses --      2.5013                 1.1504                 1.0643
 Frc consts  --      3.2249                 1.4933                 1.3823
 IR Inten    --    124.7808                41.1863                 3.5955

                     79                     80                     81
                      A                      A                      A
 Frequencies --   1486.7465              1487.6002              1493.8130
 Red. masses --      1.0767                 1.2861                 1.0639
 Frc consts  --      1.4022                 1.6769                 1.3988
 IR Inten    --    173.5957                45.8453                11.0351

                     82                     83                     84
                      A                      A                      A
 Frequencies --   1493.8934              1509.7386              1515.7221
 Red. masses --      1.0635                 1.0537                 1.0619
 Frc consts  --      1.3984                 1.4150                 1.4374
 IR Inten    --      9.1482                 1.4862                82.3913

                     85                     86                     87
                      A                      A                      A
 Frequencies --   1527.7482              1560.5487              1599.6737
 Red. masses --      1.0593                 1.6046                 3.1280
 Frc consts  --      1.4567                 2.3024                 4.7161
 IR Inten    --      3.5351               479.9754              2056.5297

                     88                     89                     90
                      A                      A                      A
 Frequencies --   2942.6573              2953.5619              2981.0821
 Red. masses --      1.0517                 1.0499                 1.0452
 Frc consts  --      5.3654                 5.3960                 5.4725
 IR Inten    --    161.7639               657.6116                37.1079

                     91                     92                     93
                      A                      A                      A
 Frequencies --   2985.1476              2989.0190              2996.9653
 Red. masses --      1.0440                 1.0389                 1.0400
 Frc consts  --      5.4812                 5.4687                 5.5036
 IR Inten    --    452.0710                 3.9017                66.7827

                     94                     95                     96
                      A                      A                      A
 Frequencies --   3025.9810              3030.7030              3045.9846
 Red. masses --      1.0834                 1.0849                 1.0886
 Frc consts  --      5.8448                 5.8715                 5.9506
 IR Inten    --     63.6644                14.6944                74.2932

                     97                     98                     99
                      A                      A                      A
 Frequencies --   3052.2438              3056.2013              3063.1192
 Red. masses --      1.0981                 1.0954                 1.0908
 Frc consts  --      6.0276                 6.0285                 6.0298
 IR Inten    --     11.3952                38.6928                44.7523

                    100                    101                    102
                      A                      A                      A
 Frequencies --   3066.6414              3072.0994              3090.2572
 Red. masses --      1.1004                 1.1011                 1.0993
 Frc consts  --      6.0973                 6.1226                 6.1852
 IR Inten    --     11.2083                52.9190                13.7826

                    103                    104                    105
                      A                      A                      A
 Frequencies --   3091.6838              3093.8708              3101.3061
 Red. masses --      1.1020                 1.0985                 1.0977
 Frc consts  --      6.2062                 6.1953                 6.2207
 IR Inten    --      1.0584                24.8374                24.7185

                    106                    107                    108
                      A                      A                      A
 Frequencies --   3142.2043              3144.9360              3363.0021
 Red. masses --      1.0874                 1.0859                 1.0715
 Frc consts  --      6.3260                 6.3278                 7.1402
 IR Inten    --     17.3948               214.4257                77.4146

 - Thermochemistry -
 -------------------
 Temperature   298.150 Kelvin.  Pressure   1.00000 Atm.
 Atom     1 has atomic number  6 and mass  12.00000

 Molecular mass:   235.15723 amu.
 Principal axes and moments of inertia in atomic units:
                           1         2         3
     Eigenvalues --  2525.856485748.594547378.24675
           X            0.79620   0.07339   0.60056
           Y           -0.60494   0.11425   0.78804
           Z            0.01077   0.99074  -0.13536
 This molecule is an asymmetric top.
 Rotational symmetry number  1.
 Warning -- assumption of classical behavior for rotation
           may cause significant error
 Rotational temperatures (Kelvin)      0.03429     0.01507     0.01174
 Rotational constants (GHZ):           0.71451     0.31394     0.24460
 Zero-point vibrational energy     840833.7 (Joules/Mol)
                                  200.96407 (Kcal/Mol)
 Warning -- explicit consideration of  30 degrees of freedom as
           vibrations may cause significant error
 Vibrational temperatures:     36.88    67.68    94.13   124.99   153.83
          (Kelvin)            245.53   261.23   290.21   346.18   358.76
                              360.58   377.09   379.30   409.29   412.36
                              424.57   432.33   455.17   480.76   522.33
                              537.51   553.16   595.06   598.59   621.89
                              648.69   671.67   677.46   770.07   832.28
                              910.85   946.60   956.69  1056.84  1127.27
                             1142.80  1164.60  1169.26  1200.64  1237.16
                             1299.35  1313.76  1316.40  1329.53  1347.69
                             1370.59  1373.51  1422.42  1437.93  1497.02
                             1501.56  1505.94  1520.72  1646.22  1688.97
                             1734.67  1737.46  1743.45  1754.86  1777.27
                             1798.81  1811.46  1855.51  1922.03  1948.78
                             1967.92  1972.21  1979.03  2001.02  2016.82
                             2032.10  2083.84  2099.37  2101.28  2123.13
                             2128.36  2135.56  2136.21  2139.10  2140.32
                             2149.26  2149.38  2172.18  2180.79  2198.09
                             2245.28  2301.57  4233.83  4249.52  4289.11
                             4294.96  4300.53  4311.96  4353.71  4360.51
                             4382.49  4391.50  4397.19  4407.15  4412.21
                             4420.07  4446.19  4448.24  4451.39  4462.09
                             4520.93  4524.86  4838.61

 Zero-point correction=                           0.320257 (Hartree/Particle)
 Thermal correction to Energy=                    0.338567
 Thermal correction to Enthalpy=                  0.339511
 Thermal correction to Gibbs Free Energy=         0.275166
 Sum of electronic and zero-point Energies=           -751.189880
 Sum of electronic and thermal Energies=              -751.171570
 Sum of electronic and thermal Enthalpies=            -751.170626
 Sum of electronic and thermal Free Energies=         -751.234971

                     E (Thermal)             CV                S
                      KCal/Mol        Cal/Mol-Kelvin    Cal/Mol-Kelvin
 Total                  212.454             71.965            135.424
 Electronic               0.000              0.000              0.000
 Translational            0.889              2.981             42.267
 Rotational               0.889              2.981             33.038
 Vibrational            210.676             66.004             60.120
 Vibration     1          0.593              1.985              6.141
 Vibration     2          0.595              1.979              4.938
 Vibration     3          0.597              1.971              4.287
 Vibration     4          0.601              1.958              3.729
 Vibration     5          0.606              1.944              3.324
 Vibration     6          0.626              1.879              2.428
 Vibration     7          0.630              1.865              2.312
 Vibration     8          0.639              1.837              2.117
 Vibration     9          0.658              1.778              1.798
 Vibration    10          0.662              1.764              1.735
 Vibration    11          0.663              1.762              1.726
 Vibration    12          0.669              1.742              1.648
 Vibration    13          0.670              1.740              1.638
 Vibration    14          0.683              1.702              1.507
 Vibration    15          0.684              1.699              1.494
 Vibration    16          0.689              1.683              1.445
 Vibration    17          0.693              1.673              1.414
 Vibration    18          0.703              1.642              1.329
 Vibration    19          0.716              1.607              1.240
 Vibration    20          0.737              1.548              1.109
 Vibration    21          0.745              1.526              1.065
 Vibration    22          0.753              1.503              1.022
 Vibration    23          0.777              1.441              0.914
 Vibration    24          0.779              1.435              0.906
 Vibration    25          0.793              1.400              0.851
 Vibration    26          0.810              1.359              0.793
 Vibration    27          0.824              1.324              0.746
 Vibration    28          0.828              1.315              0.735
 Vibration    29          0.890              1.172              0.576
 Vibration    30          0.935              1.078              0.488

 Optimization completed.
    -- Stationary point found.
 Normal termination of Gaussian 16 at Thu Dec 21 07:34:17 2023.
