 Gaussian 16, Revision A.03,
 Gaussian 16:  ES64L-G16RevA.03 25-Dec-2016

 --------------------------------------
 #P UB3LYP/6-311++G(d,p) nosym opt freq
 --------------------------------------

 -------
 Reduced
 -------
 Symbolic Z-matrix:
 Charge = -2 Multiplicity = 1

 SCF Done:  E(UB3LYP) =  -535.375693659     A.U. after   56 cycles
 SCF Done:  E(UB3LYP) =  -535.393126699     A.U. after   31 cycles
 SCF Done:  E(UB3LYP) =  -535.394268087     A.U. after   28 cycles
 SCF Done:  E(UB3LYP) =  -535.394996572     A.U. after   27 cycles
 SCF Done:  E(UB3LYP) =  -535.396432864     A.U. after   26 cycles
 SCF Done:  E(UB3LYP) =  -535.397559108     A.U. after   26 cycles
 SCF Done:  E(UB3LYP) =  -535.398852669     A.U. after   29 cycles
 SCF Done:  E(UB3LYP) =  -535.401305986     A.U. after   25 cycles
 SCF Done:  E(UB3LYP) =  -535.407405692     A.U. after   27 cycles
 SCF Done:  E(UB3LYP) =  -535.411017718     A.U. after   28 cycles
 SCF Done:  E(UB3LYP) =  -535.414879805     A.U. after   19 cycles
 SCF Done:  E(UB3LYP) =  -535.414880987     A.U. after   21 cycles
 SCF Done:  E(UB3LYP) =  -535.414881848     A.U. after   22 cycles
 SCF Done:  E(UB3LYP) =  -535.414883198     A.U. after   24 cycles
 SCF Done:  E(UB3LYP) =  -535.414883868     A.U. after   23 cycles
 SCF Done:  E(UB3LYP) =  -535.414883254     A.U. after   26 cycles
 SCF Done:  E(UB3LYP) =  -535.414884155     A.U. after   26 cycles
 SCF Done:  E(UB3LYP) =  -535.414884176     A.U. after   19 cycles
 SCF Done:  E(UB3LYP) =  -535.414884177     A.U. after   19 cycles
 Optimization completed.
    -- Stationary point found.
 Normal termination of Gaussian 16 at Wed Dec 20 03:09:23 2023.

 ----------------------------------------------------------------------
 #P Geom=AllCheck Guess=TCheck SCRF=Check GenChk UB3LYP/6-311++G(d,p) F
 req
 ----------------------------------------------------------------------

 Structure from the checkpoint file:  "083-an.chk"
 -------
 Reduced
 -------
 Charge = -2 Multiplicity = 1

                          Input orientation:
 ---------------------------------------------------------------------
 Center     Atomic      Atomic             Coordinates (Angstroms)
 Number     Number       Type             X           Y           Z
 ---------------------------------------------------------------------
      1          6           0        1.678244    0.924932   -0.674368
      2          6           0        0.622615    1.566564    0.046474
      3          6           0       -0.530991    0.913755    0.475656
      4          6           0       -0.776479   -0.476610    0.243249
      5          6           0        0.285134   -1.159055   -0.456723
      6          6           0        1.438270   -0.483615   -0.883286
      7          8           0        2.731005    1.549726   -1.107494
      8          8           0       -1.857336   -1.081554    0.636423
      9          6           0        0.108600   -2.634671   -0.711978
     10          8           0        2.364755   -1.222290   -1.638010
     11          6           0        3.676862   -1.258247   -1.092617
     12          1           0        0.750036    2.633895    0.231601
     13          1           0       -1.302855    1.464008    1.015257
     14          1           0       -0.474346   -3.070994    0.106880
     15          1           0        1.070485   -3.147086   -0.816161
     16          1           0       -0.463534   -2.831879   -1.633246
     17          1           0        4.301484   -1.830014   -1.790760
     18          1           0        3.682886   -1.780642   -0.119833
     19          1           0        4.065275   -0.242912   -0.973256
 ---------------------------------------------------------------------

 SCF Done:  E(UB3LYP) =  -535.414884177     A.U. after    2 cycles

 Alpha  occ. eigenvalues --  -18.86327 -18.75589 -18.75401  -9.95357  -9.92059
 Alpha  occ. eigenvalues --   -9.91352  -9.91029  -9.89566  -9.87399  -9.86942
 Alpha  occ. eigenvalues --   -9.86776  -0.77052  -0.66418  -0.66130  -0.52587
 Alpha  occ. eigenvalues --   -0.47524  -0.44207  -0.38832  -0.37437  -0.29339
 Alpha  occ. eigenvalues --   -0.27350  -0.21575  -0.19878  -0.19064  -0.16314
 Alpha  occ. eigenvalues --   -0.16093  -0.14390  -0.12542  -0.11750  -0.09265
 Alpha  occ. eigenvalues --   -0.09039  -0.07870  -0.06388  -0.06015  -0.04372
 Alpha  occ. eigenvalues --   -0.01132   0.04027   0.05686   0.06966   0.07112
 Alpha  occ. eigenvalues --    0.14870
 Alpha virt. eigenvalues --    0.16955   0.19361   0.19685   0.20515   0.21392
 Alpha virt. eigenvalues --    0.22213   0.23290   0.24666   0.26344   0.27957
 Alpha virt. eigenvalues --    0.28268   0.29127   0.29817   0.30390   0.30826

  Beta  occ. eigenvalues --  -18.86327 -18.75589 -18.75401  -9.95357  -9.92059
  Beta  occ. eigenvalues --   -9.91352  -9.91029  -9.89566  -9.87399  -9.86942
  Beta  occ. eigenvalues --   -9.86776  -0.77052  -0.66418  -0.66130  -0.52587
  Beta  occ. eigenvalues --   -0.47524  -0.44207  -0.38832  -0.37437  -0.29339
  Beta  occ. eigenvalues --   -0.27350  -0.21575  -0.19878  -0.19064  -0.16314
  Beta  occ. eigenvalues --   -0.16093  -0.14390  -0.12542  -0.11750  -0.09265
  Beta  occ. eigenvalues --   -0.09039  -0.07870  -0.06388  -0.06015  -0.04372
  Beta  occ. eigenvalues --   -0.01132   0.04027   0.05686   0.06966   0.07112
  Beta  occ. eigenvalues --    0.14870
  Beta virt. eigenvalues --    0.16955   0.19361   0.19685   0.20515   0.21392
  Beta virt. eigenvalues --    0.22213   0.23290   0.24666   0.26344   0.27957
  Beta virt. eigenvalues --    0.28268   0.29127   0.29817   0.30390   0.30826

 Mulliken charges and spin densities:
               1          2
     1  C   -0.142652   0.000000
     2  C    0.004821  -0.000000
     3  C    0.516283   0.000000
     4  C   -1.736941  -0.000000
     5  C    1.937479   0.000000
     6  C   -1.291406  -0.000000
     7  O   -0.561565  -0.000000
     8  O   -0.555877   0.000000
     9  C   -0.261876   0.000000
    10  O   -0.240383  -0.000000
    11  C    0.698169  -0.000000
    12  H    0.050533   0.000000
    13  H    0.052195   0.000000
    14  H    0.087496   0.000000
    15  H   -0.002105  -0.000000
    16  H    0.102829   0.000000
    17  H   -0.699169  -0.000000
    18  H   -0.152837  -0.000000
    19  H    0.195007   0.000000
 Sum of Mulliken charges =  -2.00000  -0.00000

 Dipole moment (field-independent basis, Debye):
    X=             -9.5875    Y=              3.2176    Z=              5.0668  Tot=             11.3113
 Quadrupole moment (field-independent basis, Debye-Ang):
   XX=           -146.8820   YY=           -108.2712   ZZ=            -93.6859
   XY=             -1.8363   XZ=             29.2734   YZ=             -1.3717

  Exact polarizability: 832.484-304.369 519.017-274.570 108.277 380.548
 Approx polarizability:1917.068********1073.965-661.181 389.466 500.412

                      1                      2                      3
                      A                      A                      A
 Frequencies --     28.2768                95.9352               113.5416
 Red. masses --      1.0413                 3.3264                 3.6064
 Frc consts  --      0.0005                 0.0180                 0.0274
 IR Inten    --      0.7340                 2.4608                 1.6599

                      4                      5                      6
                      A                      A                      A
 Frequencies --    144.3512               180.6204               213.0410
 Red. masses --      4.4921                 1.1548                 3.2205
 Frc consts  --      0.0551                 0.0222                 0.0861
 IR Inten    --      9.4404                19.1940                30.4478

                      7                      8                      9
                      A                      A                      A
 Frequencies --    301.4015               313.5301               341.8810
 Red. masses --      3.5550                 4.0499                 7.4544
 Frc consts  --      0.1903                 0.2346                 0.5134
 IR Inten    --     22.9005                 8.7775                38.6963

                     10                     11                     12
                      A                      A                      A
 Frequencies --    356.2076               380.2451               458.8035
 Red. masses --      8.4759                 5.4757                10.8106
 Frc consts  --      0.6336                 0.4665                 1.3408
 IR Inten    --     61.1700                 4.1915               607.6123

                     13                     14                     15
                      A                      A                      A
 Frequencies --    472.4568               530.7161               617.5737
 Red. masses --      5.7097                 3.4996                 3.8705
 Frc consts  --      0.7509                 0.5808                 0.8698
 IR Inten    --     27.8650                 5.5781                 1.0542

                     16                     17                     18
                      A                      A                      A
 Frequencies --    624.6117               660.2367               748.2468
 Red. masses --      2.7635                 4.1175                 5.2994
 Frc consts  --      0.6352                 1.0575                 1.7481
 IR Inten    --     18.8881                19.6470                10.1453

                     19                     20                     21
                      A                      A                      A
 Frequencies --    764.8789               793.5863               856.6868
 Red. masses --      7.1754                 2.4342                 1.3173
 Frc consts  --      2.4733                 0.9032                 0.5696
 IR Inten    --     29.3341                15.8447                 3.4820

                     22                     23                     24
                      A                      A                      A
 Frequencies --    872.9044              1009.2484              1028.3165
 Red. masses --      2.5074                 3.5626                 2.9531
 Frc consts  --      1.1257                 2.1380                 1.8398
 IR Inten    --     14.5301                24.4435                79.6324

                     25                     26                     27
                      A                      A                      A
 Frequencies --   1041.4968              1078.2275              1120.5213
 Red. masses --      1.4474                 2.9082                 2.0464
 Frc consts  --      0.9250                 1.9920                 1.5139
 IR Inten    --      7.2675                13.0830               966.5047

                     28                     29                     30
                      A                      A                      A
 Frequencies --   1157.5730              1162.0531              1201.1763
 Red. masses --      1.7743                 1.5021                 3.3922
 Frc consts  --      1.4008                 1.1951                 2.8837
 IR Inten    --     35.3949               143.8080               114.6370

                     31                     32                     33
                      A                      A                      A
 Frequencies --   1211.9983              1306.5038              1335.7206
 Red. masses --      1.7761                 2.3184                 6.0418
 Frc consts  --      1.5372                 2.3317                 6.3511
 IR Inten    --    106.4498               170.7536              1972.4362

                     34                     35                     36
                      A                      A                      A
 Frequencies --   1371.2479              1413.5817              1423.3828
 Red. masses --      1.4463                 3.6488                 1.5157
 Frc consts  --      1.6023                 4.2957                 1.8093
 IR Inten    --    284.6038               174.8932                33.4942

                     37                     38                     39
                      A                      A                      A
 Frequencies --   1443.0405              1453.8273              1457.7351
 Red. masses --      2.2499                 1.2753                 1.1825
 Frc consts  --      2.7604                 1.5881                 1.4805
 IR Inten    --    148.3055               606.1234                83.0161

                     40                     41                     42
                      A                      A                      A
 Frequencies --   1488.5485              1493.5041              1513.7834
 Red. masses --      3.1370                 1.1574                 1.0522
 Frc consts  --      4.0954                 1.5211                 1.4206
 IR Inten    --    331.8320               271.4842                82.8859

                     43                     44                     45
                      A                      A                      A
 Frequencies --   1578.1585              2912.4261              2932.2502
 Red. masses --      5.4620                 1.0498                 1.0646
 Frc consts  --      8.0150                 5.2463                 5.3932
 IR Inten    --   2677.9570               104.2557               219.6532

                     46                     47                     48
                      A                      A                      A
 Frequencies --   2996.3014              3007.5038              3060.0043
 Red. masses --      1.0818                 1.0644                 1.1019
 Frc consts  --      5.7225                 5.6724                 6.0790
 IR Inten    --    167.3025               217.1844                 8.1824

                     49                     50                     51
                      A                      A                      A
 Frequencies --   3063.6698              3071.1087              3099.2504
 Red. masses --      1.1005                 1.0830                 1.0919
 Frc consts  --      6.0857                 6.0184                 6.1794
 IR Inten    --     16.3332                59.4963               539.6086

 - Thermochemistry -
 -------------------
 Temperature   298.150 Kelvin.  Pressure   1.00000 Atm.
 Atom     1 has atomic number  6 and mass  12.00000

 Molecular mass:   152.04734 amu.
 Principal axes and moments of inertia in atomic units:
                           1         2         3
     Eigenvalues --  1056.965691793.957252754.40272
           X            0.92541  -0.07863   0.37073
           Y            0.14657   0.97638  -0.15876
           Z           -0.34949   0.20125   0.91507
 This molecule is an asymmetric top.
 Rotational symmetry number  1.
 Warning -- assumption of classical behavior for rotation
           may cause significant error
 Rotational temperatures (Kelvin)      0.08195     0.04828     0.03145
 Rotational constants (GHZ):           1.70747     1.00601     0.65522
 Zero-point vibrational energy     366666.7 (Joules/Mol)
                                   87.63546 (Kcal/Mol)
 Warning -- explicit consideration of  15 degrees of freedom as
           vibrations may cause significant error
 Vibrational temperatures:     40.68   138.03   163.36   207.69   259.87
          (Kelvin)            306.52   433.65   451.10   491.89   512.50
                              547.09   660.12   679.76   763.58   888.55
                              898.68   949.93  1076.56  1100.49  1141.79
                             1232.58  1255.91  1452.08  1479.52  1498.48
                             1551.33  1612.18  1665.49  1671.94  1728.22
                             1743.80  1879.77  1921.80  1972.92  2033.83
                             2047.93  2076.21  2091.73  2097.36  2141.69
                             2148.82  2178.00  2270.62  4190.33  4218.85
                             4311.01  4327.13  4402.66  4407.94  4418.64
                             4459.13

 Zero-point correction=                           0.139656 (Hartree/Particle)
 Thermal correction to Energy=                    0.150303
 Thermal correction to Enthalpy=                  0.151247
 Thermal correction to Gibbs Free Energy=         0.102804
 Sum of electronic and zero-point Energies=           -535.275228
 Sum of electronic and thermal Energies=              -535.264582
 Sum of electronic and thermal Enthalpies=            -535.263637
 Sum of electronic and thermal Free Energies=         -535.312080

                     E (Thermal)             CV                S
                      KCal/Mol        Cal/Mol-Kelvin    Cal/Mol-Kelvin
 Total                   94.316             38.965            101.955
 Electronic               0.000              0.000              0.000
 Translational            0.889              2.981             40.967
 Rotational               0.889              2.981             30.036
 Vibrational             92.539             33.003             30.952
 Vibration     1          0.593              1.984              5.947
 Vibration     2          0.603              1.952              3.535
 Vibration     3          0.607              1.938              3.207
 Vibration     4          0.616              1.909              2.745
 Vibration     5          0.630              1.866              2.322
 Vibration     6          0.644              1.821              2.017
 Vibration     7          0.693              1.671              1.409
 Vibration     8          0.701              1.648              1.344
 Vibration     9          0.721              1.592              1.203
 Vibration    10          0.732              1.563              1.139
 Vibration    11          0.750              1.512              1.038
 Vibration    12          0.817              1.341              0.770
 Vibration    13          0.829              1.311              0.731
 Vibration    14          0.886              1.182              0.586
 Vibration    15          0.977              0.995              0.420

 Optimization completed.
    -- Stationary point found.
 Normal termination of Gaussian 16 at Wed Dec 20 03:19:43 2023.
