 Q-Chem 5.4, Q-Chem, Inc., Pleasanton, CA (2021)
 Q-Chem 5.4.0 for Intel X86 EM64T Linux

User input:
--------------------------------------------------------------
$molecule
0 1
O                 -1.3295580000     -2.3931260000      1.1733910000
C                 -1.1989660000     -1.3348140000      0.5923270000
C                 -2.4009190000     -0.6263000000      0.0290160000
O                 -2.2626680000     -0.1876570000     -1.3254660000
C                 -2.3031410000      0.8145980000     -0.3057950000
C                 -1.0040000000      1.5380000000     -0.0753530000
O                 -0.9805710000      2.7510080000     -0.0225550000
C                  0.2176830000      0.6943990000      0.0741950000
C                  1.4745640000      1.2916720000     -0.0536450000
C                  2.6278320000      0.5335100000      0.1123890000
C                  2.5356610000     -0.8247660000      0.4277790000
C                  1.2902740000     -1.4240780000      0.5770130000
C                  0.1247130000     -0.6756300000      0.3923940000
H                 -3.3614900000     -1.0607440000      0.2891020000
H                 -3.1918630000      1.4383450000     -0.2914230000
H                  1.5260990000      2.3496280000     -0.2802650000
H                  3.6004560000      0.9990370000      0.0019590000
H                  3.4368380000     -1.4120040000      0.5617140000
H                  1.1990570000     -2.4710770000      0.8392160000
$end
$rem
MAX_SCF_CYCLES=200
BASIS  =  6-311++G(d,p)
GUI  =  2
JOB_TYPE  =  SP
METHOD  =  B3LYP
SOLVENT_METHOD = PCM
$end
$pcm
theory = CPCM
$end
$solvent
dielectric 37.219
opticaldielectric 1.43
$end

--------------------------------------------------------------

             Standard Nuclear Orientation (Angstroms)
    I     Atom           X                Y                Z
 ----------------------------------------------------------------
    1      O      -1.3295580000    -2.3931260000     1.1733910000
    2      C      -1.1989660000    -1.3348140000     0.5923270000
    3      C      -2.4009190000    -0.6263000000     0.0290160000
    4      O      -2.2626680000    -0.1876570000    -1.3254660000
    5      C      -2.3031410000     0.8145980000    -0.3057950000
    6      C      -1.0040000000     1.5380000000    -0.0753530000
    7      O      -0.9805710000     2.7510080000    -0.0225550000
    8      C       0.2176830000     0.6943990000     0.0741950000
    9      C       1.4745640000     1.2916720000    -0.0536450000
   10      C       2.6278320000     0.5335100000     0.1123890000
   11      C       2.5356610000    -0.8247660000     0.4277790000
   12      C       1.2902740000    -1.4240780000     0.5770130000
   13      C       0.1247130000    -0.6756300000     0.3923940000
   14      H      -3.3614900000    -1.0607440000     0.2891020000
   15      H      -3.1918630000     1.4383450000    -0.2914230000
   16      H       1.5260990000     2.3496280000    -0.2802650000
   17      H       3.6004560000     0.9990370000     0.0019590000
   18      H       3.4368380000    -1.4120040000     0.5617140000
   19      H       1.1990570000    -2.4710770000     0.8392160000
 ----------------------------------------------------------------

    9    -610.4836472304      1.54e-06  Convergence criterion met
 Total energy in the final basis set =     -610.4836472304

                    Orbital Energies (a.u.)
 --------------------------------------------------------------

 Alpha MOs
 -- Occupied --
-19.1813 -19.1458 -19.1458 -10.2929 -10.2928 -10.2613 -10.2610 -10.2155
-10.2150 -10.2014 -10.2014 -10.2005 -10.2000  -1.1249  -1.0791  -1.0777
 -0.8924  -0.8061  -0.7841  -0.7370  -0.7253  -0.6569  -0.6506  -0.5998
 -0.5569  -0.5507  -0.5352  -0.5022  -0.4861  -0.4724  -0.4601  -0.4565
 -0.4547  -0.4463  -0.4431  -0.4099  -0.3877  -0.3837  -0.3757  -0.3544
 -0.3321  -0.2911  -0.2882  -0.2824  -0.2813

          Ground-State Mulliken Net Atomic Charges

     Atom                 Charge (a.u.)
  ----------------------------------------
      1 O                    -0.297228
      2 C                    -0.037811
      3 C                    -0.181319
      4 O                    -0.108410
      5 C                    -0.185171
      6 C                    -0.032500
      7 O                    -0.297543
      8 C                    -0.096064
      9 C                     0.226323
     10 C                    -0.284331
     11 C                    -0.286326
     12 C                     0.222515
     13 C                    -0.097439
     14 H                     0.288933
     15 H                     0.289041
     16 H                     0.211068
     17 H                     0.227713
     18 H                     0.227542
     19 H                     0.211007
  ----------------------------------------
  Sum of atomic charges =     0.000000

                    Cartesian Multipole Moments
 -----------------------------------------------------------------
    Charge (ESU x 10^10)
                 0.0000
    Dipole Moment (Debye)
         X       2.5676      Y      -0.0721      Z       0.4432
       Tot       2.6066
    Quadrupole Moments (Debye-Ang)
        XX     -56.1240     XY      -2.5341     YY     -87.6244
        XZ      -1.1560     YZ       1.9787     ZZ     -80.0495

 Total job time:  24.25s(wall), 162.02s(cpu)
        *  Thank you very much for using Q-Chem.  Have a nice day.  *
