 Gaussian 16, Revision A.03,
 Gaussian 16:  ES64L-G16RevA.03 25-Dec-2016

 ----------------------------------------------------------------------
 #P UB3LYP/6-311++G(d,p) nosym opt freq SCRF=(PCM,Solvent=n,n-DiMethylF
 ormamide)
 ----------------------------------------------------------------------

 -------
 Radical
 -------
 Symbolic Z-matrix:
 Charge = -1 Multiplicity = 2

 SCF Done:  E(UB3LYP) =  -614.049705923     A.U. after   17 cycles
 SCF Done:  E(UB3LYP) =  -614.049887041     A.U. after   13 cycles
 SCF Done:  E(UB3LYP) =  -614.049965508     A.U. after   12 cycles
 SCF Done:  E(UB3LYP) =  -614.049968265     A.U. after   10 cycles
 SCF Done:  E(UB3LYP) =  -614.049968996     A.U. after    9 cycles
 Optimization completed.
    -- Stationary point found.
 Normal termination of Gaussian 16 at Sun Feb 11 01:06:03 2024.

 ----------------------------------------------------------------------
 #P Geom=AllCheck Guess=TCheck SCRF=Check GenChk UB3LYP/6-311++G(d,p) F
 req
 ----------------------------------------------------------------------

 Structure from the checkpoint file:  "245-rad.chk"
 -------
 Radical
 -------
 Charge = -1 Multiplicity = 2

                          Input orientation:
 ---------------------------------------------------------------------
 Center     Atomic      Atomic             Coordinates (Angstroms)
 Number     Number       Type             X           Y           Z
 ---------------------------------------------------------------------
      1          6           0        5.731253   -5.354774    1.326829
      2          6           0        6.694503   -5.187290    0.341972
      3          6           0        6.603722   -4.172635   -0.612543
      4          6           0        4.621986   -4.454826    1.351283
      5          6           0        4.529557   -3.403856    0.366572
      6          6           0        5.546316   -3.273952   -0.628737
      7          6           0        3.567446   -4.598283    2.381842
      8          6           0        2.485338   -3.661017    2.346658
      9          6           0        2.399603   -2.660933    1.414457
     10          6           0        3.383173   -2.465507    0.391880
     11          8           0        3.593811   -5.504471    3.269742
     12          8           0        3.250644   -1.518547   -0.442673
     13          6           0        5.940929   -6.491674    2.304074
     14          1           0        7.542007   -5.864902    0.312554
     15          1           0        1.564807   -1.966386    1.419618
     16          6           0        5.559464   -2.220776   -1.715963
     17          1           0        7.382245   -4.084242   -1.363802
     18          1           0        6.867478   -7.015685    2.053821
     19          1           0        5.116965   -7.206551    2.282629
     20          1           0        6.005339   -6.138744    3.334661
     21          1           0        1.719758   -3.779292    3.107927
     22          1           0        5.565558   -1.209410   -1.306679
     23          1           0        4.676420   -2.282101   -2.354201
     24          1           0        6.449929   -2.354214   -2.336377
 ---------------------------------------------------------------------

 SCF Done:  E(UB3LYP) =  -614.049968996     A.U. after    1 cycles

 Alpha  occ. eigenvalues --  -19.06804 -19.06797 -10.21712 -10.21703 -10.17872
 Alpha  occ. eigenvalues --  -10.17868 -10.17525 -10.17486 -10.16338 -10.16285
 Alpha  occ. eigenvalues --  -10.15670 -10.15605 -10.15203 -10.15194  -0.99191
 Alpha  occ. eigenvalues --   -0.98931  -0.85577  -0.80056  -0.78055  -0.73507
 Alpha  occ. eigenvalues --   -0.70706  -0.67893  -0.63981  -0.61034  -0.59917
 Alpha  occ. eigenvalues --   -0.52649  -0.49902  -0.48715  -0.46903  -0.45217
 Alpha  occ. eigenvalues --   -0.42485  -0.41714  -0.41679  -0.40584  -0.38960
 Alpha  occ. eigenvalues --   -0.38777  -0.38721  -0.38451  -0.37714  -0.36415
 Alpha  occ. eigenvalues --   -0.35457  -0.34185  -0.33543  -0.33473  -0.27159
 Alpha  occ. eigenvalues --   -0.24802  -0.23895  -0.23242  -0.22924  -0.14745
 Alpha virt. eigenvalues --   -0.02457  -0.01592  -0.00220   0.00872   0.00986
 Alpha virt. eigenvalues --    0.02273   0.02980   0.03019   0.03891   0.04413
 Alpha virt. eigenvalues --    0.04877   0.05560   0.06160   0.06865   0.06989

  Beta  occ. eigenvalues --  -19.06150 -19.06143 -10.21567 -10.21559 -10.17856
  Beta  occ. eigenvalues --  -10.17852 -10.17492 -10.17452 -10.16296 -10.16242
  Beta  occ. eigenvalues --  -10.15517 -10.15451 -10.15203 -10.15194  -0.98060
  Beta  occ. eigenvalues --   -0.97768  -0.85399  -0.79482  -0.77948  -0.73305
  Beta  occ. eigenvalues --   -0.70678  -0.67096  -0.63697  -0.60715  -0.59689
  Beta  occ. eigenvalues --   -0.52370  -0.49636  -0.48599  -0.46655  -0.45035
  Beta  occ. eigenvalues --   -0.41931  -0.41466  -0.41372  -0.40364  -0.38756
  Beta  occ. eigenvalues --   -0.38487  -0.38269  -0.37613  -0.37460  -0.35292
  Beta  occ. eigenvalues --   -0.34021  -0.33844  -0.33378  -0.32908  -0.24363
  Beta  occ. eigenvalues --   -0.24025  -0.23203  -0.22646  -0.22343
  Beta virt. eigenvalues --   -0.08065  -0.01609  -0.00450  -0.00204   0.00885
  Beta virt. eigenvalues --    0.01001   0.02283   0.03042   0.03233   0.03915
  Beta virt. eigenvalues --    0.04461   0.04884   0.06188   0.06441   0.06876

 Mulliken charges and spin densities:
               1          2
     1  C    1.037226   0.036424
     2  C   -0.610514   0.023576
     3  C   -0.609852   0.023178
     4  C    0.204434   0.031284
     5  C    0.205641   0.031183
     6  C    1.036556   0.036792
     7  C   -0.884347   0.073386
     8  C   -0.221983   0.108488
     9  C   -0.220322   0.108550
    10  C   -0.884474   0.073652
    11  O   -0.465677   0.232559
    12  O   -0.466412   0.232676
    13  C   -0.325962   0.006776
    14  H    0.135950  -0.002779
    15  H    0.175214  -0.010271
    16  C   -0.327674   0.006710
    17  H    0.136089  -0.002751
    18  H    0.134966  -0.000453
    19  H    0.160162   0.000417
    20  H    0.160075   0.000442
    21  H    0.175361  -0.010279
    22  H    0.160460   0.000422
    23  H    0.159983   0.000468
    24  H    0.135101  -0.000450
 Sum of Mulliken charges =  -1.00000   1.00000

 Dipole moment (field-independent basis, Debye):
    X=            -16.5203    Y=             16.8892    Z=             -6.7482  Tot=             24.5704
 Quadrupole moment (field-independent basis, Debye-Ang):
   XX=           -141.3874   YY=           -165.0538   ZZ=           -112.3148
   XY=             58.2708   XZ=            -26.4391   YZ=             41.0925

  Exact polarizability: 247.226 -54.710 244.508 -51.438 -78.556 243.490
 Approx polarizability: 267.096 -56.929 277.971 -51.301 -92.859 275.085

                      1                      2                      3
                      A                      A                      A
 Frequencies --     40.8569                61.0910               108.3035
 Red. masses --      4.7571                 5.4577                 3.1100
 Frc consts  --      0.0047                 0.0120                 0.0215
 IR Inten    --      1.7937                17.7916                 0.9470

                      4                      5                      6
                      A                      A                      A
 Frequencies --    215.3023               221.8867               234.7724
 Red. masses --      5.0249                 1.0764                 1.0507
 Frc consts  --      0.1372                 0.0312                 0.0341
 IR Inten    --      0.3819                 0.5625                 0.9128

                      7                      8                      9
                      A                      A                      A
 Frequencies --    285.5268               314.8836               322.8787
 Red. masses --      5.6305                 4.9448                 3.1561
 Frc consts  --      0.2705                 0.2889                 0.1939
 IR Inten    --      4.4521                 0.0130                 0.0565

                     10                     11                     12
                      A                      A                      A
 Frequencies --    345.8237               365.1884               375.6379
 Red. masses --      2.7592                 4.8955                11.0465
 Frc consts  --      0.1944                 0.3847                 0.9184
 IR Inten    --      7.5122                 2.3294                20.8448

                     13                     14                     15
                      A                      A                      A
 Frequencies --    455.6227               465.7638               476.4180
 Red. masses --      9.9309                 5.4133                 4.1044
 Frc consts  --      1.2146                 0.6919                 0.5489
 IR Inten    --      4.1528                 0.7197                 2.9133

                     16                     17                     18
                      A                      A                      A
 Frequencies --    485.4648               521.0269               599.0332
 Red. masses --      4.0957                 2.9528                 6.4508
 Frc consts  --      0.5687                 0.4723                 1.3638
 IR Inten    --      0.0090                 4.1113                 7.4966

                     19                     20                     21
                      A                      A                      A
 Frequencies --    639.6427               666.2777               678.1847
 Red. masses --      3.7979                 2.5216                 4.2105
 Frc consts  --      0.9155                 0.6595                 1.1410
 IR Inten    --      0.0356                21.1814                 0.0060

                     22                     23                     24
                      A                      A                      A
 Frequencies --    741.5270               763.8000               798.7977
 Red. masses --      5.2044                 6.6214                 7.4935
 Frc consts  --      1.6861                 2.2759                 2.8171
 IR Inten    --     13.9348                53.1850                 0.0022

                     25                     26                     27
                      A                      A                      A
 Frequencies --    822.1082               833.2278               882.2746
 Red. masses --      1.2781                 1.9430                 5.8221
 Frc consts  --      0.5089                 0.7948                 2.6701
 IR Inten    --     84.0374                25.4614                58.9371

                     28                     29                     30
                      A                      A                      A
 Frequencies --    927.5703               938.0789               951.6176
 Red. masses --      3.8686                 1.2943                 1.3169
 Frc consts  --      1.9611                 0.6711                 0.7026
 IR Inten    --     14.0345                 0.0040                 0.0086

                     31                     32                     33
                      A                      A                      A
 Frequencies --   1015.8774              1041.9041              1052.0048
 Red. masses --      1.6670                 1.4170                 1.5313
 Frc consts  --      1.0136                 0.9063                 0.9985
 IR Inten    --     20.7791                 0.0886                 0.0436

                     34                     35                     36
                      A                      A                      A
 Frequencies --   1055.2694              1106.8574              1134.8509
 Red. masses --      1.5416                 1.6642                 3.2998
 Frc consts  --      1.0114                 1.2012                 2.5039
 IR Inten    --      9.0984                13.9874                61.6221

                     37                     38                     39
                      A                      A                      A
 Frequencies --   1184.3195              1206.3128              1235.8945
 Red. masses --      1.7744                 2.6976                 2.8041
 Frc consts  --      1.4663                 2.3128                 2.5235
 IR Inten    --     41.9988                 0.1506                10.5890

                     40                     41                     42
                      A                      A                      A
 Frequencies --   1265.4178              1301.7817              1310.5102
 Red. masses --      2.1633                 8.4038                 2.0675
 Frc consts  --      2.0409                 8.3907                 2.0921
 IR Inten    --     16.5253                 0.9458                20.0472

                     43                     44                     45
                      A                      A                      A
 Frequencies --   1366.5367              1409.7162              1411.1545
 Red. masses --      2.8995                 1.2570                 1.2268
 Frc consts  --      3.1902                 1.4718                 1.4393
 IR Inten    --     21.4001                 3.7614                 2.8398

                     46                     47                     48
                      A                      A                      A
 Frequencies --   1417.7960              1437.4406              1461.4378
 Red. masses --      4.2618                 2.9567                 1.0504
 Frc consts  --      5.0475                 3.5995                 1.3218
 IR Inten    --    385.7784               403.1662                 7.7260

                     49                     50                     51
                      A                      A                      A
 Frequencies --   1462.4628              1471.0502              1472.9351
 Red. masses --      1.0485                 1.1414                 2.6508
 Frc consts  --      1.3213                 1.4553                 3.3885
 IR Inten    --      9.8014                59.0365                15.6191

                     52                     53                     54
                      A                      A                      A
 Frequencies --   1486.9342              1526.6628              1570.8823
 Red. masses --      1.6315                 4.4620                 5.6908
 Frc consts  --      2.1253                 6.1272                 8.2739
 IR Inten    --     35.8979               980.1102               125.5119

                     55                     56                     57
                      A                      A                      A
 Frequencies --   1600.0789              1631.0827              3029.8084
 Red. masses --      4.6986                 7.2656                 1.0384
 Frc consts  --      7.0876                11.3886                 5.6163
 IR Inten    --      9.1060                 7.3354                92.6970

                     58                     59                     60
                      A                      A                      A
 Frequencies --   3030.3624              3094.4470              3094.8620
 Red. masses --      1.0383                 1.0992                 1.0992
 Frc consts  --      5.6180                 6.2017                 6.2028
 IR Inten    --     61.1852                34.2637                44.7916

                     61                     62                     63
                      A                      A                      A
 Frequencies --   3097.5672              3097.7519              3141.0251
 Red. masses --      1.0995                 1.0997                 1.0856
 Frc consts  --      6.2154                 6.2173                 6.3104
 IR Inten    --     21.7431                31.6709                43.2076

                     64                     65                     66
                      A                      A                      A
 Frequencies --   3146.3136              3160.6429              3163.7530
 Red. masses --      1.0865                 1.0952                 1.0939
 Frc consts  --      6.3368                 6.4463                 6.4509
 IR Inten    --     28.7617                56.5726                52.6123

 - Thermochemistry -
 -------------------
 Temperature   298.150 Kelvin.  Pressure   1.00000 Atm.
 Atom     1 has atomic number  6 and mass  12.00000

 Molecular mass:   186.06808 amu.
 Principal axes and moments of inertia in atomic units:
                           1         2         3
     Eigenvalues --  1903.298692348.438324229.83891
           X           -0.06414   0.85722   0.51094
           Y            0.72844  -0.30973   0.61109
           Z           -0.68210  -0.41139   0.60457
 This molecule is an asymmetric top.
 Rotational symmetry number  1.
 Warning -- assumption of classical behavior for rotation
           may cause significant error
 Rotational temperatures (Kelvin)      0.04551     0.03688     0.02048
 Rotational constants (GHZ):           0.94822     0.76849     0.42667
 Zero-point vibrational energy     485877.0 (Joules/Mol)
                                  116.12739 (Kcal/Mol)
 Warning -- explicit consideration of  18 degrees of freedom as
           vibrations may cause significant error
 Vibrational temperatures:     58.78    87.90   155.82   309.77   319.25
          (Kelvin)            337.79   410.81   453.05   464.55   497.56
                              525.42   540.46   655.54   670.13   685.46
                              698.48   749.64   861.88   920.30   958.63
                              975.76  1066.89  1098.94  1149.29  1182.83
                             1198.83  1269.40  1334.57  1349.69  1369.17
                             1461.62  1499.07  1513.60  1518.30  1592.52
                             1632.80  1703.97  1735.62  1778.18  1820.65
                             1872.97  1885.53  1966.14  2028.27  2030.34
                             2039.89  2068.16  2102.68  2104.16  2116.51
                             2119.23  2139.37  2196.53  2260.15  2302.16
                             2346.76  4359.22  4360.02  4452.22  4452.82
                             4456.71  4456.97  4519.23  4526.84  4547.46
                             4551.93

 Zero-point correction=                           0.185061 (Hartree/Particle)
 Thermal correction to Energy=                    0.196810
 Thermal correction to Enthalpy=                  0.197754
 Thermal correction to Gibbs Free Energy=         0.146469
 Sum of electronic and zero-point Energies=           -613.864908
 Sum of electronic and thermal Energies=              -613.853159
 Sum of electronic and thermal Enthalpies=            -613.852215
 Sum of electronic and thermal Free Energies=         -613.903500

                     E (Thermal)             CV                S
                      KCal/Mol        Cal/Mol-Kelvin    Cal/Mol-Kelvin
 Total                  123.500             46.385            107.939
 Electronic               0.000              0.000              1.377
 Translational            0.889              2.981             41.569
 Rotational               0.889              2.981             31.314
 Vibrational            121.723             40.423             33.679
 Vibration     1          0.594              1.981              5.217
 Vibration     2          0.597              1.973              4.422
 Vibration     3          0.606              1.943              3.299
 Vibration     4          0.645              1.818              1.998
 Vibration     5          0.648              1.808              1.944
 Vibration     6          0.655              1.788              1.842
 Vibration     7          0.683              1.701              1.500
 Vibration     8          0.702              1.645              1.337
 Vibration     9          0.708              1.630              1.295
 Vibration    10          0.724              1.584              1.185
 Vibration    11          0.738              1.544              1.100
 Vibration    12          0.746              1.522              1.057
 Vibration    13          0.814              1.348              0.779
 Vibration    14          0.823              1.326              0.750
 Vibration    15          0.833              1.302              0.720
 Vibration    16          0.842              1.282              0.695
 Vibration    17          0.876              1.203              0.608
 Vibration    18          0.957              1.034              0.451

                           ! Non-Optimized Parameters !
 Normal termination of Gaussian 16 at Sun Feb 11 01:34:43 2024.
