 Q-Chem 5.4, Q-Chem, Inc., Pleasanton, CA (2021)
 Q-Chem 5.4.0 for Intel X86 EM64T Linux

User input:
--------------------------------------------------------------
$molecule
-1 2
C                 -1.9229320000     -0.2935880000      1.2230200000
C                 -2.7541370000      0.7634990000      0.6022820000
C                 -2.1694110000      1.6771850000     -0.2485450000
C                 -0.7664060000      1.6976720000     -0.5560680000
C                  0.0648280000      0.6405910000      0.0647030000
C                 -0.5199120000     -0.2731060000      0.9155040000
O                 -0.2151440000      2.5292110000     -1.3241690000
O                 -2.4741960000     -1.1251530000      1.9910910000
Br                 0.5317030000     -1.5748170000      1.8889240000
Br                -3.2210800000      2.9788370000     -1.2219770000
N                  1.4163330000      0.7427550000     -0.2718980000
N                 -4.1056810000      0.6614200000      0.9388590000
C                 -4.8496320000      1.7760990000      1.5421640000
C                 -6.3173750000      1.3577770000      1.7035980000
C                 -7.1630190000      2.4699270000      2.3416610000
C                 -6.5730670000      2.9403400000      3.6792670000
C                 -5.1038030000      3.3575000000      3.5221520000
C                 -4.2652430000      2.2349270000      2.8936160000
C                  2.1606390000     -0.3718940000     -0.8747790000
C                  3.6281290000      0.0470690000     -1.0368540000
C                  1.5761020000     -0.8317520000     -2.2258210000
C                  2.4150440000     -1.9542510000     -2.8539760000
C                  4.4741450000     -1.0650160000     -1.6745370000
C                  3.8840570000     -1.5364510000     -3.0117240000
H                  1.4852260000      1.5764630000     -0.8587550000
H                 -4.1746460000     -0.1723680000      1.5255930000
H                 -4.8141650000      2.6204450000      0.8506760000
H                 -6.3636370000      0.4575960000      2.3329320000
H                 -6.7185930000      1.0787440000      0.7246280000
H                 -8.1939370000      2.1244690000      2.4816890000
H                 -7.2124870000      3.3232090000      1.6522950000
H                 -6.6380630000      2.1219880000      4.4090140000
H                 -7.1656450000      3.7691350000      4.0846320000
H                 -4.6844520000      3.6436190000      4.4934870000
H                 -5.0491830000      4.2505350000      2.8854280000
H                 -4.2279630000      1.3734950000      3.5732460000
H                 -3.2321210000      2.5633000000      2.7476200000
H                  2.1257850000     -1.2158900000     -0.1828330000
H                  4.0294910000      0.3268410000     -0.0581520000
H                  3.6737730000      0.9469240000     -1.6667000000
H                  1.5382110000      0.0292960000     -2.9059040000
H                  0.5431860000     -1.1605600000     -2.0793530000
H                  1.9955670000     -2.2411050000     -3.8250400000
H                  2.3610360000     -2.8469660000     -2.2167520000
H                  4.5242210000     -1.9178960000     -0.9847180000
H                  5.5048530000     -0.7191260000     -1.8150350000
H                  4.4769340000     -2.3651730000     -3.4167970000
H                  3.9484490000     -0.7184650000     -3.7419340000
$end
$rem
MAX_SCF_CYCLES=200
BASIS  =  6-311++G(d,p)
GUI  =  2
JOB_TYPE  =  SP
METHOD  =  B3LYP
THRESH = 14
SCF_CONVERGENCE = 8
SCF_ALGORITHM = DIIS_GDM
scf_guess = core
SOLVENT_METHOD = PCM
$end
$pcm
theory = CPCM
$end
$solvent
dielectric 37.219
opticaldielectric 1.43
$end

--------------------------------------------------------------

             Standard Nuclear Orientation (Angstroms)
    I     Atom           X                Y                Z
 ----------------------------------------------------------------
    1      C      -1.9229320000    -0.2935880000     1.2230200000
    2      C      -2.7541370000     0.7634990000     0.6022820000
    3      C      -2.1694110000     1.6771850000    -0.2485450000
    4      C      -0.7664060000     1.6976720000    -0.5560680000
    5      C       0.0648280000     0.6405910000     0.0647030000
    6      C      -0.5199120000    -0.2731060000     0.9155040000
    7      O      -0.2151440000     2.5292110000    -1.3241690000
    8      O      -2.4741960000    -1.1251530000     1.9910910000
    9      Br      0.5317030000    -1.5748170000     1.8889240000
   10      Br     -3.2210800000     2.9788370000    -1.2219770000
   11      N       1.4163330000     0.7427550000    -0.2718980000
   12      N      -4.1056810000     0.6614200000     0.9388590000
   13      C      -4.8496320000     1.7760990000     1.5421640000
   14      C      -6.3173750000     1.3577770000     1.7035980000
   15      C      -7.1630190000     2.4699270000     2.3416610000
   16      C      -6.5730670000     2.9403400000     3.6792670000
   17      C      -5.1038030000     3.3575000000     3.5221520000
   18      C      -4.2652430000     2.2349270000     2.8936160000
   19      C       2.1606390000    -0.3718940000    -0.8747790000
   20      C       3.6281290000     0.0470690000    -1.0368540000
   21      C       1.5761020000    -0.8317520000    -2.2258210000
   22      C       2.4150440000    -1.9542510000    -2.8539760000
   23      C       4.4741450000    -1.0650160000    -1.6745370000
   24      C       3.8840570000    -1.5364510000    -3.0117240000
   25      H       1.4852260000     1.5764630000    -0.8587550000
   26      H      -4.1746460000    -0.1723680000     1.5255930000
   27      H      -4.8141650000     2.6204450000     0.8506760000
   28      H      -6.3636370000     0.4575960000     2.3329320000
   29      H      -6.7185930000     1.0787440000     0.7246280000
   30      H      -8.1939370000     2.1244690000     2.4816890000
   31      H      -7.2124870000     3.3232090000     1.6522950000
   32      H      -6.6380630000     2.1219880000     4.4090140000
   33      H      -7.1656450000     3.7691350000     4.0846320000
   34      H      -4.6844520000     3.6436190000     4.4934870000
   35      H      -5.0491830000     4.2505350000     2.8854280000
   36      H      -4.2279630000     1.3734950000     3.5732460000
   37      H      -3.2321210000     2.5633000000     2.7476200000
   38      H       2.1257850000    -1.2158900000    -0.1828330000
   39      H       4.0294910000     0.3268410000    -0.0581520000
   40      H       3.6737730000     0.9469240000    -1.6667000000
   41      H       1.5382110000     0.0292960000    -2.9059040000
   42      H       0.5431860000    -1.1605600000    -2.0793530000
   43      H       1.9955670000    -2.2411050000    -3.8250400000
   44      H       2.3610360000    -2.8469660000    -2.2167520000
   45      H       4.5242210000    -1.9178960000    -0.9847180000
   46      H       5.5048530000    -0.7191260000    -1.8150350000
   47      H       4.4769340000    -2.3651730000    -3.4167970000
   48      H       3.9484490000    -0.7184650000    -3.7419340000
 ----------------------------------------------------------------

   27   -6109.0319622680      6.41e-09  Convergence criterion met
 Total energy in the final basis set =    -6109.0319622680

                    Orbital Energies (a.u.)
 --------------------------------------------------------------

 Alpha MOs
 -- Occupied --
********-482.8231 -62.4759 -62.4759 -56.2963 -56.2963 -56.2927 -56.2927
-56.2924 -56.2924 -19.0866 -19.0866 -14.3146 -14.3146 -10.2372 -10.2371
-10.2179 -10.2179 -10.2111 -10.2111 -10.1943 -10.1943 -10.1579 -10.1579
-10.1576 -10.1576 -10.1575 -10.1575 -10.1561 -10.1561 -10.1556 -10.1556
 -8.6847  -8.6847  -6.5157  -6.5157  -6.5037  -6.5037  -6.5030  -6.5030
 -2.6267  -2.6267  -2.6235  -2.6235  -2.6228  -2.6228  -2.6133  -2.6133
 -2.6132  -2.6132  -1.0199  -1.0163  -0.9279  -0.9276  -0.8418  -0.8228
 -0.8135  -0.8040  -0.7700  -0.7435  -0.7363  -0.7354  -0.7239  -0.6908
 -0.6730  -0.6186  -0.6063  -0.6062  -0.6022  -0.5851  -0.5607  -0.5582
 -0.5484  -0.5183  -0.4925  -0.4908  -0.4808  -0.4708  -0.4455  -0.4454
 -0.4389  -0.4360  -0.4301  -0.4297  -0.4260  -0.4158  -0.4136  -0.4034
 -0.4026  -0.3931  -0.3921  -0.3822  -0.3779  -0.3737  -0.3736  -0.3652
 -0.3467  -0.3456  -0.3397  -0.3389  -0.3345  -0.3200  -0.3176  -0.3169
 -0.3120  -0.3117  -0.3035  -0.3030  -0.2872  -0.2823  -0.2796  -0.2785
 -0.2629  -0.2535  -0.2405  -0.2091  -0.1587

 Beta MOs
 -- Occupied --
********-482.8231 -62.4759 -62.4759 -56.2963 -56.2963 -56.2927 -56.2927
-56.2924 -56.2924 -19.0812 -19.0812 -14.3134 -14.3134 -10.2351 -10.2351
-10.2157 -10.2157 -10.2116 -10.2116 -10.1941 -10.1941 -10.1579 -10.1579
-10.1576 -10.1576 -10.1575 -10.1575 -10.1561 -10.1561 -10.1555 -10.1555
 -8.6847  -8.6847  -6.5157  -6.5157  -6.5037  -6.5037  -6.5030  -6.5030
 -2.6267  -2.6267  -2.6235  -2.6235  -2.6228  -2.6228  -2.6133  -2.6133
 -2.6132  -2.6132  -1.0107  -1.0068  -0.9247  -0.9244  -0.8389  -0.8224
 -0.8130  -0.8034  -0.7680  -0.7417  -0.7362  -0.7351  -0.7232  -0.6897
 -0.6645  -0.6174  -0.6061  -0.6060  -0.6014  -0.5816  -0.5585  -0.5578
 -0.5474  -0.5165  -0.4896  -0.4891  -0.4802  -0.4698  -0.4451  -0.4408
 -0.4370  -0.4352  -0.4283  -0.4259  -0.4215  -0.4134  -0.4084  -0.4013
 -0.4003  -0.3910  -0.3860  -0.3752  -0.3736  -0.3733  -0.3686  -0.3621
 -0.3455  -0.3453  -0.3389  -0.3387  -0.3317  -0.3178  -0.3168  -0.3118
 -0.3116  -0.3068  -0.3025  -0.3017  -0.2827  -0.2817  -0.2745  -0.2731
 -0.2580  -0.2486  -0.2270  -0.2028

          Ground-State Mulliken Net Atomic Charges

     Atom                 Charge (a.u.)    Spin (a.u.)
  --------------------------------------------------------
      1 C                    -0.159152       0.139466
      2 C                    -0.313429       0.166281
      3 C                     0.431683      -0.062701
      4 C                    -0.158786       0.139468
      5 C                    -0.312708       0.166218
      6 C                     0.432258      -0.062655
      7 O                    -0.433946       0.200270
      8 O                    -0.433947       0.200265
      9 Br                   -0.095377       0.000390
     10 Br                   -0.095411       0.000392
     11 N                     0.209754       0.054007
     12 N                     0.209845       0.053984
     13 C                    -0.460822      -0.004896
     14 C                    -0.171570       0.002818
     15 C                    -0.357669      -0.000098
     16 C                    -0.436531      -0.000245
     17 C                    -0.453824       0.001596
     18 C                    -0.219154       0.004012
     19 C                    -0.460716      -0.004894
     20 C                    -0.171587       0.002807
     21 C                    -0.219078       0.004017
     22 C                    -0.453795       0.001594
     23 C                    -0.357855      -0.000096
     24 C                    -0.436463      -0.000244
     25 H                     0.299607      -0.000863
     26 H                     0.299589      -0.000861
     27 H                     0.038460      -0.001595
     28 H                     0.141582      -0.000709
     29 H                     0.180015       0.001751
     30 H                     0.183220      -0.000188
     31 H                     0.144430       0.000230
     32 H                     0.129696       0.000249
     33 H                     0.174472      -0.000081
     34 H                     0.175072       0.000583
     35 H                     0.147001       0.000151
     36 H                     0.170625       0.000314
     37 H                     0.174934      -0.000721
     38 H                     0.038474      -0.001592
     39 H                     0.180029       0.001750
     40 H                     0.141587      -0.000709
     41 H                     0.170643       0.000316
     42 H                     0.174939      -0.000722
     43 H                     0.175076       0.000583
     44 H                     0.146995       0.000150
     45 H                     0.144443       0.000230
     46 H                     0.183231      -0.000188
     47 H                     0.174470      -0.000081
     48 H                     0.129693       0.000249
  --------------------------------------------------------
  Sum of atomic charges =    -1.000000

                    Cartesian Multipole Moments
 -----------------------------------------------------------------
    Charge (ESU x 10^10)
                -4.8032
    Dipole Moment (Debye)
         X       6.4601      Y      -3.3720      Z      -1.6015
       Tot       7.4611
    Quadrupole Moments (Debye-Ang)
        XX    -183.1803     XY      -4.5708     YY    -198.4518
        XZ      -5.2775     YZ      19.7818     ZZ    -188.4420

 Total job time:  1260.67s(wall), 9210.06s(cpu)
        *  Thank you very much for using Q-Chem.  Have a nice day.  *
