 Q-Chem 5.4, Q-Chem, Inc., Pleasanton, CA (2021)
 Q-Chem 5.4.0 for Intel X86 EM64T Linux

User input:
--------------------------------------------------------------
$molecule
-1 2
C                  4.0245770000      2.6059620000     -0.4359410000
C                  3.5542100000      1.2271720000     -0.4941440000
C                  3.0873660000      0.5828770000      0.6320820000
C                  3.0175480000      1.2443400000      1.9252280000
C                  3.5281090000      2.6061320000      1.9904730000
C                  4.0047690000      3.2501450000      0.8712210000
O                  4.4337820000      3.2229430000     -1.4627980000
O                  2.5382740000      0.6653150000      2.9452240000
C                  5.7333490000      4.8591740000      0.6215670000
C                  4.1596790000      2.7445940000      4.2759190000
H                  5.8617250000      5.9346690000      0.7654620000
H                  5.9278320000      4.5921320000     -0.4187930000
H                  6.4309480000      4.3259200000      1.2831040000
H                  3.9926340000      3.4184060000      5.1196690000
H                  5.2369150000      2.7050020000      4.0601080000
C                  2.5796730000     -0.8486830000      0.5973800000
C                  1.0924460000     -0.9224230000      0.3583550000
C                  0.4118210000     -1.6537990000     -0.5360240000
C                 -1.1001890000     -1.5673680000     -0.5970660000
C                 -1.8318340000     -2.8679040000     -0.1752530000
C                 -3.3251590000     -2.7012640000     -0.1536720000
C                 -4.2544850000     -3.2822220000     -0.9262770000
C                 -5.7194740000     -2.9359120000     -0.7478360000
C                 -6.3211230000     -2.1077810000     -1.9114560000
C                 -7.7874550000     -1.8355680000     -1.7224350000
C                 -8.4056750000     -0.6598910000     -1.5465810000
C                 -9.9026270000     -0.5930660000     -1.3593900000
C                  1.0473040000     -2.5936800000     -1.5338690000
C                 -3.9553640000     -4.2982030000     -2.0025150000
C                 -7.7160850000      0.6809910000     -1.5163530000
H                  2.7746370000     -1.2819490000      1.5851920000
H                  3.1313620000     -1.4340380000     -0.1409010000
H                  0.5206740000     -0.2801150000      1.0253010000
H                 -1.4179710000     -1.3155630000     -1.6188550000
H                 -1.4392610000     -0.7493030000      0.0459730000
H                 -1.4876170000     -3.1330910000      0.8323630000
H                 -1.5345920000     -3.6889990000     -0.8311720000
H                 -3.6820980000     -1.9862560000      0.5884390000
H                 -5.8522020000     -2.3735770000      0.1809850000
H                 -6.3046930000     -3.8602720000     -0.6409410000
H                 -6.1863670000     -2.6598620000     -2.8497800000
H                 -5.7491960000     -1.1831930000     -2.0143960000
H                 -8.4135110000     -2.7285620000     -1.7138150000
H                -10.3597910000     -1.5845870000     -1.3875580000
H                -10.3697130000      0.0207600000     -2.1395070000
H                  2.1324690000     -2.4984770000     -1.5615110000
H                  0.6676180000     -2.3991410000     -2.5450980000
H                  0.8154100000     -3.6421570000     -1.3077290000
H                 -2.8960760000     -4.5445870000     -2.0672090000
H                 -4.2703080000     -3.9397320000     -2.9889350000
H                 -4.5075150000     -5.2279350000     -1.8165130000
H                 -6.6352460000      0.6132250000     -1.6326660000
H                 -7.9201750000      1.1954630000     -0.5698730000
H                 -8.1010910000      1.3302140000     -2.3121180000
H                -10.1583760000     -0.1258820000     -0.4004890000
O                  3.4500980000      3.3057840000      3.1751520000
O                  4.3853650000      4.5700900000      0.9804850000
C                  3.5927270000      0.5592460000     -1.8479400000
H                  3.7901240000      1.7450060000      4.5119720000
H                  4.3044980000     -0.2765390000     -1.8699510000
H                  3.9050430000      1.2887840000     -2.5957310000
H                  2.6137360000      0.1579860000     -2.1300660000
$end
$rem
MAX_SCF_CYCLES=200
SCF_guess = core
BASIS  =  6-311++G(d,p)
GUI  =  2
JOB_TYPE  =  SP
SCF_CONVERGENCE  = 6
METHOD  =  B3LYP
SOLVENT_METHOD = COSMO
SCF_ALGORITHM = DIIS_GDM
$end

$solvent
dielectric 37.219
opticaldielectric 1.43
$end

--------------------------------------------------------------

             Standard Nuclear Orientation (Angstroms)
    I     Atom           X                Y                Z
 ----------------------------------------------------------------
    1      C       4.7513721290    -0.2789576558     1.5419762116
    2      C       3.7945352295     0.7402017311     1.1278846037
    3      C       3.3680851656     0.8310984365    -0.1802906531
    4      C       3.8277205539    -0.0908752729    -1.2066113729
    5      C       4.8158685768    -1.0799288345    -0.8007253875
    6      C       5.2525346461    -1.1681310066     0.5016668959
    7      O       5.1365126541    -0.3945668762     2.7423306880
    8      O       3.3922810758    -0.0363346527    -2.3952169169
    9      C       7.3657818485    -1.7817136874     1.3944114363
   10      C       5.9199162080    -1.4907037303    -2.8631653557
   11      H       7.9178622629    -2.7014543481     1.6021612778
   12      H       7.2207798194    -1.2129844435     2.3147404293
   13      H       7.9331027143    -1.1825915941     0.6678887951
   14      H       6.2017063190    -2.3550643009    -3.4692312293
   15      H       6.8307215310    -0.9484434887    -2.5716746903
   16      C       2.3626339659     1.8748322061    -0.6363697557
   17      C       0.9433899389     1.3690914016    -0.5701329213
   18      C      -0.1351191895     1.9379048010    -0.0121504697
   19      C      -1.4786881128     1.2385050139    -0.0672246891
   20      C      -2.5402659510     1.9620284223    -0.9356663229
   21      C      -3.8192744485     1.1803722816    -1.0424611063
   22      C      -5.0395490992     1.4831298215    -0.5762582031
   23      C      -6.1920851371     0.5183796442    -0.7734442921
   24      C      -6.6675470392    -0.1753308923     0.5282836549
   25      C      -7.8470301982    -1.0785377482     0.2980766978
   26      C      -7.9235618173    -2.4089558023     0.4376034646
   27      C      -9.2085666311    -3.1453462547     0.1428780474
   28      C      -0.1274921299     3.2699972654     0.7008579984
   29      C      -5.3804737682     2.7586446758     0.1564158200
   30      C      -6.7892742725    -3.2955860053     0.8867039956
   31      H       2.5833512069     2.0948234363    -1.6872697003
   32      H       2.4833077896     2.7987856682    -0.0673285517
   33      H       0.8110512679     0.4043090669    -1.0559119621
   34      H      -1.8858105444     1.1333194116     0.9484678003
   35      H      -1.3399149638     0.2244215229    -0.4546211364
   36      H      -2.1173506064     2.0935178583    -1.9396347641
   37      H      -2.7206172620     2.9642218100    -0.5408735186
   38      H      -3.7146032297     0.2245769953    -1.5571162653
   39      H      -5.9034780517    -0.2548839277    -1.4912988895
   40      H      -7.0461048947     1.0520719676    -1.2140937970
   41      H      -6.9524605740     0.5921524796     1.2584877980
   42      H      -5.8245913453    -0.7158014692     0.9640328490
   43      H      -8.7467714140    -0.5655422963    -0.0436250940
   44      H     -10.0009798544    -2.4660178309    -0.1788367776
   45      H      -9.5626565711    -3.6885331974     1.0278088260
   46      H       0.8810543526     3.6520915283     0.8565780535
   47      H      -0.6098179109     3.1860794957     1.6831566396
   48      H      -0.6846188076     4.0322754830     0.1416085636
   49      H      -4.5320160619     3.4370433553     0.2393387265
   50      H      -5.7373102827     2.5529210026     1.1718275934
   51      H      -6.1900104514     3.2917275783    -0.3577262230
   52      H      -5.8648567363    -2.7514445898     1.0756384485
   53      H      -6.5793508986    -4.0615159679     0.1307661498
   54      H      -7.0592976371    -3.8311851132     1.8049539817
   55      H      -9.0604500581    -3.8948442493    -0.6441885353
   56      O       5.2596406329    -2.0122814064    -1.7133304577
   57      O       6.1169931715    -2.1862836235     0.8409653585
   58      C       3.2914378935     1.6693674908     2.2067341631
   59      H       5.2592127631    -0.8316820690    -3.4294069070
   60      H       3.6130848741     2.7051026851     2.0351683329
   61      H       3.6905989294     1.3465792991     3.1687303209
   62      H       2.1977238842     1.6747829012     2.2595393221
 ----------------------------------------------------------------

   93   -1236.2503117941      7.97e-07  Convergence criterion met
 Total energy in the final basis set =    -1236.2503117941
   35   -1236.3397705484      7.44e-07  Convergence criterion met
 Total energy in the final basis set =    -1236.3397705484

                    Orbital Energies (a.u.)
 --------------------------------------------------------------

 Alpha MOs
 -- Occupied --
-19.1368 -19.1364 -19.0778 -19.0772 -10.2211 -10.2204 -10.2149 -10.2143
-10.2024 -10.2023 -10.1738 -10.1714 -10.1689 -10.1678 -10.1655 -10.1636
-10.1632 -10.1630 -10.1622 -10.1606 -10.1571 -10.1569 -10.1568 -10.1567
-10.1566 -10.1564 -10.1561 -10.1506  -1.0614  -1.0426  -0.9980  -0.9954
 -0.8316  -0.8244  -0.8137  -0.8027  -0.7758  -0.7593  -0.7392  -0.7235
 -0.7036  -0.6973  -0.6881  -0.6828  -0.6762  -0.6649  -0.6437  -0.6368
 -0.6128  -0.5889  -0.5628  -0.5594  -0.5206  -0.5180  -0.5131  -0.5056
 -0.4958  -0.4863  -0.4751  -0.4668  -0.4655  -0.4562  -0.4456  -0.4443
 -0.4403  -0.4370  -0.4360  -0.4284  -0.4273  -0.4162  -0.4142  -0.4109
 -0.4093  -0.4071  -0.4001  -0.3937  -0.3880  -0.3818  -0.3804  -0.3794
 -0.3706  -0.3694  -0.3685  -0.3657  -0.3649  -0.3621  -0.3577  -0.3558
 -0.3526  -0.3512  -0.3416  -0.3355  -0.3305  -0.3254  -0.3238  -0.3107
 -0.3001  -0.2828  -0.2668  -0.2465  -0.2432  -0.2411  -0.2317  -0.2248
 -0.2207  -0.1599

 Beta MOs
 -- Occupied --
-19.1366 -19.1362 -19.0712 -19.0708 -10.2192 -10.2185 -10.2140 -10.2134
-10.2023 -10.2023 -10.1738 -10.1714 -10.1689 -10.1667 -10.1645 -10.1636
-10.1632 -10.1630 -10.1622 -10.1607 -10.1571 -10.1569 -10.1568 -10.1567
-10.1566 -10.1564 -10.1561 -10.1507  -1.0603  -1.0414  -0.9869  -0.9843
 -0.8284  -0.8235  -0.8129  -0.8023  -0.7744  -0.7588  -0.7382  -0.7222
 -0.7013  -0.6958  -0.6881  -0.6828  -0.6759  -0.6631  -0.6377  -0.6359
 -0.6123  -0.5887  -0.5600  -0.5562  -0.5199  -0.5175  -0.5129  -0.5053
 -0.4938  -0.4846  -0.4749  -0.4656  -0.4632  -0.4557  -0.4452  -0.4428
 -0.4374  -0.4363  -0.4350  -0.4283  -0.4263  -0.4147  -0.4114  -0.4081
 -0.4068  -0.4044  -0.3997  -0.3912  -0.3865  -0.3805  -0.3798  -0.3714
 -0.3697  -0.3686  -0.3660  -0.3647  -0.3620  -0.3561  -0.3535  -0.3522
 -0.3482  -0.3451  -0.3399  -0.3334  -0.3303  -0.3249  -0.3236  -0.3105
 -0.2951  -0.2806  -0.2472  -0.2419  -0.2380  -0.2358  -0.2295  -0.2237
 -0.2150

          Ground-State Mulliken Net Atomic Charges

     Atom                 Charge (a.u.)    Spin (a.u.)
  --------------------------------------------------------
      1 C                    -0.709382       0.104697
      2 C                     0.666391       0.081734
      3 C                     0.910801       0.070931
      4 C                    -0.438777       0.108819
      5 C                     0.013922       0.071934
      6 C                    -0.439564       0.061853
      7 O                    -0.519435       0.236999
      8 O                    -0.486385       0.233976
      9 C                    -0.309965       0.003129
     10 C                    -0.301051       0.002844
     11 H                     0.169735       0.000539
     12 H                     0.174908      -0.000559
     13 H                     0.136028       0.000016
     14 H                     0.166273       0.000224
     15 H                     0.139048       0.000050
     16 C                     0.129597       0.012642
     17 C                    -0.723920       0.002403
     18 C                     0.881658       0.001665
     19 C                    -0.825589      -0.001156
     20 C                    -0.248341       0.000712
     21 C                    -0.196018       0.000057
     22 C                     0.612679      -0.000497
     23 C                    -0.734308       0.000273
     24 C                    -0.189072      -0.000000
     25 C                    -0.021123       0.000012
     26 C                     0.275613       0.000000
     27 C                    -0.641862      -0.000000
     28 C                    -0.819327      -0.002822
     29 C                    -0.752315      -0.000090
     30 C                    -0.711507       0.000003
     31 H                     0.219265       0.002147
     32 H                     0.180972      -0.000271
     33 H                     0.239228      -0.002805
     34 H                     0.186129       0.000277
     35 H                     0.125187       0.000016
     36 H                     0.173684       0.000005
     37 H                     0.149016       0.000369
     38 H                     0.193014       0.000025
     39 H                     0.182447       0.000000
     40 H                     0.138888      -0.000003
     41 H                     0.133848      -0.000001
     42 H                     0.164048      -0.000016
     43 H                     0.204850      -0.000000
     44 H                     0.157967       0.000000
     45 H                     0.155131       0.000000
     46 H                     0.111151       0.000094
     47 H                     0.173406       0.000097
     48 H                     0.177361      -0.000136
     49 H                     0.126688      -0.000035
     50 H                     0.176383      -0.000005
     51 H                     0.171061       0.000004
     52 H                     0.141700       0.000001
     53 H                     0.155984      -0.000000
     54 H                     0.153427      -0.000000
     55 H                     0.158420       0.000000
     56 O                    -0.232593       0.000662
     57 O                    -0.224597       0.000695
     58 C                    -0.614701       0.002523
     59 H                     0.172624      -0.000509
     60 H                     0.184089       0.004597
     61 H                     0.182081      -0.001911
     62 H                     0.175128       0.003793
  --------------------------------------------------------
  Sum of atomic charges =    -1.000000

                    Cartesian Multipole Moments
 -----------------------------------------------------------------
    Charge (ESU x 10^10)
                -4.8032
    Dipole Moment (Debye)
         X     -19.5163      Y       4.6965      Z      -0.4812
       Tot      20.0792
    Quadrupole Moments (Debye-Ang)
        XX    -249.7499     XY      21.8460     YY    -180.0569
        XZ     -18.8334     YZ       4.4162     ZZ    -208.3684

 Total job time:  3683.06s(wall), 27616.42s(cpu)
        *  Thank you very much for using Q-Chem.  Have a nice day.  *
