 Gaussian 16, Revision A.03,
 Gaussian 16:  ES64L-G16RevA.03 25-Dec-2016

 ----------------------------------------------------------------------
 #P UB3LYP/6-311++G(d,p) nosym opt freq SCRF=(PCM,Solvent=n,n-DiMethylF
 ormamide)
 ----------------------------------------------------------------------

 --------
 Oxidized
 --------
 Symbolic Z-matrix:
 Charge =  0 Multiplicity = 1

 SCF Done:  E(UB3LYP) =  -613.913651206     A.U. after   14 cycles
 SCF Done:  E(UB3LYP) =  -613.913723988     A.U. after   10 cycles
 SCF Done:  E(UB3LYP) =  -613.913740279     A.U. after   10 cycles
 SCF Done:  E(UB3LYP) =  -613.913739430     A.U. after    9 cycles
 SCF Done:  E(UB3LYP) =  -613.913739836     A.U. after   10 cycles
 SCF Done:  E(UB3LYP) =  -613.913741209     A.U. after   10 cycles
 SCF Done:  E(UB3LYP) =  -613.913742037     A.U. after    9 cycles
 Optimization completed.
    -- Stationary point found.
 Normal termination of Gaussian 16 at Sun Feb 11 00:18:13 2024.

 ----------------------------------------------------------------------
 #P Geom=AllCheck Guess=TCheck SCRF=Check GenChk UB3LYP/6-311++G(d,p) F
 req
 ----------------------------------------------------------------------

 Structure from the checkpoint file:  "245.chk"
 --------
 Oxidized
 --------
 Charge =  0 Multiplicity = 1

                          Input orientation:
 ---------------------------------------------------------------------
 Center     Atomic      Atomic             Coordinates (Angstroms)
 Number     Number       Type             X           Y           Z
 ---------------------------------------------------------------------
      1          6           0        5.737494   -5.360489    1.324148
      2          6           0        6.706531   -5.190622    0.327721
      3          6           0        6.617271   -4.184442   -0.617073
      4          6           0        4.650082   -4.459433    1.333813
      5          6           0        4.557511   -3.420632    0.357688
      6          6           0        5.552204   -3.275517   -0.634334
      7          6           0        3.583508   -4.589050    2.370815
      8          6           0        2.457115   -3.633216    2.352661
      9          6           0        2.370459   -2.662623    1.440440
     10          6           0        3.395333   -2.483592    0.391341
     11          8           0        3.597558   -5.453964    3.241771
     12          8           0        3.248025   -1.569583   -0.414726
     13          6           0        5.935993   -6.491266    2.303032
     14          1           0        7.551088   -5.870085    0.298833
     15          1           0        1.548258   -1.956205    1.419105
     16          6           0        5.556252   -2.218374   -1.710790
     17          1           0        7.393630   -4.094116   -1.368679
     18          1           0        6.855850   -7.026034    2.059980
     19          1           0        5.103037   -7.196509    2.280692
     20          1           0        6.001105   -6.129419    3.330941
     21          1           0        1.710725   -3.772603    3.126596
     22          1           0        5.560318   -1.211505   -1.288981
     23          1           0        4.667585   -2.280652   -2.341757
     24          1           0        6.441316   -2.340137   -2.337695
 ---------------------------------------------------------------------

 SCF Done:  E(UB3LYP) =  -613.913742037     A.U. after    1 cycles

 Alpha  occ. eigenvalues --  -19.13178 -19.13177 -10.28247 -10.28244 -10.21087
 Alpha  occ. eigenvalues --  -10.21066 -10.21034 -10.21013 -10.20867 -10.20782
 Alpha  occ. eigenvalues --  -10.19305 -10.19245 -10.16937 -10.16936  -1.06431
 Alpha  occ. eigenvalues --   -1.06240  -0.89083  -0.84169  -0.80869  -0.77533
 Alpha  occ. eigenvalues --   -0.73092  -0.70892  -0.66466  -0.64427  -0.63679
 Alpha  occ. eigenvalues --   -0.56090  -0.53511  -0.52951  -0.50499  -0.48895
 Alpha  occ. eigenvalues --   -0.46344  -0.45800  -0.45647  -0.43219  -0.43082
 Alpha  occ. eigenvalues --   -0.42779  -0.41692  -0.41469  -0.40377  -0.40052
 Alpha  occ. eigenvalues --   -0.38179  -0.37638  -0.36594  -0.36183  -0.30721
 Alpha  occ. eigenvalues --   -0.28045  -0.28013  -0.27238  -0.26177
 Alpha virt. eigenvalues --   -0.12524  -0.05063  -0.03616  -0.00635   0.00540
 Alpha virt. eigenvalues --    0.00598   0.01593   0.01833   0.02737   0.03372
 Alpha virt. eigenvalues --    0.03778   0.04080   0.04570   0.05468   0.05804

  Beta  occ. eigenvalues --  -19.13178 -19.13177 -10.28247 -10.28244 -10.21087
  Beta  occ. eigenvalues --  -10.21066 -10.21034 -10.21013 -10.20867 -10.20782
  Beta  occ. eigenvalues --  -10.19305 -10.19245 -10.16937 -10.16936  -1.06431
  Beta  occ. eigenvalues --   -1.06240  -0.89083  -0.84169  -0.80869  -0.77533
  Beta  occ. eigenvalues --   -0.73092  -0.70892  -0.66466  -0.64427  -0.63679
  Beta  occ. eigenvalues --   -0.56090  -0.53511  -0.52951  -0.50499  -0.48895
  Beta  occ. eigenvalues --   -0.46344  -0.45800  -0.45647  -0.43219  -0.43082
  Beta  occ. eigenvalues --   -0.42779  -0.41692  -0.41469  -0.40377  -0.40052
  Beta  occ. eigenvalues --   -0.38179  -0.37638  -0.36594  -0.36183  -0.30721
  Beta  occ. eigenvalues --   -0.28045  -0.28013  -0.27238  -0.26177
  Beta virt. eigenvalues --   -0.12524  -0.05063  -0.03616  -0.00635   0.00540
  Beta virt. eigenvalues --    0.00598   0.01593   0.01833   0.02737   0.03372
  Beta virt. eigenvalues --    0.03778   0.04080   0.04570   0.05468   0.05804

 Mulliken charges and spin densities:
               1          2
     1  C    1.191854  -0.000000
     2  C   -0.629777   0.000000
     3  C   -0.630070   0.000000
     4  C    0.255948  -0.000000
     5  C    0.255664   0.000000
     6  C    1.191595  -0.000000
     7  C   -0.950310   0.000000
     8  C   -0.186337   0.000000
     9  C   -0.186002  -0.000000
    10  C   -0.950589   0.000000
    11  O   -0.269840  -0.000000
    12  O   -0.269781  -0.000000
    13  C   -0.312080  -0.000000
    14  H    0.163560   0.000000
    15  H    0.230649  -0.000000
    16  C   -0.312672  -0.000000
    17  H    0.163839   0.000000
    18  H    0.156350  -0.000000
    19  H    0.175103  -0.000000
    20  H    0.175346   0.000000
    21  H    0.230573  -0.000000
    22  H    0.175256  -0.000000
    23  H    0.175179  -0.000000
    24  H    0.156542  -0.000000
 Sum of Mulliken charges =  -0.00000  -0.00000

 Dipole moment (field-independent basis, Debye):
    X=              2.2137    Y=             -0.8074    Z=             -1.0686  Tot=              2.5873
 Quadrupole moment (field-independent basis, Debye-Ang):
   XX=            -51.8761   YY=            -81.9639   ZZ=            -88.3245
   XY=            -15.6550   XZ=             -8.7460   YZ=             11.8903

  Exact polarizability: 204.701 -43.819 208.692 -39.828 -67.761 208.048
 Approx polarizability: 231.690 -49.103 255.755 -41.259 -91.838 252.800

                      1                      2                      3
                      A                      A                      A
 Frequencies --     30.6784                45.9580               115.7025
 Red. masses --      5.7308                 4.7380                 3.0792
 Frc consts  --      0.0032                 0.0059                 0.0243
 IR Inten    --     17.7216                 0.0057                 1.0640

                      4                      5                      6
                      A                      A                      A
 Frequencies --    202.7010               223.1056               240.7198
 Red. masses --      5.1032                 1.5376                 1.0594
 Frc consts  --      0.1235                 0.0451                 0.0362
 IR Inten    --      0.5511                 0.0103                 2.4207

                      7                      8                      9
                      A                      A                      A
 Frequencies --    254.1866               281.7917               319.1363
 Red. masses --      1.9394                 5.4425                 3.0569
 Frc consts  --      0.0738                 0.2546                 0.1834
 IR Inten    --      0.0087                 0.2486                 0.0009

                     10                     11                     12
                      A                      A                      A
 Frequencies --    342.8615               373.9679               389.0735
 Red. masses --      2.8580                 5.4545                 9.3957
 Frc consts  --      0.1979                 0.4494                 0.8380
 IR Inten    --      1.4897                 0.0893                22.3000

                     13                     14                     15
                      A                      A                      A
 Frequencies --    444.9810               465.3312               467.7287
 Red. masses --     11.0832                 3.9550                 5.2412
 Frc consts  --      1.2930                 0.5046                 0.6756
 IR Inten    --     18.7143                 0.8512                 7.1009

                     16                     17                     18
                      A                      A                      A
 Frequencies --    479.1801               521.5510               592.4930
 Red. masses --      4.3192                 2.8937                 6.4994
 Frc consts  --      0.5843                 0.4638                 1.3443
 IR Inten    --      0.0053                 9.2508                37.9426

                     19                     20                     21
                      A                      A                      A
 Frequencies --    632.6944               646.8092               702.6716
 Red. masses --      3.8019                 2.3072                 4.4170
 Frc consts  --      0.8967                 0.5687                 1.2849
 IR Inten    --      0.3656                10.1682                 0.0012

                     22                     23                     24
                      A                      A                      A
 Frequencies --    727.2567               767.4278               804.7538
 Red. masses --      5.2564                 6.3325                 8.5015
 Frc consts  --      1.6380                 2.1974                 3.2439
 IR Inten    --      1.8159                 3.7988                 0.0008

                     25                     26                     27
                      A                      A                      A
 Frequencies --    835.9836               874.2820               881.5546
 Red. masses --      1.2639                 2.0966                 5.5757
 Frc consts  --      0.5204                 0.9442                 2.5530
 IR Inten    --     53.8125                41.6133                 3.7204

                     28                     29                     30
                      A                      A                      A
 Frequencies --    918.4509               991.2601              1017.8295
 Red. masses --      4.4388                 1.3161                 1.6308
 Frc consts  --      2.2061                 0.7619                 0.9954
 IR Inten    --      1.7027                 0.0009                11.7213

                     31                     32                     33
                      A                      A                      A
 Frequencies --   1018.5838              1048.5502              1053.0680
 Red. masses --      1.2650                 1.4322                 1.5620
 Frc consts  --      0.7733                 0.9277                 1.0206
 IR Inten    --      0.0043                 3.8818                 0.0054

                     34                     35                     36
                      A                      A                      A
 Frequencies --   1057.5640              1108.8373              1116.9849
 Red. masses --      1.5693                 3.7060                 1.5652
 Frc consts  --      1.0341                 2.6847                 1.1506
 IR Inten    --     14.4391                46.0316               170.6584

                     37                     38                     39
                      A                      A                      A
 Frequencies --   1203.8871              1207.1994              1274.8673
 Red. masses --      1.2709                 4.3079                 1.9225
 Frc consts  --      1.0852                 3.6989                 1.8409
 IR Inten    --     17.6497                 7.9647                 3.5256

                     40                     41                     42
                      A                      A                      A
 Frequencies --   1277.4299              1289.6299              1347.9318
 Red. masses --      2.9536                 3.8428                 6.0685
 Frc consts  --      2.8397                 3.7656                 6.4964
 IR Inten    --    361.1283                 0.8445               135.1281

                     43                     44                     45
                      A                      A                      A
 Frequencies --   1396.1761              1396.4998              1410.5023
 Red. masses --      1.8181                 2.7615                 1.2303
 Frc consts  --      2.0881                 3.1730                 1.4422
 IR Inten    --      7.8023                54.0032                12.7256

                     46                     47                     48
                      A                      A                      A
 Frequencies --   1414.3401              1467.2241              1467.5290
 Red. masses --      1.3464                 1.0450                 1.0452
 Frc consts  --      1.5869                 1.3254                 1.3262
 IR Inten    --      3.6391                 5.0561                16.5871

                     49                     50                     51
                      A                      A                      A
 Frequencies --   1471.7480              1486.7804              1488.4741
 Red. masses --      1.2547                 1.2397                 2.1612
 Frc consts  --      1.6012                 1.6146                 2.8212
 IR Inten    --      0.0525                 9.4552                 6.5073

                     52                     53                     54
                      A                      A                      A
 Frequencies --   1580.5963              1616.8317              1665.7282
 Red. masses --      4.5988                 6.6504                10.5797
 Frc consts  --      6.7692                10.2429                17.2955
 IR Inten    --    178.1738                42.3048               118.9335

                     55                     56                     57
                      A                      A                      A
 Frequencies --   1681.8441              1704.1064              3040.8006
 Red. masses --     10.9199                 7.8157                 1.0353
 Frc consts  --     18.1986                13.3726                 5.6400
 IR Inten    --    993.5642                 3.4087                44.8864

                     58                     59                     60
                      A                      A                      A
 Frequencies --   3040.9929              3098.5369              3098.7758
 Red. masses --      1.0352                 1.0993                 1.0993
 Frc consts  --      5.6405                 6.2186                 6.2194
 IR Inten    --      9.3530                11.1859                18.0169

                     61                     62                     63
                      A                      A                      A
 Frequencies --   3110.6665              3110.7546              3167.7714
 Red. masses --      1.1037                 1.1037                 1.0877
 Frc consts  --      6.2925                 6.2927                 6.4306
 IR Inten    --     19.5543                62.5729                11.2437

                     64                     65                     66
                      A                      A                      A
 Frequencies --   3178.4355              3182.8634              3195.6432
 Red. masses --      1.0872                 1.0950                 1.0998
 Frc consts  --      6.4713                 6.5357                 6.6172
 IR Inten    --      4.4743                32.9059                 9.0570

 - Thermochemistry -
 -------------------
 Temperature   298.150 Kelvin.  Pressure   1.00000 Atm.
 Atom     1 has atomic number  6 and mass  12.00000

 Molecular mass:   186.06808 amu.
 Principal axes and moments of inertia in atomic units:
                           1         2         3
     Eigenvalues --  1923.689062306.476094208.22087
           X           -0.06496   0.85672   0.51167
           Y            0.72704  -0.31058   0.61233
           Z           -0.68351  -0.41179   0.60270
 This molecule is an asymmetric top.
 Rotational symmetry number  1.
 Warning -- assumption of classical behavior for rotation
           may cause significant error
 Rotational temperatures (Kelvin)      0.04502     0.03755     0.02058
 Rotational constants (GHZ):           0.93817     0.78247     0.42886
 Zero-point vibrational energy     490889.3 (Joules/Mol)
                                  117.32535 (Kcal/Mol)
 Warning -- explicit consideration of  18 degrees of freedom as
           vibrations may cause significant error
 Vibrational temperatures:     44.14    66.12   166.47   291.64   321.00
          (Kelvin)            346.34   365.72   405.44   459.17   493.30
                              538.06   559.79   640.23   669.51   672.96
                              689.43   750.40   852.47   910.31   930.61
                             1010.99  1046.36  1104.16  1157.86  1202.79
                             1257.90  1268.36  1321.45  1426.20  1464.43
                             1465.51  1508.63  1515.13  1521.60  1595.37
                             1607.09  1732.13  1736.89  1834.25  1837.94
                             1855.49  1939.37  2008.79  2009.25  2029.40
                             2034.92  2111.01  2111.45  2117.52  2139.15
                             2141.58  2274.13  2326.26  2396.61  2419.80
                             2451.83  4375.03  4375.31  4458.10  4458.45
                             4475.56  4475.68  4557.72  4573.06  4579.43
                             4597.82

 Zero-point correction=                           0.186970 (Hartree/Particle)
 Thermal correction to Energy=                    0.198822
 Thermal correction to Enthalpy=                  0.199766
 Thermal correction to Gibbs Free Energy=         0.148489
 Sum of electronic and zero-point Energies=           -613.726772
 Sum of electronic and thermal Energies=              -613.714920
 Sum of electronic and thermal Enthalpies=            -613.713976
 Sum of electronic and thermal Free Energies=         -613.765253

                     E (Thermal)             CV                S
                      KCal/Mol        Cal/Mol-Kelvin    Cal/Mol-Kelvin
 Total                  124.762             46.194            107.922
 Electronic               0.000              0.000              0.000
 Translational            0.889              2.981             41.569
 Rotational               0.889              2.981             31.302
 Vibrational            122.985             40.232             35.051
 Vibration     1          0.594              1.984              5.785
 Vibration     2          0.595              1.979              4.984
 Vibration     3          0.608              1.936              3.171
 Vibration     4          0.639              1.836              2.108
 Vibration     5          0.649              1.806              1.934
 Vibration     6          0.658              1.778              1.798
 Vibration     7          0.665              1.756              1.701
 Vibration     8          0.681              1.707              1.523
 Vibration     9          0.705              1.637              1.315
 Vibration    10          0.722              1.590              1.199
 Vibration    11          0.745              1.526              1.063
 Vibration    12          0.757              1.494              1.004
 Vibration    13          0.804              1.372              0.811
 Vibration    14          0.823              1.327              0.751
 Vibration    15          0.825              1.322              0.744
 Vibration    16          0.836              1.296              0.712
 Vibration    17          0.877              1.202              0.606
 Vibration    18          0.950              1.048              0.463

                           ! Non-Optimized Parameters !
 Normal termination of Gaussian 16 at Sun Feb 11 01:04:24 2024.
