 Gaussian 16, Revision A.03,
 Gaussian 16:  ES64L-G16RevA.03 25-Dec-2016

 ----------------------------------------------------------------
 #P UB3LYP/6-311++G(d,p) SCRF=(PCM,Solvent=n,n-DiMethylFormamide)
 ----------------------------------------------------------------

 ------------------
 Quinone PCM in DMF
 ------------------
 Symbolic Z-matrix:
 Charge =  0 Multiplicity = 1

                         Standard orientation:
 ---------------------------------------------------------------------
 Center     Atomic      Atomic             Coordinates (Angstroms)
 Number     Number       Type             X           Y           Z
 ---------------------------------------------------------------------
      1          6           0        1.488311    1.951638   -0.000685
      2          6           0        0.677606    0.686377   -0.000299
      3          6           0       -0.677516    0.686433    0.000019
      4          6           0       -1.488045    1.951783    0.000831
      5          6           0       -1.434210   -0.603758   -0.000120
      6          8           0       -2.655628   -0.628616   -0.000609
      7          6           0       -0.668102   -1.873511    0.000210
      8          6           0        0.667865   -1.873603    0.000034
      9          6           0        1.434102   -0.603805   -0.000019
     10          8           0        2.655564   -0.628894    0.000435
     11          1           0        2.552646    1.723057   -0.002631
     12          1           0        1.262262    2.561304    0.879995
     13          1           0        1.258868    2.563024   -0.879211
     14          1           0       -1.260944    2.562491   -0.878845
     15          1           0       -1.259580    2.561995    0.880425
     16          1           0       -2.552475    1.723467    0.001407
     17          1           0       -1.259717   -2.782235    0.000371
     18          1           0        1.259393   -2.782343    0.000053
 ---------------------------------------------------------------------

 SCF Done:  E(UB3LYP) =  -460.230465599     A.U. after   12 cycles

 The electronic state is 1-A.
 Alpha  occ. eigenvalues --  -19.14202 -19.14201 -10.28577 -10.28576 -10.21375
 Alpha  occ. eigenvalues --  -10.21303 -10.21151 -10.21067 -10.17461 -10.17461
 Alpha  occ. eigenvalues --   -1.07345  -1.07165  -0.86825  -0.81539  -0.75145
 Alpha  occ. eigenvalues --   -0.69612  -0.69250  -0.60611  -0.59111  -0.53399
 Alpha  occ. eigenvalues --   -0.50582  -0.47813  -0.46542  -0.45121  -0.43920
 Alpha  occ. eigenvalues --   -0.42793  -0.42502  -0.42204  -0.41322  -0.40202
 Alpha  occ. eigenvalues --   -0.38602  -0.37878  -0.31217  -0.29400  -0.27896
 Alpha  occ. eigenvalues --   -0.27876
 Alpha virt. eigenvalues --   -0.13410  -0.02810  -0.00746  -0.00028   0.00616
 Alpha virt. eigenvalues --    0.01373   0.03052   0.03136   0.03806   0.04144
 Alpha virt. eigenvalues --    0.06166   0.06360   0.06414   0.07177   0.08272

  Beta  occ. eigenvalues --  -19.14202 -19.14201 -10.28577 -10.28576 -10.21375
  Beta  occ. eigenvalues --  -10.21303 -10.21151 -10.21067 -10.17461 -10.17461
  Beta  occ. eigenvalues --   -1.07345  -1.07165  -0.86825  -0.81539  -0.75145
  Beta  occ. eigenvalues --   -0.69612  -0.69250  -0.60611  -0.59111  -0.53399
  Beta  occ. eigenvalues --   -0.50582  -0.47813  -0.46542  -0.45121  -0.43920
  Beta  occ. eigenvalues --   -0.42793  -0.42502  -0.42204  -0.41322  -0.40202
  Beta  occ. eigenvalues --   -0.38602  -0.37878  -0.31217  -0.29400  -0.27896
  Beta  occ. eigenvalues --   -0.27876
  Beta virt. eigenvalues --   -0.13410  -0.02810  -0.00746  -0.00028   0.00616
  Beta virt. eigenvalues --    0.01373   0.03052   0.03136   0.03806   0.04144
  Beta virt. eigenvalues --    0.06166   0.06360   0.06414   0.07177   0.08272

 Mulliken charges and spin densities:
               1          2
     1  C   -0.501189  -0.000000
     2  C    0.609003  -0.000000
     3  C    0.608779  -0.000000
     4  C   -0.501202   0.000000
     5  C   -0.634715   0.000000
     6  O   -0.297814   0.000000
     7  C    0.048644  -0.000000
     8  C    0.048593   0.000000
     9  C   -0.634785  -0.000000
    10  O   -0.297845   0.000000
    11  H    0.192640   0.000000
    12  H    0.173442   0.000000
    13  H    0.173170   0.000000
    14  H    0.173334   0.000000
    15  H    0.173286  -0.000000
    16  H    0.192648   0.000000
    17  H    0.237003   0.000000
    18  H    0.237008   0.000000
 Sum of Mulliken charges =  -0.00000  -0.00000

 Dipole moment (field-independent basis, Debye):
    X=             -0.0005    Y=              1.1947    Z=              0.0009  Tot=              1.1947
 Quadrupole moment (field-independent basis, Debye-Ang):
   XX=            -79.5218   YY=            -48.4992   ZZ=            -58.3160
   XY=              0.0013   XZ=             -0.0074   YZ=              0.0002

 Normal termination of Gaussian 16 at Sun Jan 21 06:56:22 2024.
