 Q-Chem 5.4, Q-Chem, Inc., Pleasanton, CA (2021)
 Q-Chem 5.4.0 for Intel X86 EM64T Linux

User input:
--------------------------------------------------------------
$molecule
0 1
C                  5.4244660000      4.5780260000     -2.1552950000
O                  4.7180020000      3.4936730000     -1.5626330000
C                  5.3658770000      2.3416130000     -1.2993110000
C                  6.7260720000      2.1677400000     -1.5835040000
C                  7.3607510000      0.9635230000     -1.2983680000
C                  6.6581170000     -0.0872770000     -0.7283940000
C                  5.3025590000      0.0643000000     -0.4389880000
C                  4.6118480000     -1.1238180000      0.1770750000
O                  5.2605940000     -2.1305200000      0.4068340000
C                  3.1644160000     -1.0056310000      0.4712850000
C                  2.4416830000     -2.0712510000      1.0240920000
O                  3.0808520000     -3.2307880000      1.3122850000
C                  1.0514100000     -1.9474890000      1.2904860000
C                  0.3253250000     -3.1312270000      1.8932450000
C                 -1.2116420000     -3.0213080000      1.8978290000
O                 -1.7443220000     -3.3932470000      0.6303880000
C                 -1.6202260000     -1.5881190000      2.2893970000
C                 -1.0700050000     -0.5660270000      1.2962500000
O                 -1.7662100000     -0.6942010000      0.0241850000
C                 -2.6873940000      0.3188240000     -0.2814010000
C                 -3.1258130000      0.1563720000     -1.7359460000
C                 -4.5771600000      0.6358220000     -1.9544820000
N                 -4.7710400000      0.9820990000     -3.3598050000
C                 -4.9094520000      1.7515740000     -0.9487500000
O                 -4.0063680000      2.8298410000     -1.2222210000
C                 -4.8080290000      1.1947550000      0.4911150000
C                 -4.6210840000      2.2666880000      1.5627890000
O                 -3.8008710000      0.1729790000      0.6097840000
C                  0.4065880000     -0.7498330000      1.0265750000
C                  1.1202970000      0.3379920000      0.4759100000
O                  0.4294860000      1.4664180000      0.2506460000
C                  2.4946690000      0.2192250000      0.1918100000
C                  3.1927880000      1.3840460000     -0.3865000000
O                  2.5629020000      2.4361970000     -0.5900360000
C                  4.6288490000      1.2715180000     -0.7133850000
C                 -1.7936810000     -3.9842920000      2.9624750000
C                 -3.0636060000     -4.7192710000      2.6160930000
O                 -1.2460920000     -4.1001380000      4.0384820000
H                  4.6891620000      5.3726640000     -2.2655810000
H                  5.8191550000      4.3083110000     -3.1402380000
H                  6.2400950000      4.9240590000     -1.5121210000
H                  7.2941070000      2.9723320000     -2.0281860000
H                  8.4149100000      0.8525850000     -1.5269820000
H                  7.1314380000     -1.0319910000     -0.4982940000
H                  2.4564550000     -3.8610620000      1.6874830000
H                  0.6565650000     -3.2796190000      2.9283940000
H                  0.5647990000     -4.0440640000      1.3335390000
H                 -1.8856840000     -2.5906940000      0.1038650000
H                 -1.2236860000     -1.3734040000      3.2863100000
H                 -2.7067860000     -1.4903550000      2.3231860000
H                 -1.2409860000      0.4424920000      1.6768260000
H                 -2.2179560000      1.2934250000     -0.1135150000
H                 -2.4479240000      0.7267410000     -2.3745430000
H                 -3.0426830000     -0.8928520000     -2.0252400000
H                 -5.2531620000     -0.1946000000     -1.7270970000
H                 -4.2610720000      1.8326090000     -3.5801460000
H                 -5.7506890000      1.1506360000     -3.5659430000
H                 -5.9417870000      2.0914280000     -1.1074160000
H                 -4.2873150000      3.6161760000     -0.7454610000
H                 -5.7487570000      0.6667880000      0.6824300000
H                 -3.6686310000      2.7885050000      1.4444300000
H                 -4.6362000000      1.8065510000      2.5524820000
H                 -5.4310290000      3.0038040000      1.5233700000
H                  1.0893360000      2.1154090000     -0.1264380000
H                 -2.8730750000     -5.4106720000      1.7910040000
H                 -3.4177330000     -5.2596110000      3.4929030000
H                 -3.8254230000     -4.0243830000      2.2537090000
$end
$rem
MAX_SCF_CYCLES=200
BASIS  =  6-311++G(d,p)
GUI  =  2
JOB_TYPE  =  SP
SCF_CONVERGENCE  = 6
METHOD  =  B3LYP
SOLVENT_METHOD = COSMO
$end
$solvent
dielectric 37.219
opticaldielectric 1.43
$end

--------------------------------------------------------------

             Standard Nuclear Orientation (Angstroms)
    I     Atom           X                Y                Z
 ----------------------------------------------------------------
    1      C       5.9919541751    -3.9971572523    -0.5449984075
    2      O       5.0284982072    -2.9512940783    -0.4810931849
    3      C       5.4168725094    -1.7087881786    -0.1322848916
    4      C       6.7492109477    -1.3993482223     0.1681300190
    5      C       7.1123973675    -0.1052023837     0.5252584660
    6      C       6.1617712365     0.9021144061     0.5913522066
    7      C       4.8292342702     0.6150120160     0.2977770678
    8      C       3.8592920263     1.7631048593     0.3943925633
    9      O       4.2792087960     2.8671453003     0.6974999675
   10      C       2.4305750594     1.4858731297     0.1160088673
   11      C       1.4600091848     2.4926412771     0.2049151857
   12      O       1.8352034657     3.7517898835     0.5364152741
   13      C       0.0917385284     2.2097397755    -0.0538201264
   14      C      -0.9100906713     3.3396600269     0.0528193223
   15      C      -2.3885180465     2.9059825487     0.0294291537
   16      O      -2.8037662661     2.4717694272     1.3207545084
   17      C      -2.5813428610     1.8051161425    -1.0313294617
   18      C      -1.7273827251     0.5783490580    -0.7158127815
   19      O      -2.2574542847    -0.0993871808     0.4584857636
   20      C      -2.9314768441    -1.3071872181     0.2237623625
   21      C      -3.1919521386    -1.9888332888     1.5660791225
   22      C      -4.4903577679    -2.8240809852     1.5427873297
   23      N      -4.4275912386    -3.8538255186     2.5762845519
   24      C      -4.7487433393    -3.3373426566     0.1156865246
   25      O      -3.6378023388    -4.1761295694    -0.2238034317
   26      C      -4.9441609582    -2.1343960111    -0.8373489229
   27      C      -4.7133824260    -2.4621260525    -2.3110545383
   28      O      -4.1627595793    -0.9925513240    -0.4397582309
   29      C      -0.2853719702     0.9293414304    -0.4255620688
   30      C       0.6801105049    -0.0970279698    -0.5274696448
   31      O       0.2405171848    -1.3104512373    -0.8958045897
   32      C       2.0361722404     0.1693595660    -0.2557141389
   33      C       3.0040517825    -0.9388279826    -0.3729749822
   34      O       2.6071622258    -2.0638308419    -0.7223347531
   35      C       4.4271100633    -0.6850646834    -0.0691709874
   36      C      -3.2724714663     4.1113996684    -0.3769876351
   37      C      -4.5955379512     4.2730957053     0.3274508607
   38      O      -2.9047316757     4.8637404328    -1.2543791631
   39      H       5.4334178130    -4.8833568397    -0.8399084764
   40      H       6.4606683391    -4.1700065263     0.4292030409
   41      H       6.7623445451    -3.7869468300    -1.2939794173
   42      H       7.5074752928    -2.1680172072     0.1238885977
   43      H       8.1503819114     0.1104803946     0.7530562357
   44      H       6.4218712533     1.9150531065     0.8666093435
   45      H       1.0627682661     4.3270996341     0.5523219146
   46      H      -0.7535139229     4.0507277664    -0.7676317531
   47      H      -0.7657016255     3.8825839757     0.9953029460
   48      H      -2.7260703066     1.5056835612     1.3648276281
   49      H      -2.2906091617     2.2069837676    -2.0066029416
   50      H      -3.6270226262     1.4968092299    -1.0843653562
   51      H      -1.7636719616    -0.1182687185    -1.5552113354
   52      H      -2.3212022546    -1.9374171223    -0.4310506240
   53      H      -2.3426944604    -2.6322705083     1.8056837167
   54      H      -3.2608908169    -1.2324958443     2.3500904401
   55      H      -5.3291990595    -2.1654298268     1.7893786502
   56      H      -3.7478634696    -4.5629803230     2.3173359067
   57      H      -5.3240311931    -4.3164172745     2.6903636203
   58      H      -5.6720695957    -3.9320573937     0.1024880833
   59      H      -3.8342041248    -4.6631717034    -1.0292662457
   60      H      -5.9816307205    -1.8067395631    -0.7084400535
   61      H      -3.6754243289    -2.7458830885    -2.4997168948
   62      H      -4.9442967131    -1.5892538364    -2.9244218614
   63      H      -5.3645525596    -3.2816380048    -2.6355269949
   64      H       1.0511214561    -1.8944827676    -0.9205345408
   65      H      -4.4232145001     4.4877855038     1.3854310974
   66      H      -5.1560126858     5.0816292113    -0.1397864081
   67      H      -5.1639043807     3.3399290095     0.3006897499
 ----------------------------------------------------------------

   11   -1853.8415050157      6.82e-07  Convergence criterion met
 Total energy in the final basis set =    -1853.8415050157
    7   -1853.8874154882      5.50e-07  Convergence criterion met
 Total energy in the final basis set =    -1853.8874154882

                    Orbital Energies (a.u.)
 --------------------------------------------------------------

 Alpha MOs
 -- Occupied --
-19.1720 -19.1711 -19.1557 -19.1523 -19.1340 -19.1322 -19.1313 -19.1305
-19.1295 -19.1218 -14.2965 -10.2870 -10.2797 -10.2777 -10.2751 -10.2660
-10.2651 -10.2625 -10.2538 -10.2477 -10.2275 -10.2252 -10.2237 -10.2169
-10.2090 -10.2084 -10.2076 -10.2070 -10.2066 -10.2057 -10.1973 -10.1941
-10.1923 -10.1861 -10.1860 -10.1721 -10.1685 -10.1613  -1.0937  -1.0906
 -1.0877  -1.0828  -1.0710  -1.0591  -1.0535  -1.0417  -1.0356  -1.0171
 -0.8934  -0.8922  -0.8814  -0.8440  -0.8027  -0.7953  -0.7824  -0.7759
 -0.7747  -0.7681  -0.7522  -0.7475  -0.7164  -0.7048  -0.6899  -0.6836
 -0.6659  -0.6492  -0.6357  -0.6209  -0.6188  -0.6136  -0.5926  -0.5901
 -0.5691  -0.5598  -0.5506  -0.5455  -0.5416  -0.5358  -0.5199  -0.5145
 -0.5122  -0.5065  -0.4997  -0.4939  -0.4920  -0.4866  -0.4836  -0.4801
 -0.4748  -0.4730  -0.4686  -0.4659  -0.4624  -0.4582  -0.4534  -0.4476
 -0.4456  -0.4430  -0.4369  -0.4280  -0.4271  -0.4253  -0.4190  -0.4142
 -0.4128  -0.4099  -0.4035  -0.3997  -0.3940  -0.3927  -0.3915  -0.3862
 -0.3844  -0.3841  -0.3820  -0.3807  -0.3779  -0.3729  -0.3697  -0.3658
 -0.3511  -0.3483  -0.3450  -0.3405  -0.3375  -0.3324  -0.3305  -0.3081
 -0.2999  -0.2879  -0.2828  -0.2824  -0.2757  -0.2676  -0.2664  -0.2636
 -0.2507  -0.2485  -0.2304

          Ground-State Mulliken Net Atomic Charges

     Atom                 Charge (a.u.)
  ----------------------------------------
      1 C                    -0.294286
      2 O                    -0.167128
      3 C                     0.149600
      4 C                    -0.114423
      5 C                    -0.448838
      6 C                    -0.023343
      7 C                     0.183768
      8 C                    -0.508128
      9 O                    -0.313063
     10 C                    -0.033643
     11 C                    -0.221378
     12 O                    -0.243878
     13 C                     0.176195
     14 C                    -0.909617
     15 C                     0.586373
     16 O                    -0.178284
     17 C                    -0.848009
     18 C                    -0.331695
     19 O                     0.166571
     20 C                    -0.605763
     21 C                    -0.558189
     22 C                    -0.470599
     23 N                    -0.373297
     24 C                    -0.192259
     25 O                    -0.263740
     26 C                     0.051876
     27 C                    -0.615610
     28 O                    -0.090592
     29 C                     0.544071
     30 C                    -0.318004
     31 O                    -0.378851
     32 C                     0.933149
     33 C                    -0.498692
     34 O                    -0.351232
     35 C                     0.190554
     36 C                     0.210036
     37 C                    -0.569310
     38 O                    -0.350592
     39 H                     0.215117
     40 H                     0.177232
     41 H                     0.178478
     42 H                     0.221317
     43 H                     0.241105
     44 H                     0.190059
     45 H                     0.371931
     46 H                     0.287196
     47 H                     0.246423
     48 H                     0.318881
     49 H                     0.231936
     50 H                     0.255907
     51 H                     0.287721
     52 H                     0.289939
     53 H                     0.220782
     54 H                     0.161716
     55 H                     0.235193
     56 H                     0.271573
     57 H                     0.279976
     58 H                     0.247338
     59 H                     0.310701
     60 H                     0.216868
     61 H                     0.184749
     62 H                     0.166321
     63 H                     0.179841
     64 H                     0.497341
     65 H                     0.205499
     66 H                     0.195656
     67 H                     0.193456
  ----------------------------------------
  Sum of atomic charges =    -0.000001

                    Cartesian Multipole Moments
 -----------------------------------------------------------------
    Charge (ESU x 10^10)
                -0.0000
    Dipole Moment (Debye)
         X      -2.1537      Y      -8.2202      Z      -2.9227
       Tot       8.9862
    Quadrupole Moments (Debye-Ang)
        XX    -146.9562     XY      -8.7645     YY    -219.1707
        XZ       7.5539     YZ      13.0442     ZZ    -232.9126

 Total job time:  769.87s(wall), 5327.06s(cpu)
        *  Thank you very much for using Q-Chem.  Have a nice day.  *
