 Q-Chem 5.4, Q-Chem, Inc., Pleasanton, CA (2021)
 Q-Chem 5.4.0 for Intel X86 EM64T Linux

User input:
--------------------------------------------------------------
$molecule
-2 1
C                 -2.4010860000      1.9051610000     -0.0312620000
C                 -1.2424200000      0.9349060000     -0.0133570000
C                 -1.4798560000     -0.4555920000      0.1425560000
C                 -2.8930220000     -0.9729020000      0.2824780000
C                 -0.4355010000     -1.4298260000      0.1778210000
O                 -0.6463740000     -2.7000890000      0.3225510000
C                  0.9087740000     -0.8880540000      0.0303050000
C                  2.0221950000     -1.7616350000      0.0321180000
C                  3.3211290000     -1.3013640000     -0.0940250000
C                  3.5595100000      0.0897280000     -0.2324550000
C                  2.4895060000      0.9671630000     -0.2462100000
C                  1.1501550000      0.5255050000     -0.1279990000
C                  0.0635260000      1.4953080000     -0.1601380000
O                  0.2858030000      2.7635570000     -0.3055150000
H                 -3.0813960000      1.7389180000     -0.8832480000
H                 -3.0235970000      1.8350410000      0.8750750000
H                 -1.9960500000      2.9175040000     -0.1057660000
H                 -2.8524730000     -2.0637650000      0.3356050000
H                 -3.5348550000     -0.6799250000     -0.5637550000
H                 -3.3945170000     -0.5986360000      1.1906460000
H                  1.8052810000     -2.8200740000      0.1407840000
H                  4.1582150000     -1.9990650000     -0.0846140000
H                  4.5796570000      0.4603770000     -0.3299690000
H                  2.6373950000      2.0377560000     -0.3516270000
$end
$rem
MAX_SCF_CYCLES=200
BASIS  =  6-311++G(d,p)
GUI  =  2
JOB_TYPE  =  SP
METHOD  =  B3LYP
SOLVENT_METHOD = PCM
$end
$pcm
theory = CPCM
$end
$solvent
dielectric 37.219
opticaldielectric 1.43
$end

--------------------------------------------------------------

             Standard Nuclear Orientation (Angstroms)
    I     Atom           X                Y                Z
 ----------------------------------------------------------------
    1      C      -2.4010860000     1.9051610000    -0.0312620000
    2      C      -1.2424200000     0.9349060000    -0.0133570000
    3      C      -1.4798560000    -0.4555920000     0.1425560000
    4      C      -2.8930220000    -0.9729020000     0.2824780000
    5      C      -0.4355010000    -1.4298260000     0.1778210000
    6      O      -0.6463740000    -2.7000890000     0.3225510000
    7      C       0.9087740000    -0.8880540000     0.0303050000
    8      C       2.0221950000    -1.7616350000     0.0321180000
    9      C       3.3211290000    -1.3013640000    -0.0940250000
   10      C       3.5595100000     0.0897280000    -0.2324550000
   11      C       2.4895060000     0.9671630000    -0.2462100000
   12      C       1.1501550000     0.5255050000    -0.1279990000
   13      C       0.0635260000     1.4953080000    -0.1601380000
   14      O       0.2858030000     2.7635570000    -0.3055150000
   15      H      -3.0813960000     1.7389180000    -0.8832480000
   16      H      -3.0235970000     1.8350410000     0.8750750000
   17      H      -1.9960500000     2.9175040000    -0.1057660000
   18      H      -2.8524730000    -2.0637650000     0.3356050000
   19      H      -3.5348550000    -0.6799250000    -0.5637550000
   20      H      -3.3945170000    -0.5986360000     1.1906460000
   21      H       1.8052810000    -2.8200740000     0.1407840000
   22      H       4.1582150000    -1.9990650000    -0.0846140000
   23      H       4.5796570000     0.4603770000    -0.3299690000
   24      H       2.6373950000     2.0377560000    -0.3516270000
 ----------------------------------------------------------------

    9    -614.1635060194      8.11e-06  Convergence criterion met
 Total energy in the final basis set =     -614.1635060194

                    Orbital Energies (a.u.)
 --------------------------------------------------------------

 Alpha MOs
 -- Occupied --
-19.0138 -19.0138 -10.1641 -10.1641 -10.1471 -10.1466 -10.1432 -10.1432
-10.1337 -10.1333 -10.1325 -10.1324 -10.1233 -10.1228  -0.9303  -0.9268
 -0.8219  -0.7751  -0.7229  -0.7194  -0.6942  -0.6412  -0.6195  -0.5661
 -0.5534  -0.5162  -0.4758  -0.4567  -0.4275  -0.4202  -0.4032  -0.3973
 -0.3778  -0.3692  -0.3674  -0.3603  -0.3582  -0.3488  -0.3483  -0.3241
 -0.3117  -0.3076  -0.3028  -0.2967  -0.2273  -0.2211  -0.1994  -0.1993
 -0.1898  -0.1084

          Ground-State Mulliken Net Atomic Charges

     Atom                 Charge (a.u.)
  ----------------------------------------
      1 C                    -0.506078
      2 C                     0.787339
      3 C                     0.786539
      4 C                    -0.508724
      5 C                    -1.128860
      6 O                    -0.731090
      7 C                     0.567885
      8 C                    -0.205494
      9 C                    -0.528747
     10 C                    -0.529238
     11 C                    -0.205107
     12 C                     0.566330
     13 C                    -1.127772
     14 O                    -0.731347
     15 H                     0.138087
     16 H                     0.132585
     17 H                     0.161426
     18 H                     0.161646
     19 H                     0.132378
     20 H                     0.138288
     21 H                     0.144114
     22 H                     0.170680
     23 H                     0.170678
     24 H                     0.144482
  ----------------------------------------
  Sum of atomic charges =    -2.000000

                    Cartesian Multipole Moments
 -----------------------------------------------------------------
    Charge (ESU x 10^10)
                -9.6064
    Dipole Moment (Debye)
         X      -0.8129      Y       0.1429      Z       0.0432
       Tot       0.8265
    Quadrupole Moments (Debye-Ang)
        XX    -103.0333     XY      -8.2074     YY    -150.0218
        XZ       1.4511     YZ       6.4122     ZZ     -94.8779

 Total job time:  38.22s(wall), 242.50s(cpu)
        *  Thank you very much for using Q-Chem.  Have a nice day.  *
