 Gaussian 16, Revision A.03,
 Gaussian 16:  ES64L-G16RevA.03 25-Dec-2016

 --------------------------------------
 #P UB3LYP/6-311++G(d,p) nosym opt freq
 --------------------------------------

 --------
 Oxidized
 --------
 Symbolic Z-matrix:
 Charge =  0 Multiplicity = 1

 SCF Done:  E(UB3LYP) =  -5757.71191693     A.U. after   15 cycles
 SCF Done:  E(UB3LYP) =  -5757.71409200     A.U. after   13 cycles
 SCF Done:  E(UB3LYP) =  -5757.71487654     A.U. after   13 cycles
 SCF Done:  E(UB3LYP) =  -5757.71686026     A.U. after   12 cycles
 SCF Done:  E(UB3LYP) =  -5757.71760529     A.U. after   13 cycles
 SCF Done:  E(UB3LYP) =  -5757.71764783     A.U. after   12 cycles
 SCF Done:  E(UB3LYP) =  -5757.71760749     A.U. after   12 cycles
 SCF Done:  E(UB3LYP) =  -5757.71765801     A.U. after   12 cycles
 SCF Done:  E(UB3LYP) =  -5757.71765916     A.U. after   10 cycles
 Optimization completed.
    -- Stationary point found.
 Normal termination of Gaussian 16 at Wed Dec 20 01:42:24 2023.

 ----------------------------------------------------------------------
 #P Geom=AllCheck Guess=TCheck SCRF=Check GenChk UB3LYP/6-311++G(d,p) F
 req
 ----------------------------------------------------------------------

 Structure from the checkpoint file:  "088.chk"
 --------
 Oxidized
 --------
 Charge =  0 Multiplicity = 1

                          Input orientation:
 ---------------------------------------------------------------------
 Center     Atomic      Atomic             Coordinates (Angstroms)
 Number     Number       Type             X           Y           Z
 ---------------------------------------------------------------------
      1          6           0        1.566954    1.216651   -0.663782
      2          6           0        0.286022    1.770627   -0.117088
      3          6           0       -0.689930    0.950915    0.296516
      4          6           0       -0.520501   -0.536359    0.220056
      5          6           0        0.764637   -1.120231   -0.329272
      6          6           0        1.761654   -0.282880   -0.751570
      7          8           0        2.442984    1.962159   -1.034898
      8          8           0       -1.404724   -1.269625    0.596090
      9          8           0        2.990573   -0.458105   -1.275703
     10          6           0        3.693553   -1.648672   -1.578943
     11         35           0        0.179325    3.653928   -0.066608
     12         35           0       -2.338828    1.538726    1.001060
     13          1           0        4.644923   -1.306233   -1.983332
     14          1           0        3.179079   -2.243711   -2.336746
     15          1           0        3.882499   -2.248717   -0.686084
     16          8           0        0.609864   -2.457353   -0.267540
     17          6           0        1.491355   -3.498362   -0.645521
     18          1           0        0.945433   -4.412333   -0.416316
     19          1           0        2.415372   -3.481239   -0.063359
     20          1           0        1.713524   -3.476096   -1.714702
 ---------------------------------------------------------------------

 SCF Done:  E(UB3LYP) =  -5757.71765916     A.U. after    1 cycles

 Alpha  occ. eigenvalues -- -482.85027-482.85027 -62.50293 -62.50292 -56.32350
 Alpha  occ. eigenvalues --  -56.32350 -56.31955 -56.31955 -56.31897 -56.31897
 Alpha  occ. eigenvalues --  -19.18690 -19.18688 -19.14187 -19.14186 -10.29919
 Alpha  occ. eigenvalues --  -10.29918 -10.28183 -10.28119 -10.27052 -10.26973
 Alpha  occ. eigenvalues --  -10.25466 -10.25464  -8.71263  -8.71262  -6.54470
 Alpha  occ. eigenvalues --   -6.54470  -6.53146  -6.53146  -6.52975  -6.52975
 Alpha  occ. eigenvalues --   -2.65558  -2.65557  -2.65207  -2.65206  -2.65076
 Alpha  occ. eigenvalues --   -2.65076  -2.64021  -2.64021  -2.64018  -2.64018
 Alpha  occ. eigenvalues --   -1.11628  -1.10508  -1.07463  -1.07155  -0.89734
 Alpha  occ. eigenvalues --   -0.84111  -0.81922  -0.77692  -0.77142  -0.72325
 Alpha  occ. eigenvalues --   -0.68460  -0.61861  -0.61413  -0.58588  -0.55829
 Alpha  occ. eigenvalues --   -0.52993  -0.51963  -0.49030  -0.48176  -0.47617
 Alpha  occ. eigenvalues --   -0.47492  -0.46759  -0.45489  -0.44052  -0.43011
 Alpha  occ. eigenvalues --   -0.41969  -0.40362  -0.36556  -0.36259  -0.35518
 Alpha  occ. eigenvalues --   -0.35405  -0.32151  -0.32006  -0.30096  -0.29903
 Alpha  occ. eigenvalues --   -0.28049  -0.27833  -0.24844
 Alpha virt. eigenvalues --   -0.13131  -0.04906  -0.02710  -0.02262  -0.00906
 Alpha virt. eigenvalues --   -0.00854  -0.00133   0.00507   0.01181   0.01416
 Alpha virt. eigenvalues --    0.02659   0.03977   0.04336   0.04406   0.04958

  Beta  occ. eigenvalues -- -482.85027-482.85027 -62.50293 -62.50292 -56.32350
  Beta  occ. eigenvalues --  -56.32350 -56.31955 -56.31955 -56.31897 -56.31897
  Beta  occ. eigenvalues --  -19.18690 -19.18688 -19.14187 -19.14186 -10.29919
  Beta  occ. eigenvalues --  -10.29918 -10.28183 -10.28119 -10.27052 -10.26973
  Beta  occ. eigenvalues --  -10.25466 -10.25464  -8.71263  -8.71262  -6.54470
  Beta  occ. eigenvalues --   -6.54470  -6.53146  -6.53146  -6.52975  -6.52975
  Beta  occ. eigenvalues --   -2.65558  -2.65557  -2.65207  -2.65206  -2.65076
  Beta  occ. eigenvalues --   -2.65076  -2.64021  -2.64021  -2.64018  -2.64018
  Beta  occ. eigenvalues --   -1.11628  -1.10508  -1.07463  -1.07155  -0.89734
  Beta  occ. eigenvalues --   -0.84111  -0.81922  -0.77692  -0.77142  -0.72325
  Beta  occ. eigenvalues --   -0.68460  -0.61861  -0.61413  -0.58588  -0.55829
  Beta  occ. eigenvalues --   -0.52993  -0.51963  -0.49030  -0.48176  -0.47617
  Beta  occ. eigenvalues --   -0.47492  -0.46759  -0.45489  -0.44052  -0.43011
  Beta  occ. eigenvalues --   -0.41969  -0.40362  -0.36556  -0.36259  -0.35518
  Beta  occ. eigenvalues --   -0.35405  -0.32151  -0.32006  -0.30096  -0.29903
  Beta  occ. eigenvalues --   -0.28049  -0.27833  -0.24844
  Beta virt. eigenvalues --   -0.13131  -0.04906  -0.02710  -0.02262  -0.00906
  Beta virt. eigenvalues --   -0.00854  -0.00133   0.00507   0.01181   0.01416
  Beta virt. eigenvalues --    0.02659   0.03977   0.04336   0.04406   0.04958

 Mulliken charges and spin densities:
               1          2
     1  C   -0.519239   0.000000
     2  C    0.476837   0.000000
     3  C    0.476678  -0.000000
     4  C   -0.518787   0.000000
     5  C    0.108751   0.000000
     6  C    0.107773  -0.000000
     7  O   -0.159022   0.000000
     8  O   -0.159001  -0.000000
     9  O   -0.185033   0.000000
    10  C   -0.193353  -0.000000
    11  Br  -0.014673  -0.000000
    12  Br  -0.014668  -0.000000
    13  H    0.206813   0.000000
    14  H    0.139681  -0.000000
    15  H    0.139639   0.000000
    16  O   -0.185217  -0.000000
    17  C   -0.193312  -0.000000
    18  H    0.206790   0.000000
    19  H    0.139769  -0.000000
    20  H    0.139576  -0.000000
 Sum of Mulliken charges =  -0.00000  -0.00000

 Dipole moment (field-independent basis, Debye):
    X=              2.7328    Y=             -3.8494    Z=             -1.1772  Tot=              4.8654
 Quadrupole moment (field-independent basis, Debye-Ang):
   XX=           -103.1855   YY=            -98.3844   ZZ=           -103.8202
   XY=            -19.8235   XZ=             -0.4130   YZ=              8.4636

  Exact polarizability: 174.383   2.947 188.990 -38.025  -0.968 101.344
 Approx polarizability: 302.498  68.811 294.090 -71.457 -28.888 164.770

 ******    2 imaginary frequencies (negative Signs) ******

                      1                      2                      3
                      A                      A                      A
 Frequencies --   -121.7406              -101.3453                23.2648
 Red. masses --      2.9640                 4.0952                 8.2195
 Frc consts  --      0.0259                 0.0248                 0.0026
 IR Inten    --      0.0003                 7.0804                 6.8670

                      4                      5                      6
                      A                      A                      A
 Frequencies --     41.3245                54.1087               128.4383
 Red. masses --     10.2631                10.6237                 4.3411
 Frc consts  --      0.0103                 0.0183                 0.0422
 IR Inten    --      0.0000                 0.0000                 5.1331

                      7                      8                      9
                      A                      A                      A
 Frequencies --    131.4163               181.0855               202.5618
 Red. masses --     53.1627                12.5242                 8.1505
 Frc consts  --      0.5409                 0.2420                 0.1970
 IR Inten    --      0.1770                 4.4054                 2.8376

                     10                     11                     12
                      A                      A                      A
 Frequencies --    224.5315               242.2517               254.5736
 Red. masses --      1.0509                 9.9842                12.9362
 Frc consts  --      0.0312                 0.3452                 0.4939
 IR Inten    --      0.0000                 0.3885                 0.7566

                     13                     14                     15
                      A                      A                      A
 Frequencies --    316.8561               333.6500               371.8842
 Red. masses --      3.8609                 6.2706                 9.4834
 Frc consts  --      0.2284                 0.4113                 0.7727
 IR Inten    --      0.5459                 2.4826                 0.0455

                     16                     17                     18
                      A                      A                      A
 Frequencies --    389.9585               405.6456               415.0494
 Red. masses --      1.0968                 9.3847                12.0626
 Frc consts  --      0.0983                 0.9098                 1.2243
 IR Inten    --      1.4744                18.3080                 0.0001

                     19                     20                     21
                      A                      A                      A
 Frequencies --    449.3732               500.5232               501.6901
 Red. masses --      6.3638                 7.5220                10.5593
 Frc consts  --      0.7571                 1.1103                 1.5659
 IR Inten    --      0.3921                 1.5911                21.1162

                     22                     23                     24
                      A                      A                      A
 Frequencies --    549.6340               725.2529               750.1812
 Red. masses --     11.9150                 9.8212                12.1545
 Frc consts  --      2.1208                 3.0436                 4.0301
 IR Inten    --      0.0001                73.5048                 7.2023

                     25                     26                     27
                      A                      A                      A
 Frequencies --    753.1147               753.6086               821.7327
 Red. masses --     12.1705                11.1104                11.2061
 Frc consts  --      4.0671                 3.7177                 4.4583
 IR Inten    --      0.0004                14.5105                25.4712

                     28                     29                     30
                      A                      A                      A
 Frequencies --    943.4789               998.5287              1062.3532
 Red. masses --      9.1840                 7.5028                 7.7782
 Frc consts  --      4.8166                 4.4075                 5.1721
 IR Inten    --     29.5428                12.1978                99.4530

                     31                     32                     33
                      A                      A                      A
 Frequencies --   1147.8290              1163.0796              1184.4564
 Red. masses --      1.2597                 1.2557                 3.5318
 Frc consts  --      0.9778                 1.0008                 2.9193
 IR Inten    --      0.0031                 1.9298               329.2603

                     34                     35                     36
                      A                      A                      A
 Frequencies --   1188.4413              1211.2944              1245.8500
 Red. masses --      1.9562                 2.0520                 4.0763
 Frc consts  --      1.6279                 1.7739                 3.7277
 IR Inten    --      6.6780               161.8475               157.5705

                     37                     38                     39
                      A                      A                      A
 Frequencies --   1256.4217              1265.1464              1476.4337
 Red. masses --      6.8394                 6.1131                 1.0848
 Frc consts  --      6.3612                 5.7649                 1.3932
 IR Inten    --     75.1694               293.1206                16.2108

                     40                     41                     42
                      A                      A                      A
 Frequencies --   1480.5421              1486.0247              1489.4330
 Red. masses --      1.1740                 1.0492                 1.1759
 Frc consts  --      1.5162                 1.3651                 1.5370
 IR Inten    --     53.5788                 0.0951                33.9831

                     43                     44                     45
                      A                      A                      A
 Frequencies --   1515.9761              1516.6905              1613.3480
 Red. masses --      1.0397                 1.0525                10.3831
 Frc consts  --      1.4078                 1.4264                15.9233
 IR Inten    --      6.8339                24.5349               440.0224

                     46                     47                     48
                      A                      A                      A
 Frequencies --   1650.5828              1737.7533              1745.7856
 Red. masses --     10.2735                13.2415                13.2267
 Frc consts  --     16.4908                23.5594                23.7511
 IR Inten    --     87.4220               440.4799                18.6833

                     49                     50                     51
                      A                      A                      A
 Frequencies --   3020.8901              3034.3781              3094.5506
 Red. masses --      1.0329                 1.0300                 1.1074
 Frc consts  --      5.5535                 5.5878                 6.2482
 IR Inten    --      0.3335               133.4781                 0.0005

                     52                     53                     54
                      A                      A                      A
 Frequencies --   3106.5552              3130.8442              3132.9005
 Red. masses --      1.1062                 1.1014                 1.1012
 Frc consts  --      6.2899                 6.3610                 6.3681
 IR Inten    --     62.8417                22.5027                 1.4724

 - Thermochemistry -
 -------------------
 Temperature   298.150 Kelvin.  Pressure   1.00000 Atm.
 Atom     1 has atomic number  6 and mass  12.00000

 Molecular mass:   323.86328 amu.
 Principal axes and moments of inertia in atomic units:
                           1         2         3
     Eigenvalues --  3309.773226224.420629511.01929
           X           -0.56192   0.72838   0.39207
           Y            0.79110   0.61168  -0.00254
           Z            0.24167  -0.30874   0.91993
 This molecule is an asymmetric top.
 Rotational symmetry number  1.
 Warning -- assumption of classical behavior for rotation
           may cause significant error
 Rotational temperatures (Kelvin)      0.02617     0.01392     0.00911
 Rotational constants (GHZ):           0.54528     0.28995     0.18975
    2 imaginary frequencies ignored.
 Zero-point vibrational energy     337474.2 (Joules/Mol)
                                   80.65827 (Kcal/Mol)
 Warning -- explicit consideration of  20 degrees of freedom as
           vibrations may cause significant error
 Vibrational temperatures:     33.47    59.46    77.85   184.79   189.08
          (Kelvin)            260.54   291.44   323.05   348.55   366.27
                              455.89   480.05   535.06   561.06   583.63
                              597.16   646.55   720.14   721.82   790.80
                             1043.48  1079.34  1083.56  1084.27  1182.29
                             1357.46  1436.66  1528.49  1651.47  1673.41
                             1704.17  1709.90  1742.78  1792.50  1807.71
                             1820.26  2124.26  2130.17  2138.06  2142.96
                             2181.15  2182.18  2321.25  2374.82  2500.24
                             2511.80  4346.39  4365.79  4452.37  4469.64
                             4504.59  4507.55

 Zero-point correction=                           0.128537 (Hartree/Particle)
 Thermal correction to Energy=                    0.141622
 Thermal correction to Enthalpy=                  0.142566
 Thermal correction to Gibbs Free Energy=         0.085625
 Sum of electronic and zero-point Energies=          -5757.589122
 Sum of electronic and thermal Energies=             -5757.576037
 Sum of electronic and thermal Enthalpies=           -5757.575093
 Sum of electronic and thermal Free Energies=        -5757.632034

                     E (Thermal)             CV                S
                      KCal/Mol        Cal/Mol-Kelvin    Cal/Mol-Kelvin
 Total                   88.869             45.909            119.843
 Electronic               0.000              0.000              0.000
 Translational            0.889              2.981             43.221
 Rotational               0.889              2.981             33.638
 Vibrational             87.092             39.948             42.985
 Vibration     1          0.593              1.985              6.334
 Vibration     2          0.594              1.981              5.195
 Vibration     3          0.596              1.976              4.661
 Vibration     4          0.611              1.925              2.969
 Vibration     5          0.612              1.922              2.925
 Vibration     6          0.630              1.865              2.317
 Vibration     7          0.639              1.836              2.110
 Vibration     8          0.649              1.804              1.922
 Vibration     9          0.658              1.776              1.786
 Vibration    10          0.665              1.755              1.699
 Vibration    11          0.704              1.641              1.326
 Vibration    12          0.715              1.608              1.242
 Vibration    13          0.744              1.530              1.072
 Vibration    14          0.758              1.492              1.000
 Vibration    15          0.771              1.458              0.942
 Vibration    16          0.778              1.438              0.909
 Vibration    17          0.808              1.362              0.798
 Vibration    18          0.856              1.249              0.657
 Vibration    19          0.857              1.246              0.654
 Vibration    20          0.905              1.140              0.545

                           ! Non-Optimized Parameters !
 Normal termination of Gaussian 16 at Wed Dec 20 01:58:40 2023.
