 Gaussian 16, Revision A.03,
 Gaussian 16:  ES64L-G16RevA.03 25-Dec-2016

 --------------------------------------
 #P UB3LYP/6-311++G(d,p) nosym opt freq
 --------------------------------------

 -------
 Reduced
 -------
 Symbolic Z-matrix:
 Charge = -2 Multiplicity = 1

 SCF Done:  E(UB3LYP) =  -8338.16603947     A.U. after   38 cycles
 SCF Done:  E(UB3LYP) =  -8338.16603954     A.U. after   18 cycles
 SCF Done:  E(UB3LYP) =  -8338.16603956     A.U. after   18 cycles
 Optimization completed.
    -- Stationary point found.
 Normal termination of Gaussian 16 at Sat Jan  6 06:09:59 2024.

 ----------------------------------------------------------------------
 #P Geom=AllCheck Guess=TCheck SCRF=Check GenChk UB3LYP/6-311++G(d,p) F
 req
 ----------------------------------------------------------------------

 Structure from the checkpoint file:  "027-an.chk"
 -------
 Reduced
 -------
 Charge = -2 Multiplicity = 1

                          Input orientation:
 ---------------------------------------------------------------------
 Center     Atomic      Atomic             Coordinates (Angstroms)
 Number     Number       Type             X           Y           Z
 ---------------------------------------------------------------------
      1          6           0        0.655201   -1.755026   -0.936984
      2          6           0       -0.477250   -1.146129   -0.299546
      3          6           0       -0.412998    0.055150    0.409468
      4          6           0        0.790832    0.833386    0.585303
      5          6           0        1.901733    0.192920   -0.078303
      6          6           0        1.886143   -0.991770   -0.798569
      7          8           0        0.619189   -2.858828   -1.578576
      8          8           0        0.856408    1.921703    1.229962
      9         35           0       -2.139487   -2.131635   -0.489709
     10         35           0       -1.978615    0.818390    1.262701
     11         35           0        3.592797    1.183720    0.118752
     12          6           0        3.090844   -1.589150   -1.482649
     13          6           0        3.826095   -2.641126   -0.628505
     14          6           0        5.008928   -3.285099   -1.361821
     15          6           0        5.763631   -4.336664   -0.537311
     16          6           0        6.946227   -4.975635   -1.276707
     17          6           0        7.703168   -6.021456   -0.450625
     18          1           0        3.795884   -0.802534   -1.766963
     19          1           0        2.730815   -2.087327   -2.389195
     20          1           0        3.102134   -3.412172   -0.345151
     21          1           0        4.181116   -2.168931    0.295619
     22          1           0        5.714644   -2.500613   -1.670980
     23          1           0        4.644380   -3.749867   -2.288177
     24          1           0        5.062656   -5.123740   -0.229550
     25          1           0        6.126797   -3.875489    0.390971
     26          1           0        7.643509   -4.187119   -1.588779
     27          1           0        6.582499   -5.439161   -2.202863
     28          1           0        8.113161   -5.581929    0.465831
     29          1           0        8.540972   -6.457989   -1.006813
     30          1           0        7.043818   -6.844380   -0.152354
 ---------------------------------------------------------------------

 SCF Done:  E(UB3LYP) =  -8338.16603956     A.U. after    3 cycles

 Alpha  occ. eigenvalues -- -482.59461-482.59392-482.59275 -62.24734 -62.24665
 Alpha  occ. eigenvalues --  -62.24553 -56.06749 -56.06678 -56.06551 -56.06409
 Alpha  occ. eigenvalues --  -56.06369 -56.06341 -56.06302 -56.06232 -56.06200
 Alpha  occ. eigenvalues --  -18.80800 -18.80719 -10.01317 -10.01285  -9.99845
 Alpha  occ. eigenvalues --   -9.98325  -9.98175  -9.97992  -9.97827  -9.97606
 Alpha  occ. eigenvalues --   -9.97599  -9.96007  -9.94733  -9.93965  -8.45691
 Alpha  occ. eigenvalues --   -8.45622  -8.45506  -6.28764  -6.28689  -6.28522
 Alpha  occ. eigenvalues --   -6.27624  -6.27558  -6.27503  -6.27454  -6.27439
 Alpha  occ. eigenvalues --   -6.27363  -2.39871  -2.39797  -2.39637  -2.39566
 Alpha  occ. eigenvalues --   -2.39494  -2.39474  -2.39403  -2.39348  -2.39279
 Alpha  occ. eigenvalues --   -2.38565  -2.38563  -2.38502  -2.38500  -2.38428
 Alpha  occ. eigenvalues --   -2.38427  -0.73512  -0.72960  -0.64040  -0.61290
 Alpha  occ. eigenvalues --   -0.59645  -0.57977  -0.55198  -0.54068  -0.52486
 Alpha  occ. eigenvalues --   -0.48452  -0.44602  -0.43446  -0.41437  -0.38619
 Alpha  occ. eigenvalues --   -0.32567  -0.31959  -0.31559  -0.27501  -0.27443
 Alpha  occ. eigenvalues --   -0.25637  -0.24653  -0.21877  -0.21331  -0.20943
 Alpha  occ. eigenvalues --   -0.19148  -0.18370  -0.17792  -0.17069  -0.16326
 Alpha  occ. eigenvalues --   -0.15860  -0.14884  -0.14335  -0.13891  -0.13472
 Alpha  occ. eigenvalues --   -0.12111  -0.11625  -0.11053  -0.09362  -0.06988
 Alpha  occ. eigenvalues --   -0.06902  -0.06266  -0.05535  -0.04148  -0.01264
 Alpha  occ. eigenvalues --    0.00296   0.01281   0.01670   0.09594
 Alpha virt. eigenvalues --    0.10587   0.13653   0.14337   0.14721   0.16770
 Alpha virt. eigenvalues --    0.17222   0.17617   0.17770   0.18893   0.19286
 Alpha virt. eigenvalues --    0.19692   0.20355   0.20926   0.21163   0.21535

  Beta  occ. eigenvalues -- -482.59461-482.59392-482.59275 -62.24734 -62.24665
  Beta  occ. eigenvalues --  -62.24553 -56.06749 -56.06678 -56.06551 -56.06409
  Beta  occ. eigenvalues --  -56.06369 -56.06341 -56.06302 -56.06232 -56.06200
  Beta  occ. eigenvalues --  -18.80800 -18.80719 -10.01317 -10.01285  -9.99845
  Beta  occ. eigenvalues --   -9.98325  -9.98175  -9.97992  -9.97827  -9.97606
  Beta  occ. eigenvalues --   -9.97599  -9.96007  -9.94733  -9.93965  -8.45691
  Beta  occ. eigenvalues --   -8.45622  -8.45506  -6.28764  -6.28689  -6.28522
  Beta  occ. eigenvalues --   -6.27624  -6.27558  -6.27503  -6.27454  -6.27439
  Beta  occ. eigenvalues --   -6.27363  -2.39871  -2.39797  -2.39637  -2.39566
  Beta  occ. eigenvalues --   -2.39494  -2.39474  -2.39403  -2.39348  -2.39279
  Beta  occ. eigenvalues --   -2.38565  -2.38563  -2.38502  -2.38500  -2.38428
  Beta  occ. eigenvalues --   -2.38427  -0.73512  -0.72960  -0.64040  -0.61290
  Beta  occ. eigenvalues --   -0.59645  -0.57977  -0.55198  -0.54068  -0.52486
  Beta  occ. eigenvalues --   -0.48452  -0.44602  -0.43446  -0.41437  -0.38619
  Beta  occ. eigenvalues --   -0.32567  -0.31959  -0.31559  -0.27501  -0.27443
  Beta  occ. eigenvalues --   -0.25637  -0.24653  -0.21877  -0.21331  -0.20943
  Beta  occ. eigenvalues --   -0.19148  -0.18370  -0.17792  -0.17069  -0.16326
  Beta  occ. eigenvalues --   -0.15860  -0.14884  -0.14335  -0.13891  -0.13472
  Beta  occ. eigenvalues --   -0.12111  -0.11625  -0.11053  -0.09362  -0.06988
  Beta  occ. eigenvalues --   -0.06902  -0.06266  -0.05535  -0.04148  -0.01264
  Beta  occ. eigenvalues --    0.00296   0.01281   0.01670   0.09594
  Beta virt. eigenvalues --    0.10587   0.13653   0.14337   0.14721   0.16770
  Beta virt. eigenvalues --    0.17222   0.17617   0.17770   0.18893   0.19286
  Beta virt. eigenvalues --    0.19692   0.20355   0.20926   0.21163   0.21535

 Mulliken charges and spin densities:
               1          2
     1  C   -1.220921  -0.000000
     2  C   -0.223038  -0.000000
     3  C    0.657380   0.000000
     4  C   -1.057402   0.000000
     5  C    0.668020  -0.000000
     6  C    2.220937   0.000000
     7  O   -0.419725  -0.000000
     8  O   -0.373999  -0.000000
     9  Br  -0.292244   0.000000
    10  Br  -0.286089  -0.000000
    11  Br  -0.267397   0.000000
    12  C   -1.049691  -0.000000
    13  C   -0.600071   0.000000
    14  C   -0.119902   0.000000
    15  C    0.213907  -0.000000
    16  C   -1.021540   0.000000
    17  C    0.584803  -0.000000
    18  H    0.155343   0.000000
    19  H    0.198029  -0.000000
    20  H    0.202463  -0.000000
    21  H    0.077673  -0.000000
    22  H    0.086020  -0.000000
    23  H    0.091481  -0.000000
    24  H    0.133184   0.000000
    25  H    0.126517  -0.000000
    26  H    0.090951   0.000000
    27  H    0.104341  -0.000000
    28  H   -0.029377   0.000000
    29  H   -0.635310   0.000000
    30  H   -0.014344   0.000000
 Sum of Mulliken charges =  -2.00000  -0.00000

 Dipole moment (field-independent basis, Debye):
    X=            -15.8087    Y=             11.5860    Z=              1.2591  Tot=             19.6402
 Quadrupole moment (field-independent basis, Debye-Ang):
   XX=           -297.4248   YY=           -257.8795   ZZ=           -169.7925
   XY=             75.5197   XZ=             12.6932   YZ=            -29.3591

  Exact polarizability:2045.357********1328.115-180.411 136.619 431.897
 Approx polarizability:****************6968.552-967.587 787.727 534.037

                      1                      2                      3
                      A                      A                      A
 Frequencies --     15.8173                25.3102                46.2995
 Red. masses --      6.4883                10.0181                 2.4197
 Frc consts  --      0.0010                 0.0038                 0.0031
 IR Inten    --      0.2793                 0.1737                 0.4803

                      4                      5                      6
                      A                      A                      A
 Frequencies --     49.6792                68.5258                72.1260
 Red. masses --      2.9664                 3.2700                13.5493
 Frc consts  --      0.0043                 0.0090                 0.0415
 IR Inten    --      0.4613                 3.9609                 6.6880

                      7                      8                      9
                      A                      A                      A
 Frequencies --     95.6796               122.9721               127.7391
 Red. masses --      5.3455                 6.1791                47.5111
 Frc consts  --      0.0288                 0.0551                 0.4568
 IR Inten    --      4.2489                 6.0896                 1.5420

                     10                     11                     12
                      A                      A                      A
 Frequencies --    130.4825               146.9859               148.7553
 Red. masses --      1.7558                 2.5618                 7.7101
 Frc consts  --      0.0176                 0.0326                 0.1005
 IR Inten    --      0.4607                 0.4595                 0.6226

                     13                     14                     15
                      A                      A                      A
 Frequencies --    179.9391               192.7144               225.1877
 Red. masses --     10.9491                36.4897                 4.8511
 Frc consts  --      0.2089                 0.7985                 0.1449
 IR Inten    --      3.6232                 0.9494                 2.3234

                     16                     17                     18
                      A                      A                      A
 Frequencies --    235.4955               256.3235               275.9023
 Red. masses --      6.0277                 1.1170                 8.6542
 Frc consts  --      0.1970                 0.0432                 0.3881
 IR Inten    --      0.4227                13.0628                 1.1474

                     19                     20                     21
                      A                      A                      A
 Frequencies --    281.9940               295.8009               314.2719
 Red. masses --     12.3975                12.5326                 5.9234
 Frc consts  --      0.5808                 0.6461                 0.3447
 IR Inten    --      2.2300                 0.6317                 4.1457

                     22                     23                     24
                      A                      A                      A
 Frequencies --    358.2351               408.7579               422.0275
 Red. masses --      3.1317                 4.5148                 3.4680
 Frc consts  --      0.2368                 0.4444                 0.3639
 IR Inten    --      2.7460                40.4200                21.2642

                     25                     26                     27
                      A                      A                      A
 Frequencies --    468.7757               504.3590               554.6829
 Red. masses --      9.4480                 6.2954                 8.5386
 Frc consts  --      1.2233                 0.9435                 1.5478
 IR Inten    --   1331.0682               132.1788                14.6147

                     28                     29                     30
                      A                      A                      A
 Frequencies --    655.8986               677.4094               703.4890
 Red. masses --      7.9480                 3.6845                11.8432
 Frc consts  --      2.0146                 0.9962                 3.4533
 IR Inten    --     23.2490                 0.9242                 2.5714

                     31                     32                     33
                      A                      A                      A
 Frequencies --    728.7351               738.9834               742.3801
 Red. masses --      1.0744                10.6259                 1.1894
 Frc consts  --      0.3362                 3.4189                 0.3862
 IR Inten    --      1.1850                 2.6414                 1.4079

                     34                     35                     36
                      A                      A                      A
 Frequencies --    790.4709               799.9254               856.1702
 Red. masses --      1.9738                 2.6897                 5.3851
 Frc consts  --      0.7266                 1.0140                 2.3258
 IR Inten    --     46.7013                71.2765               551.3404

                     37                     38                     39
                      A                      A                      A
 Frequencies --    885.5090               890.9967               987.0109
 Red. masses --      1.9527                 1.4264                 1.7663
 Frc consts  --      0.9022                 0.6672                 1.0138
 IR Inten    --     44.9209               141.0354               135.0105

                     40                     41                     42
                      A                      A                      A
 Frequencies --    992.4732              1017.9099              1030.6364
 Red. masses --      2.7529                 3.1812                 3.4506
 Frc consts  --      1.5976                 1.9421                 2.1595
 IR Inten    --     13.6177                 1.0431               360.3694

                     43                     44                     45
                      A                      A                      A
 Frequencies --   1043.6598              1059.6156              1093.3950
 Red. masses --      2.7590                 2.3027                 3.0837
 Frc consts  --      1.7706                 1.5233                 2.1721
 IR Inten    --     49.8859                 9.1871               278.9856

                     46                     47                     48
                      A                      A                      A
 Frequencies --   1098.2680              1126.0524              1186.8075
 Red. masses --      3.3149                 2.4875                 3.4374
 Frc consts  --      2.3558                 1.8583                 2.8526
 IR Inten    --     30.2749                11.4479                15.8291

                     49                     50                     51
                      A                      A                      A
 Frequencies --   1222.1013              1244.5750              1276.9039
 Red. masses --      1.6469                 1.2784                 1.4388
 Frc consts  --      1.4492                 1.1667                 1.3822
 IR Inten    --     15.1342                12.7228                 5.6918

                     52                     53                     54
                      A                      A                      A
 Frequencies --   1306.7627              1312.3278              1322.0963
 Red. masses --      1.3483                 1.3962                 1.0687
 Frc consts  --      1.3565                 1.4167                 1.1006
 IR Inten    --      4.3664                11.9298                12.3420

                     55                     56                     57
                      A                      A                      A
 Frequencies --   1328.2547              1350.8636              1358.5319
 Red. masses --      1.1752                 1.8180                 1.7908
 Frc consts  --      1.2216                 1.9547                 1.9473
 IR Inten    --     22.0999                 6.8481                16.0566

                     58                     59                     60
                      A                      A                      A
 Frequencies --   1374.1540              1383.1584              1387.5030
 Red. masses --      1.4917                 1.9155                 4.5030
 Frc consts  --      1.6596                 2.1591                 5.1077
 IR Inten    --     18.2561                51.5616                19.7903

                     61                     62                     63
                      A                      A                      A
 Frequencies --   1399.8608              1433.2137              1460.8253
 Red. masses --      1.2581                 3.5638                 1.5759
 Frc consts  --      1.4525                 4.3130                 1.9815
 IR Inten    --    393.2518              1705.0302               407.1404

                     64                     65                     66
                      A                      A                      A
 Frequencies --   1480.3398              1482.8371              1485.5670
 Red. masses --      1.2830                 1.1317                 2.2940
 Frc consts  --      1.6565                 1.4661                 2.9828
 IR Inten    --    118.2896                42.3925               414.7215

                     67                     68                     69
                      A                      A                      A
 Frequencies --   1486.3241              1490.1937              1499.8819
 Red. masses --      1.0792                 1.0795                 1.0850
 Frc consts  --      1.4047                 1.4124                 1.4382
 IR Inten    --    208.2255                46.3844                83.6246

                     70                     71                     72
                      A                      A                      A
 Frequencies --   1509.4761              1559.3085              2975.8403
 Red. masses --      1.0958                 9.9534                 1.0592
 Frc consts  --      1.4711                14.2588                 5.5263
 IR Inten    --     43.8458              5670.3039                16.2753

                     73                     74                     75
                      A                      A                      A
 Frequencies --   2985.8982              2993.2685              2994.5744
 Red. masses --      1.0538                 1.0405                 1.0704
 Frc consts  --      5.5355                 5.4929                 5.6556
 IR Inten    --      1.0695                 3.4432                41.0606

                     76                     77                     78
                      A                      A                      A
 Frequencies --   2997.7882              3005.6639              3008.9907
 Red. masses --      1.0834                 1.0732                 1.0879
 Frc consts  --      5.7364                 5.7123                 5.8032
 IR Inten    --     12.8842                36.0660                21.4126

                     79                     80                     81
                      A                      A                      A
 Frequencies --   3019.6741              3032.3232              3048.2390
 Red. masses --      1.0615                 1.1030                 1.0998
 Frc consts  --      5.7028                 5.9753                 6.0208
 IR Inten    --    120.3063                33.6438                60.4870

                     82                     83                     84
                      A                      A                      A
 Frequencies --   3048.4633              3059.0324              3069.8719
 Red. masses --      1.1001                 1.1023                 1.1050
 Frc consts  --      6.0237                 6.0776                 6.1354
 IR Inten    --      2.4099                48.4225                47.1142

 - Thermochemistry -
 -------------------
 Temperature   298.150 Kelvin.  Pressure   1.00000 Atm.
 Atom     1 has atomic number  6 and mass  12.00000

 Molecular mass:   425.84656 amu.
 Principal axes and moments of inertia in atomic units:
                           1         2         3
     Eigenvalues --  6182.59169********************
           X            0.91036   0.41124   0.04603
           Y           -0.38169   0.87746  -0.29047
           Z           -0.15985   0.24686   0.95578
 This molecule is an asymmetric top.
 Rotational symmetry number  1.
 Warning -- assumption of classical behavior for rotation
           may cause significant error
 Rotational temperatures (Kelvin)      0.01401     0.00526     0.00400
 Rotational constants (GHZ):           0.29191     0.10968     0.08338
 Zero-point vibrational energy     577349.7 (Joules/Mol)
                                  137.98988 (Kcal/Mol)
 Warning -- explicit consideration of  27 degrees of freedom as
           vibrations may cause significant error
 Vibrational temperatures:     22.76    36.42    66.61    71.48    98.59
          (Kelvin)            103.77   137.66   176.93   183.79   187.74
                              211.48   214.03   258.89   277.27   323.99
                              338.83   368.79   396.96   405.73   425.59
                              452.17   515.42   588.11   607.20   674.46
                              725.66   798.07   943.69   974.64  1012.16
                             1048.49  1063.23  1068.12  1137.31  1150.91
                             1231.84  1274.05  1281.95  1420.09  1427.95
                             1464.55  1482.86  1501.59  1524.55  1573.15
                             1580.16  1620.14  1707.55  1758.33  1790.67
                             1837.18  1880.14  1888.15  1902.20  1911.06
                             1943.59  1954.62  1977.10  1990.06  1996.31
                             2014.09  2062.07  2101.80  2129.88  2133.47
                             2137.40  2138.49  2144.06  2158.00  2171.80
                             2243.50  4281.57  4296.04  4306.65  4308.52
                             4313.15  4324.48  4329.27  4344.64  4362.84
                             4385.74  4386.06  4401.27  4416.86

 Zero-point correction=                           0.219901 (Hartree/Particle)
 Thermal correction to Energy=                    0.239353
 Thermal correction to Enthalpy=                  0.240297
 Thermal correction to Gibbs Free Energy=         0.167167
 Sum of electronic and zero-point Energies=          -8337.946139
 Sum of electronic and thermal Energies=             -8337.926687
 Sum of electronic and thermal Enthalpies=           -8337.925743
 Sum of electronic and thermal Free Energies=        -8337.998872

                     E (Thermal)             CV                S
                      KCal/Mol        Cal/Mol-Kelvin    Cal/Mol-Kelvin
 Total                  150.196             66.836            153.914
 Electronic               0.000              0.000              0.000
 Translational            0.889              2.981             44.037
 Rotational               0.889              2.981             36.041
 Vibrational            148.419             60.874             73.836
 Vibration     1          0.593              1.986              7.100
 Vibration     2          0.593              1.985              6.167
 Vibration     3          0.595              1.979              4.969
 Vibration     4          0.595              1.978              4.830
 Vibration     5          0.598              1.969              4.195
 Vibration     6          0.598              1.967              4.094
 Vibration     7          0.603              1.952              3.540
 Vibration     8          0.610              1.930              3.053
 Vibration     9          0.611              1.925              2.980
 Vibration    10          0.612              1.923              2.939
 Vibration    11          0.617              1.906              2.711
 Vibration    12          0.618              1.904              2.688
 Vibration    13          0.629              1.867              2.329
 Vibration    14          0.635              1.850              2.202
 Vibration    15          0.650              1.803              1.917
 Vibration    16          0.655              1.786              1.837
 Vibration    17          0.666              1.752              1.687
 Vibration    18          0.678              1.718              1.559
 Vibration    19          0.681              1.707              1.522
 Vibration    20          0.690              1.682              1.441
 Vibration    21          0.702              1.646              1.340
 Vibration    22          0.733              1.558              1.130
 Vibration    23          0.773              1.451              0.931
 Vibration    24          0.784              1.422              0.885
 Vibration    25          0.826              1.319              0.741
 Vibration    26          0.860              1.240              0.647
 Vibration    27          0.910              1.129              0.535

 Optimization completed.
    -- Stationary point found.
 Normal termination of Gaussian 16 at Sat Jan  6 06:59:55 2024.
