 Q-Chem 5.4, Q-Chem, Inc., Pleasanton, CA (2021)
 Q-Chem 5.4.0 for Intel X86 EM64T Linux

User input:
--------------------------------------------------------------
$molecule
-2 1
C                  0.6552010000     -1.7550260000     -0.9369840000
C                 -0.4772500000     -1.1461290000     -0.2995460000
C                 -0.4129980000      0.0551500000      0.4094680000
C                  0.7908320000      0.8333860000      0.5853030000
C                  1.9017330000      0.1929200000     -0.0783030000
C                  1.8861430000     -0.9917700000     -0.7985690000
O                  0.6191890000     -2.8588280000     -1.5785760000
O                  0.8564080000      1.9217030000      1.2299620000
Br                -2.1394870000     -2.1316350000     -0.4897090000
Br                -1.9786150000      0.8183900000      1.2627010000
Br                 3.5927970000      1.1837200000      0.1187520000
C                  3.0908440000     -1.5891500000     -1.4826490000
C                  3.8260950000     -2.6411260000     -0.6285050000
C                  5.0089280000     -3.2850990000     -1.3618210000
C                  5.7636310000     -4.3366640000     -0.5373110000
C                  6.9462270000     -4.9756350000     -1.2767070000
C                  7.7031680000     -6.0214560000     -0.4506250000
H                  3.7958840000     -0.8025340000     -1.7669630000
H                  2.7308150000     -2.0873270000     -2.3891950000
H                  3.1021340000     -3.4121720000     -0.3451510000
H                  4.1811160000     -2.1689310000      0.2956190000
H                  5.7146440000     -2.5006130000     -1.6709800000
H                  4.6443800000     -3.7498670000     -2.2881770000
H                  5.0626560000     -5.1237400000     -0.2295500000
H                  6.1267970000     -3.8754890000      0.3909710000
H                  7.6435090000     -4.1871190000     -1.5887790000
H                  6.5824990000     -5.4391610000     -2.2028630000
H                  8.1131610000     -5.5819290000      0.4658310000
H                  8.5409720000     -6.4579890000     -1.0068130000
H                  7.0438180000     -6.8443800000     -0.1523540000
$end

$rem
BASIS  =  6-311++G(d,p)
GUI  =  2
JOB_TYPE  =  SP
METHOD  =  B3LYP
SCF_CONVERGENCE  = 8
SOLVENT_METHOD = sm12
$end

$smx
solvent dimethylformamide
charges CM5
$end

--------------------------------------------------------------

             Standard Nuclear Orientation (Angstroms)
    I     Atom           X                Y                Z
 ----------------------------------------------------------------
    1      C       0.6552010000    -1.7550260000    -0.9369840000
    2      C      -0.4772500000    -1.1461290000    -0.2995460000
    3      C      -0.4129980000     0.0551500000     0.4094680000
    4      C       0.7908320000     0.8333860000     0.5853030000
    5      C       1.9017330000     0.1929200000    -0.0783030000
    6      C       1.8861430000    -0.9917700000    -0.7985690000
    7      O       0.6191890000    -2.8588280000    -1.5785760000
    8      O       0.8564080000     1.9217030000     1.2299620000
    9      Br     -2.1394870000    -2.1316350000    -0.4897090000
   10      Br     -1.9786150000     0.8183900000     1.2627010000
   11      Br      3.5927970000     1.1837200000     0.1187520000
   12      C       3.0908440000    -1.5891500000    -1.4826490000
   13      C       3.8260950000    -2.6411260000    -0.6285050000
   14      C       5.0089280000    -3.2850990000    -1.3618210000
   15      C       5.7636310000    -4.3366640000    -0.5373110000
   16      C       6.9462270000    -4.9756350000    -1.2767070000
   17      C       7.7031680000    -6.0214560000    -0.4506250000
   18      H       3.7958840000    -0.8025340000    -1.7669630000
   19      H       2.7308150000    -2.0873270000    -2.3891950000
   20      H       3.1021340000    -3.4121720000    -0.3451510000
   21      H       4.1811160000    -2.1689310000     0.2956190000
   22      H       5.7146440000    -2.5006130000    -1.6709800000
   23      H       4.6443800000    -3.7498670000    -2.2881770000
   24      H       5.0626560000    -5.1237400000    -0.2295500000
   25      H       6.1267970000    -3.8754890000     0.3909710000
   26      H       7.6435090000    -4.1871190000    -1.5887790000
   27      H       6.5824990000    -5.4391610000    -2.2028630000
   28      H       8.1131610000    -5.5819290000     0.4658310000
   29      H       8.5409720000    -6.4579890000    -1.0068130000
   30      H       7.0438180000    -6.8443800000    -0.1523540000
 ----------------------------------------------------------------

   18   -8338.1492351349      4.55e-09  Convergence criterion met
 Total energy in the final basis set =    -8338.4038175246

                    Orbital Energies (a.u.)
 --------------------------------------------------------------

 Alpha MOs
 -- Occupied --
********-482.7968-482.7967 -62.4494 -62.4492 -62.4491 -56.2697 -56.2695
-56.2693 -56.2663 -56.2661 -56.2661 -56.2659 -56.2658 -56.2657 -19.0111
-19.0100 -10.1859 -10.1819 -10.1808 -10.1801 -10.1797 -10.1686 -10.1669
-10.1658 -10.1613 -10.1599 -10.1553 -10.1443  -8.6578  -8.6576  -8.6575
 -6.4886  -6.4883  -6.4877  -6.4770  -6.4768  -6.4768  -6.4760  -6.4759
 -6.4757  -2.5997  -2.5994  -2.5988  -2.5963  -2.5960  -2.5956  -2.5955
 -2.5953  -2.5951  -2.5865  -2.5864  -2.5863  -2.5863  -2.5861  -2.5861
 -0.9401  -0.9351  -0.8184  -0.8100  -0.7938  -0.7670  -0.7559  -0.7368
 -0.7162  -0.6710  -0.6433  -0.6249  -0.5865  -0.5796  -0.5307  -0.5252
 -0.4850  -0.4684  -0.4395  -0.4343  -0.4256  -0.4077  -0.3971  -0.3907
 -0.3828  -0.3699  -0.3678  -0.3571  -0.3541  -0.3464  -0.3380  -0.3351
 -0.3301  -0.3275  -0.3232  -0.3185  -0.3141  -0.2956  -0.2709  -0.2698
 -0.2635  -0.2563  -0.2416  -0.2193  -0.2023  -0.1935  -0.1887  -0.1150

          Ground-State Mulliken Net Atomic Charges

     Atom                 Charge (a.u.)
  ----------------------------------------
      1 C                    -2.257738
      2 C                    -0.358024
      3 C                     0.961316
      4 C                    -2.196606
      5 C                     0.094199
      6 C                    -0.572262
      7 O                    -0.336415
      8 O                    -0.281139
      9 Br                    0.101668
     10 Br                    0.109949
     11 Br                    0.245872
     12 C                     0.156549
     13 C                    -2.508364
     14 C                     0.316454
     15 C                     1.589195
     16 C                     1.042472
     17 C                     0.520953
     18 H                     0.077366
     19 H                    -0.039216
     20 H                     0.005343
     21 H                    -0.059965
     22 H                     0.203740
     23 H                     0.177512
     24 H                     0.100551
     25 H                     0.124845
     26 H                     0.101063
     27 H                     0.092784
     28 H                     0.134154
     29 H                     0.321546
     30 H                     0.132196
  ----------------------------------------
  Sum of atomic charges =    -2.000000

                    Cartesian Multipole Moments
 -----------------------------------------------------------------
    Charge (ESU x 10^10)
                -9.6064
    Dipole Moment (Debye)
         X      -5.5598      Y       3.8402      Z       0.7003
       Tot       6.7933
    Quadrupole Moments (Debye-Ang)
        XX    -191.1117     XY      -2.7401     YY    -199.0187
        XZ       3.2096     YZ     -24.0385     ZZ    -167.8287

 Total job time:  905.48s(wall), 7002.97s(cpu)
        *  Thank you very much for using Q-Chem.  Have a nice day.  *
