 Gaussian 16, Revision A.03,
 Gaussian 16:  ES64L-G16RevA.03 25-Dec-2016

 --------------------------------------
 #P UB3LYP/6-311++G(d,p) nosym opt freq
 --------------------------------------

 -------
 Radical
 -------
 Symbolic Z-matrix:
 Charge = -1 Multiplicity = 2

 SCF Done:  E(UB3LYP) =  -842.698483049     A.U. after   21 cycles
 SCF Done:  E(UB3LYP) =  -842.698483382     A.U. after   11 cycles
 SCF Done:  E(UB3LYP) =  -842.698483444     A.U. after   10 cycles
 Optimization completed.
    -- Stationary point found.
 Normal termination of Gaussian 16 at Wed Dec 27 20:09:07 2023.

 ----------------------------------------------------------------------
 #P Geom=AllCheck Guess=TCheck SCRF=Check GenChk UB3LYP/6-311++G(d,p) F
 req
 ----------------------------------------------------------------------

 Structure from the checkpoint file:  "133-rad.chk"
 -------
 Radical
 -------
 Charge = -1 Multiplicity = 2

                          Input orientation:
 ---------------------------------------------------------------------
 Center     Atomic      Atomic             Coordinates (Angstroms)
 Number     Number       Type             X           Y           Z
 ---------------------------------------------------------------------
      1          8           0        1.533560   -3.072983    0.082676
      2          6           0        1.298581   -1.840353    0.044228
      3          6           0        2.384357   -0.859303   -0.006387
      4          6           0        3.724457   -1.297325   -0.011903
      5          6           0        4.766566   -0.390981   -0.059315
      6          6           0        4.490675    0.990455   -0.102885
      7          6           0        3.181652    1.435124   -0.098059
      8          6           0        2.103704    0.526484   -0.049930
      9          6           0        0.726160    1.059378   -0.046949
     10          8           0        0.561241    2.305391   -0.088141
     11          6           0       -0.364723    0.085842    0.002999
     12          6           0       -1.766120    0.487936    0.010298
     13          6           0       -2.198247    1.841694   -0.029510
     14          6           0       -3.541153    2.177097   -0.020737
     15          6           0       -4.533356    1.184565    0.028121
     16          6           0       -4.151496   -0.141641    0.067716
     17          6           0       -2.788921   -0.516715    0.060079
     18          6           0       -2.421988   -1.897578    0.101876
     19          6           0       -1.111726   -2.266967    0.094916
     20          6           0       -0.062307   -1.307368    0.046270
     21          1           0        3.901021   -2.366100    0.022349
     22          1           0        5.794850   -0.740260   -0.063085
     23          1           0        5.307368    1.705431   -0.140256
     24          1           0        2.941757    2.491076   -0.130931
     25          1           0       -1.439574    2.607879   -0.067165
     26          1           0       -3.826030    3.224534   -0.052265
     27          1           0       -5.584749    1.455410    0.034666
     28          1           0       -4.900720   -0.927751    0.105836
     29          1           0       -3.210209   -2.644553    0.139255
     30          1           0       -0.814628   -3.308420    0.126237
 ---------------------------------------------------------------------

 SCF Done:  E(UB3LYP) =  -842.698483444     A.U. after    1 cycles

 Alpha  occ. eigenvalues --  -18.95381 -18.95157 -10.10548 -10.10313 -10.07262
 Alpha  occ. eigenvalues --  -10.07210 -10.06905 -10.06735 -10.06540 -10.06490
 Alpha  occ. eigenvalues --  -10.06372 -10.06036 -10.05898 -10.05811 -10.05725
 Alpha  occ. eigenvalues --  -10.05659 -10.05600 -10.05494 -10.05395 -10.05077
 Alpha  occ. eigenvalues --   -0.88143  -0.87871  -0.76012  -0.74371  -0.71208
 Alpha  occ. eigenvalues --   -0.67176  -0.64947  -0.63637  -0.63036  -0.60818
 Alpha  occ. eigenvalues --   -0.55353  -0.52511  -0.51234  -0.49401  -0.48025
 Alpha  occ. eigenvalues --   -0.44271  -0.43500  -0.40457  -0.38971  -0.38190
 Alpha  occ. eigenvalues --   -0.35700  -0.35037  -0.34139  -0.32471  -0.31588
 Alpha  occ. eigenvalues --   -0.31256  -0.30392  -0.30340  -0.29035  -0.28623
 Alpha  occ. eigenvalues --   -0.28069  -0.27280  -0.26460  -0.25674  -0.24409
 Alpha  occ. eigenvalues --   -0.23807  -0.23123  -0.22822  -0.21741  -0.20811
 Alpha  occ. eigenvalues --   -0.16911  -0.14621  -0.14155  -0.13547  -0.12111
 Alpha  occ. eigenvalues --   -0.11120  -0.11068  -0.02541
 Alpha virt. eigenvalues --    0.06268   0.07303   0.07394   0.07957   0.08932
 Alpha virt. eigenvalues --    0.09913   0.09941   0.10129   0.11235   0.11630
 Alpha virt. eigenvalues --    0.11803   0.13498   0.13867   0.14195   0.15153

  Beta  occ. eigenvalues --  -18.94783 -18.94603 -10.10414 -10.10207 -10.07275
  Beta  occ. eigenvalues --  -10.07213 -10.06883 -10.06708 -10.06506 -10.06456
  Beta  occ. eigenvalues --  -10.06362 -10.05905 -10.05817 -10.05788 -10.05691
  Beta  occ. eigenvalues --  -10.05638 -10.05538 -10.05458 -10.05329 -10.05046
  Beta  occ. eigenvalues --   -0.87159  -0.86863  -0.75889  -0.74215  -0.71003
  Beta  occ. eigenvalues --   -0.66868  -0.64795  -0.63492  -0.62901  -0.60635
  Beta  occ. eigenvalues --   -0.54650  -0.52379  -0.51030  -0.49289  -0.47949
  Beta  occ. eigenvalues --   -0.44075  -0.43309  -0.40335  -0.38882  -0.38052
  Beta  occ. eigenvalues --   -0.35506  -0.34897  -0.34046  -0.32358  -0.31519
  Beta  occ. eigenvalues --   -0.31219  -0.30228  -0.29351  -0.28937  -0.28290
  Beta  occ. eigenvalues --   -0.27689  -0.26903  -0.26277  -0.24333  -0.23631
  Beta  occ. eigenvalues --   -0.23030  -0.22989  -0.22730  -0.21570  -0.20013
  Beta  occ. eigenvalues --   -0.16257  -0.13766  -0.13020  -0.12759  -0.11568
  Beta  occ. eigenvalues --   -0.10554  -0.10271
  Beta virt. eigenvalues --    0.03205   0.06914   0.07391   0.07951   0.08168
  Beta virt. eigenvalues --    0.08929   0.09935   0.10126   0.10205   0.11629
  Beta virt. eigenvalues --    0.11678   0.11800   0.13495   0.13864   0.14456

 Mulliken charges and spin densities:
               1          2
     1  O   -0.347298   0.223175
     2  C   -0.976468   0.052662
     3  C    0.239168   0.022684
     4  C   -0.088469   0.014703
     5  C   -0.412642   0.025953
     6  C   -0.421933   0.026964
     7  C    0.000646   0.013991
     8  C    0.288266   0.010009
     9  C   -0.685921   0.075722
    10  O   -0.322968   0.211324
    11  C    0.671866   0.105930
    12  C    0.969884  -0.001449
    13  C   -0.583471   0.023455
    14  C   -0.551496   0.003339
    15  C   -0.279822   0.017865
    16  C   -0.466426   0.015859
    17  C    0.556895  -0.012353
    18  C   -0.468303   0.095813
    19  C   -0.216533  -0.023907
    20  C    0.755850   0.119577
    21  H    0.155813  -0.001547
    22  H    0.126027  -0.002302
    23  H    0.127634  -0.002343
    24  H    0.152340  -0.001312
    25  H    0.151772  -0.004936
    26  H    0.141481  -0.000586
    27  H    0.121728  -0.001311
    28  H    0.093711  -0.002160
    29  H    0.109798  -0.005779
    30  H    0.158869   0.000960
 Sum of Mulliken charges =  -1.00000   1.00000

 Dipole moment (field-independent basis, Debye):
    X=             -2.3523    Y=              1.1999    Z=             -0.0054  Tot=              2.6407
 Quadrupole moment (field-independent basis, Debye-Ang):
   XX=           -139.4039   YY=           -145.6423   ZZ=           -124.5334
   XY=              8.4862   XZ=             -0.0649   YZ=              0.6022

  Exact polarizability: 438.590 -22.992 265.369  -4.175  -4.928 112.237
 Approx polarizability: 647.868 -40.313 515.297  -5.697 -10.874 182.118

                      1                      2                      3
                      A                      A                      A
 Frequencies --     39.5229                56.9414               112.5851
 Red. masses --      7.0240                 5.1889                 5.4992
 Frc consts  --      0.0065                 0.0099                 0.0411
 IR Inten    --      3.9504                 0.5893                 2.9890

                      4                      5                      6
                      A                      A                      A
 Frequencies --    129.3474               179.0408               179.6447
 Red. masses --      4.7229                 5.3186                 6.0585
 Frc consts  --      0.0466                 0.1005                 0.1152
 IR Inten    --      0.0118                 2.0980                 0.5623

                      7                      8                      9
                      A                      A                      A
 Frequencies --    214.9579               272.8353               291.1095
 Red. masses --      4.5502                 5.1724                 6.0273
 Frc consts  --      0.1239                 0.2269                 0.3009
 IR Inten    --      2.2781                 0.2548                 1.7339

                     10                     11                     12
                      A                      A                      A
 Frequencies --    318.1607               361.3381               399.0436
 Red. masses --      8.3638                 7.1063                 4.7225
 Frc consts  --      0.4988                 0.5467                 0.4431
 IR Inten    --      0.1422                 0.3134                 1.5068

                     13                     14                     15
                      A                      A                      A
 Frequencies --    399.0855               437.0214               444.3258
 Red. masses --      8.8687                 3.8223                 5.8916
 Frc consts  --      0.8322                 0.4301                 0.6853
 IR Inten    --      5.6051                 0.9059                 5.0383

                     16                     17                     18
                      A                      A                      A
 Frequencies --    444.7113               485.9088               512.1271
 Red. masses --      3.9671                12.0213                 3.9046
 Frc consts  --      0.4623                 1.6723                 0.6034
 IR Inten    --      1.0029                 1.0202                 0.7545

                     19                     20                     21
                      A                      A                      A
 Frequencies --    529.9639               539.0509               565.6088
 Red. masses --      3.5324                 7.0709                 7.0122
 Frc consts  --      0.5845                 1.2106                 1.3217
 IR Inten    --     16.1632                 1.5036                 7.2379

                     22                     23                     24
                      A                      A                      A
 Frequencies --    611.6325               639.3369               672.0476
 Red. masses --      4.4102                 6.8371                 6.6494
 Frc consts  --      0.9721                 1.6466                 1.7694
 IR Inten    --      0.0704                10.2729                 1.2196

                     25                     26                     27
                      A                      A                      A
 Frequencies --    684.2020               694.7279               707.3872
 Red. masses --      6.9929                 4.4211                 2.0190
 Frc consts  --      1.9287                 1.2572                 0.5953
 IR Inten    --      1.0483                 1.7672                23.5110

                     28                     29                     30
                      A                      A                      A
 Frequencies --    750.2417               754.0264               766.1758
 Red. masses --      1.3297                 6.4155                 3.7664
 Frc consts  --      0.4410                 2.1491                 1.3027
 IR Inten    --     77.6637                 0.7864                14.2678

                     31                     32                     33
                      A                      A                      A
 Frequencies --    786.4206               804.8689               811.5673
 Red. masses --      1.9081                 2.9987                 5.9603
 Frc consts  --      0.6953                 1.1445                 2.3129
 IR Inten    --      0.5115                11.2957                 7.6521

                     34                     35                     36
                      A                      A                      A
 Frequencies --    826.6493               867.0978               869.9680
 Red. masses --      1.8586                 1.5322                 5.6613
 Frc consts  --      0.7483                 0.6787                 2.5245
 IR Inten    --     33.5981                 1.3303                 1.5904

                     37                     38                     39
                      A                      A                      A
 Frequencies --    877.0607               919.3841               940.2227
 Red. masses --      1.5050                 6.7447                 1.3054
 Frc consts  --      0.6821                 3.3590                 0.6799
 IR Inten    --      0.0145                 1.8577                 2.6218

                     40                     41                     42
                      A                      A                      A
 Frequencies --    982.7058               987.6858               997.3213
 Red. masses --      1.3315                 1.2919                 1.2954
 Frc consts  --      0.7576                 0.7425                 0.7592
 IR Inten    --      1.5260                 0.6847                 1.2374

                     43                     44                     45
                      A                      A                      A
 Frequencies --   1001.2173              1001.5197              1041.4502
 Red. masses --      1.2794                 5.9947                 2.0461
 Frc consts  --      0.7556                 3.5427                 1.3076
 IR Inten    --      2.4320                 9.6130                38.3266

                     46                     47                     48
                      A                      A                      A
 Frequencies --   1057.6523              1081.6957              1112.5434
 Red. masses --      2.1243                 3.7201                 1.9434
 Frc consts  --      1.4001                 2.5646                 1.4172
 IR Inten    --     10.1465                 1.4130                 8.3761

                     49                     50                     51
                      A                      A                      A
 Frequencies --   1142.8232              1160.0894              1171.5857
 Red. masses --      1.4579                 1.2465                 1.1750
 Frc consts  --      1.1218                 0.9884                 0.9503
 IR Inten    --     33.1609                 3.8715                 3.9319

                     52                     53                     54
                      A                      A                      A
 Frequencies --   1175.7542              1199.4532              1219.3756
 Red. masses --      1.8030                 2.2892                 2.3987
 Frc consts  --      1.4685                 1.9404                 2.1014
 IR Inten    --      2.8022                24.9308                39.1697

                     55                     56                     57
                      A                      A                      A
 Frequencies --   1225.7755              1245.2753              1282.5135
 Red. masses --      2.4804                 1.9807                 1.8281
 Frc consts  --      2.1958                 1.8097                 1.7716
 IR Inten    --      1.5766                29.5226                32.9920

                     58                     59                     60
                      A                      A                      A
 Frequencies --   1294.0892              1351.5148              1363.3551
 Red. masses --      2.7895                 6.9405                 9.8406
 Frc consts  --      2.7523                 7.4693                10.7768
 IR Inten    --     25.9510                66.5465                 0.5343

                     61                     62                     63
                      A                      A                      A
 Frequencies --   1374.9490              1386.6586              1430.7637
 Red. masses --      4.1623                 4.7391                 2.0250
 Frc consts  --      4.6361                 5.3689                 2.4424
 IR Inten    --    122.6665                76.4942               110.1113

                     64                     65                     66
                      A                      A                      A
 Frequencies --   1460.1423              1476.3536              1484.9071
 Red. masses --      2.4969                 2.7993                 2.5085
 Frc consts  --      3.1364                 3.5948                 3.2588
 IR Inten    --     29.9678                18.5271                24.7122

                     67                     68                     69
                      A                      A                      A
 Frequencies --   1511.3633              1535.9259              1552.9308
 Red. masses --      3.8359                 6.2686                 5.6278
 Frc consts  --      5.1625                 8.7128                 7.9963
 IR Inten    --     87.7565               231.7196               138.7645

                     70                     71                     72
                      A                      A                      A
 Frequencies --   1564.3061              1612.2979              1622.6028
 Red. masses --      5.9009                 7.9678                 6.0703
 Frc consts  --      8.5076                12.2034                 9.4164
 IR Inten    --     39.6760                68.4425                 9.0442

                     73                     74                     75
                      A                      A                      A
 Frequencies --   1630.3572              1632.6389              3131.2285
 Red. masses --      5.8227                 6.3145                 1.0845
 Frc consts  --      9.1189                 9.9167                 6.2650
 IR Inten    --      5.5900                 9.7007                 0.0762

                     76                     77                     78
                      A                      A                      A
 Frequencies --   3135.5107              3138.0557              3144.8133
 Red. masses --      1.0849                 1.0876                 1.0894
 Frc consts  --      6.2844                 6.3102                 6.3477
 IR Inten    --     16.4295                12.9344                56.7231

                     79                     80                     81
                      A                      A                      A
 Frequencies --   3154.6729              3162.5139              3185.2303
 Red. masses --      1.0916                 1.0961                 1.0918
 Frc consts  --      6.4009                 6.4593                 6.5265
 IR Inten    --     60.6257                82.1272                17.6051

                     82                     83                     84
                      A                      A                      A
 Frequencies --   3187.8876              3190.1737              3228.9621
 Red. masses --      1.0920                 1.0920                 1.0918
 Frc consts  --      6.5384                 6.5479                 6.7070
 IR Inten    --     17.9806                20.7504                16.3936

 - Thermochemistry -
 -------------------
 Temperature   298.150 Kelvin.  Pressure   1.00000 Atm.
 Atom     1 has atomic number  8 and mass  15.99491

 Molecular mass:   258.06808 amu.
 Principal axes and moments of inertia in atomic units:
                           1         2         3
     Eigenvalues --  2286.809667354.328129641.13758
           X            0.99295   0.11757   0.01521
           Y           -0.11804   0.99241   0.03442
           Z           -0.01105  -0.03597   0.99929
 This molecule is an asymmetric top.
 Rotational symmetry number  1.
 Warning -- assumption of classical behavior for rotation
           may cause significant error
 Rotational temperatures (Kelvin)      0.03788     0.01178     0.00898
 Rotational constants (GHZ):           0.78920     0.24540     0.18719
 Zero-point vibrational energy     585727.5 (Joules/Mol)
                                  139.99223 (Kcal/Mol)
 Warning -- explicit consideration of  22 degrees of freedom as
           vibrations may cause significant error
 Vibrational temperatures:     56.86    81.93   161.98   186.10   257.60
          (Kelvin)            258.47   309.28   392.55   418.84   457.76
                              519.88   574.13   574.20   628.78   639.29
                              639.84   699.11   736.84   762.50   775.57
                              813.78   880.00   919.86   966.93   984.41
                              999.56  1017.77  1079.43  1084.88  1102.36
                             1131.48  1158.03  1167.66  1189.36  1247.56
                             1251.69  1261.89  1322.79  1352.77  1413.89
                             1421.06  1434.92  1440.53  1440.96  1498.41
                             1521.73  1556.32  1600.70  1644.27  1669.11
                             1685.65  1691.65  1725.75  1754.41  1763.62
                             1791.67  1845.25  1861.91  1944.53  1961.56
                             1978.24  1995.09  2058.55  2100.82  2124.14
                             2136.45  2174.51  2209.85  2234.32  2250.69
                             2319.74  2334.56  2345.72  2349.00  4505.14
                             4511.30  4514.96  4524.68  4538.87  4550.15
                             4582.84  4586.66  4589.95  4645.76

 Zero-point correction=                           0.223092 (Hartree/Particle)
 Thermal correction to Energy=                    0.236981
 Thermal correction to Enthalpy=                  0.237925
 Thermal correction to Gibbs Free Energy=         0.181551
 Sum of electronic and zero-point Energies=           -842.475392
 Sum of electronic and thermal Energies=              -842.461503
 Sum of electronic and thermal Enthalpies=            -842.460559
 Sum of electronic and thermal Free Energies=         -842.516933

                     E (Thermal)             CV                S
                      KCal/Mol        Cal/Mol-Kelvin    Cal/Mol-Kelvin
 Total                  148.708             57.999            118.650
 Electronic               0.000              0.000              1.377
 Translational            0.889              2.981             42.544
 Rotational               0.889              2.981             33.450
 Vibrational            146.930             52.038             41.279
 Vibration     1          0.594              1.981              5.283
 Vibration     2          0.596              1.975              4.560
 Vibration     3          0.607              1.939              3.224
 Vibration     4          0.612              1.924              2.956
 Vibration     5          0.629              1.868              2.338
 Vibration     6          0.629              1.867              2.332
 Vibration     7          0.645              1.818              2.001
 Vibration     8          0.676              1.723              1.578
 Vibration     9          0.687              1.690              1.468
 Vibration    10          0.705              1.639              1.320
 Vibration    11          0.736              1.552              1.116
 Vibration    12          0.765              1.472              0.966
 Vibration    13          0.765              1.472              0.966
 Vibration    14          0.797              1.389              0.836
 Vibration    15          0.804              1.373              0.813
 Vibration    16          0.804              1.373              0.812
 Vibration    17          0.842              1.281              0.694
 Vibration    18          0.867              1.223              0.628
 Vibration    19          0.885              1.184              0.587
 Vibration    20          0.894              1.164              0.567
 Vibration    21          0.921              1.106              0.513
 Vibration    22          0.971              1.007              0.430

 Optimization completed.
    -- Stationary point found.
 Normal termination of Gaussian 16 at Wed Dec 27 22:17:58 2023.
