 Q-Chem 5.4, Q-Chem, Inc., Pleasanton, CA (2021)
 Q-Chem 5.4.0 for Intel X86 EM64T Linux

User input:
--------------------------------------------------------------
$molecule
-1 2
O                  1.5335600000     -3.0729830000      0.0826760000
C                  1.2985810000     -1.8403530000      0.0442280000
C                  2.3843570000     -0.8593030000     -0.0063870000
C                  3.7244570000     -1.2973250000     -0.0119030000
C                  4.7665660000     -0.3909810000     -0.0593150000
C                  4.4906750000      0.9904550000     -0.1028850000
C                  3.1816520000      1.4351240000     -0.0980590000
C                  2.1037040000      0.5264840000     -0.0499300000
C                  0.7261600000      1.0593780000     -0.0469490000
O                  0.5612410000      2.3053910000     -0.0881410000
C                 -0.3647230000      0.0858420000      0.0029990000
C                 -1.7661200000      0.4879360000      0.0102980000
C                 -2.1982470000      1.8416940000     -0.0295100000
C                 -3.5411530000      2.1770970000     -0.0207370000
C                 -4.5333560000      1.1845650000      0.0281210000
C                 -4.1514960000     -0.1416410000      0.0677160000
C                 -2.7889210000     -0.5167150000      0.0600790000
C                 -2.4219880000     -1.8975780000      0.1018760000
C                 -1.1117260000     -2.2669670000      0.0949160000
C                 -0.0623070000     -1.3073680000      0.0462700000
H                  3.9010210000     -2.3661000000      0.0223490000
H                  5.7948500000     -0.7402600000     -0.0630850000
H                  5.3073680000      1.7054310000     -0.1402560000
H                  2.9417570000      2.4910760000     -0.1309310000
H                 -1.4395740000      2.6078790000     -0.0671650000
H                 -3.8260300000      3.2245340000     -0.0522650000
H                 -5.5847490000      1.4554100000      0.0346660000
H                 -4.9007200000     -0.9277510000      0.1058360000
H                 -3.2102090000     -2.6445530000      0.1392550000
H                 -0.8146280000     -3.3084200000      0.1262370000
$end
$rem
MAX_SCF_CYCLES=200
BASIS  =  6-311++G(d,p)
GUI  =  2
JOB_TYPE  =  SP
METHOD  =  B3LYP
SOLVENT_METHOD = PCM
$end
$pcm
theory = CPCM
$end
$solvent
dielectric 37.219
opticaldielectric 1.43
$end

--------------------------------------------------------------

             Standard Nuclear Orientation (Angstroms)
    I     Atom           X                Y                Z
 ----------------------------------------------------------------
    1      O       1.5335600000    -3.0729830000     0.0826760000
    2      C       1.2985810000    -1.8403530000     0.0442280000
    3      C       2.3843570000    -0.8593030000    -0.0063870000
    4      C       3.7244570000    -1.2973250000    -0.0119030000
    5      C       4.7665660000    -0.3909810000    -0.0593150000
    6      C       4.4906750000     0.9904550000    -0.1028850000
    7      C       3.1816520000     1.4351240000    -0.0980590000
    8      C       2.1037040000     0.5264840000    -0.0499300000
    9      C       0.7261600000     1.0593780000    -0.0469490000
   10      O       0.5612410000     2.3053910000    -0.0881410000
   11      C      -0.3647230000     0.0858420000     0.0029990000
   12      C      -1.7661200000     0.4879360000     0.0102980000
   13      C      -2.1982470000     1.8416940000    -0.0295100000
   14      C      -3.5411530000     2.1770970000    -0.0207370000
   15      C      -4.5333560000     1.1845650000     0.0281210000
   16      C      -4.1514960000    -0.1416410000     0.0677160000
   17      C      -2.7889210000    -0.5167150000     0.0600790000
   18      C      -2.4219880000    -1.8975780000     0.1018760000
   19      C      -1.1117260000    -2.2669670000     0.0949160000
   20      C      -0.0623070000    -1.3073680000     0.0462700000
   21      H       3.9010210000    -2.3661000000     0.0223490000
   22      H       5.7948500000    -0.7402600000    -0.0630850000
   23      H       5.3073680000     1.7054310000    -0.1402560000
   24      H       2.9417570000     2.4910760000    -0.1309310000
   25      H      -1.4395740000     2.6078790000    -0.0671650000
   26      H      -3.8260300000     3.2245340000    -0.0522650000
   27      H      -5.5847490000     1.4554100000     0.0346660000
   28      H      -4.9007200000    -0.9277510000     0.1058360000
   29      H      -3.2102090000    -2.6445530000     0.1392550000
   30      H      -0.8146280000    -3.3084200000     0.1262370000
 ----------------------------------------------------------------

    8    -842.7747683735      5.32e-06  Convergence criterion met
 Total energy in the final basis set =     -842.7747683735

                    Orbital Energies (a.u.)
 --------------------------------------------------------------

 Alpha MOs
 -- Occupied --
-19.0797 -19.0770 -10.2294 -10.2277 -10.1863 -10.1823 -10.1798 -10.1748
-10.1743 -10.1736 -10.1733 -10.1731 -10.1715 -10.1709 -10.1709 -10.1707
-10.1698 -10.1697 -10.1678 -10.1622  -1.0083  -1.0055  -0.8729  -0.8583
 -0.8248  -0.7856  -0.7613  -0.7510  -0.7425  -0.7194  -0.6710  -0.6373
 -0.6248  -0.6047  -0.5910  -0.5577  -0.5463  -0.5179  -0.4987  -0.4914
 -0.4712  -0.4629  -0.4513  -0.4366  -0.4278  -0.4262  -0.4255  -0.4196
 -0.4058  -0.4014  -0.3971  -0.3882  -0.3823  -0.3745  -0.3546  -0.3534
 -0.3431  -0.3394  -0.3316  -0.3232  -0.2847  -0.2636  -0.2574  -0.2497
 -0.2483  -0.2356  -0.2240  -0.1477

 Beta MOs
 -- Occupied --
-19.0745 -19.0721 -10.2276 -10.2260 -10.1864 -10.1822 -10.1787 -10.1738
-10.1734 -10.1733 -10.1728 -10.1728 -10.1713 -10.1708 -10.1707 -10.1697
-10.1697 -10.1695 -10.1681 -10.1620  -0.9991  -0.9964  -0.8714  -0.8568
 -0.8228  -0.7827  -0.7597  -0.7492  -0.7410  -0.7179  -0.6638  -0.6357
 -0.6227  -0.6037  -0.5902  -0.5555  -0.5442  -0.5164  -0.4978  -0.4900
 -0.4687  -0.4619  -0.4505  -0.4356  -0.4265  -0.4250  -0.4166  -0.4141
 -0.4041  -0.3998  -0.3949  -0.3830  -0.3735  -0.3619  -0.3537  -0.3462
 -0.3423  -0.3385  -0.3305  -0.3152  -0.2772  -0.2523  -0.2499  -0.2438
 -0.2436  -0.2311  -0.2175

          Ground-State Mulliken Net Atomic Charges

     Atom                 Charge (a.u.)    Spin (a.u.)
  --------------------------------------------------------
      1 O                    -0.460280       0.200332
      2 C                    -0.698114       0.096869
      3 C                     0.135726       0.008670
      4 C                    -0.088618       0.026906
      5 C                    -0.464997       0.022535
      6 C                    -0.479176       0.028472
      7 C                     0.019894       0.021144
      8 C                     0.185662       0.001952
      9 C                    -0.544378       0.108515
     10 O                    -0.429412       0.191518
     11 C                     0.648021       0.089740
     12 C                     0.887071       0.005071
     13 C                    -0.600348       0.012703
     14 C                    -0.551671       0.009252
     15 C                    -0.332198       0.015200
     16 C                    -0.460706       0.008605
     17 C                     0.462287      -0.003680
     18 C                    -0.497753       0.085643
     19 C                    -0.231054      -0.009493
     20 C                     0.682346       0.099740
     21 H                     0.169992      -0.001924
     22 H                     0.200141      -0.002037
     23 H                     0.199583      -0.002376
     24 H                     0.168951      -0.001523
     25 H                     0.151621      -0.003911
     26 H                     0.205528      -0.000851
     27 H                     0.195784      -0.001077
     28 H                     0.168778      -0.001628
     29 H                     0.189156      -0.004753
     30 H                     0.168165       0.000383
  --------------------------------------------------------
  Sum of atomic charges =    -1.000000

                    Cartesian Multipole Moments
 -----------------------------------------------------------------
    Charge (ESU x 10^10)
                -4.8032
    Dipole Moment (Debye)
         X      -3.7621      Y       1.7279      Z      -0.0019
       Tot       4.1399
    Quadrupole Moments (Debye-Ang)
        XX    -114.3646     XY       9.8462     YY    -146.5960
        XZ      -0.4923     YZ       0.6148     ZZ    -124.5260

 Total job time:  100.35s(wall), 471.19s(cpu)
        *  Thank you very much for using Q-Chem.  Have a nice day.  *
