 Q-Chem 5.4, Q-Chem, Inc., Pleasanton, CA (2021)
 Q-Chem 5.4.0 for Intel X86 EM64T Linux

User input:
--------------------------------------------------------------
$molecule
-1 2
O                 -2.2105280000     -2.0697640000      0.2059750000
C                 -1.6612840000     -0.8347380000      0.0995210000
C                 -2.4931360000      0.2813700000      0.0316690000
C                 -1.9581830000      1.5669810000     -0.0783700000
C                 -0.5794250000      1.7651580000     -0.1229990000
O                 -0.0903630000      3.0251650000     -0.2299710000
C                  0.2924950000      0.6485120000     -0.0559820000
C                  1.7381340000      0.8499970000     -0.1023200000
O                  2.2405700000      2.0243490000     -0.2029810000
C                  2.5586360000     -0.3187230000     -0.0302950000
C                  2.0309120000     -1.5869520000      0.0782050000
C                  0.6228320000     -1.8302980000      0.1269870000
O                  0.1438830000     -3.0143960000      0.2279780000
C                 -0.2538730000     -0.6645320000      0.0564090000
H                 -1.4245400000     -2.6963520000      0.2372790000
H                 -3.5663470000      0.1281770000      0.0663310000
H                 -2.6064530000      2.4349800000     -0.1310750000
H                  0.9086150000      2.9102950000     -0.2421970000
H                  3.6321560000     -0.1605720000     -0.0653650000
H                  2.6759000000     -2.4586590000      0.1312000000
$end
$rem
MAX_SCF_CYCLES=200
BASIS  =  6-311++G(d,p)
GUI  =  2
JOB_TYPE  =  SP
METHOD  =  B3LYP
SOLVENT_METHOD = PCM
$end
$pcm
theory = CPCM
$end
$solvent
dielectric 37.219
opticaldielectric 1.43
$end

--------------------------------------------------------------

             Standard Nuclear Orientation (Angstroms)
    I     Atom           X                Y                Z
 ----------------------------------------------------------------
    1      O      -2.2105280000    -2.0697640000     0.2059750000
    2      C      -1.6612840000    -0.8347380000     0.0995210000
    3      C      -2.4931360000     0.2813700000     0.0316690000
    4      C      -1.9581830000     1.5669810000    -0.0783700000
    5      C      -0.5794250000     1.7651580000    -0.1229990000
    6      O      -0.0903630000     3.0251650000    -0.2299710000
    7      C       0.2924950000     0.6485120000    -0.0559820000
    8      C       1.7381340000     0.8499970000    -0.1023200000
    9      O       2.2405700000     2.0243490000    -0.2029810000
   10      C       2.5586360000    -0.3187230000    -0.0302950000
   11      C       2.0309120000    -1.5869520000     0.0782050000
   12      C       0.6228320000    -1.8302980000     0.1269870000
   13      O       0.1438830000    -3.0143960000     0.2279780000
   14      C      -0.2538730000    -0.6645320000     0.0564090000
   15      H      -1.4245400000    -2.6963520000     0.2372790000
   16      H      -3.5663470000     0.1281770000     0.0663310000
   17      H      -2.6064530000     2.4349800000    -0.1310750000
   18      H       0.9086150000     2.9102950000    -0.2421970000
   19      H       3.6321560000    -0.1605720000    -0.0653650000
   20      H       2.6759000000    -2.4586590000     0.1312000000
 ----------------------------------------------------------------

    8    -685.9380556579      9.40e-06  Convergence criterion met
 Total energy in the final basis set =     -685.9380556579

                    Orbital Energies (a.u.)
 --------------------------------------------------------------

 Alpha MOs
 -- Occupied --
-19.1336 -19.1335 -19.0946 -19.0946 -10.2358 -10.2358 -10.2337 -10.2337
-10.1806 -10.1802 -10.1738 -10.1733 -10.1712 -10.1706  -1.0562  -1.0547
 -1.0089  -1.0072  -0.8584  -0.8107  -0.7507  -0.7398  -0.6866  -0.6386
 -0.6200  -0.5885  -0.5247  -0.5140  -0.5127  -0.5036  -0.4736  -0.4403
 -0.4401  -0.4299  -0.4132  -0.4112  -0.4056  -0.3988  -0.3924  -0.3847
 -0.3728  -0.3626  -0.3555  -0.3119  -0.2858  -0.2646  -0.2592  -0.2531
 -0.2195  -0.1611

 Beta MOs
 -- Occupied --
-19.1329 -19.1329 -19.0895 -19.0895 -10.2339 -10.2339 -10.2330 -10.2330
-10.1809 -10.1804 -10.1730 -10.1725 -10.1696 -10.1690  -1.0542  -1.0526
 -1.0006  -0.9986  -0.8561  -0.8054  -0.7487  -0.7365  -0.6782  -0.6352
 -0.6179  -0.5865  -0.5233  -0.5130  -0.5099  -0.5003  -0.4716  -0.4378
 -0.4320  -0.4261  -0.4105  -0.4102  -0.3971  -0.3963  -0.3829  -0.3779
 -0.3609  -0.3541  -0.3535  -0.3044  -0.2621  -0.2602  -0.2543  -0.2490
 -0.2073

          Ground-State Mulliken Net Atomic Charges

     Atom                 Charge (a.u.)    Spin (a.u.)
  --------------------------------------------------------
      1 O                    -0.418538       0.019708
      2 C                    -0.243431       0.065038
      3 C                    -0.049823       0.054056
      4 C                    -0.048682       0.054130
      5 C                    -0.238992       0.065021
      6 O                    -0.418449       0.019712
      7 C                     0.515075      -0.012759
      8 C                    -0.354367       0.111615
      9 O                    -0.533334       0.184395
     10 C                    -0.206078       0.096739
     11 C                    -0.205585       0.096843
     12 C                    -0.351691       0.111588
     13 O                    -0.533344       0.184430
     14 C                     0.517532      -0.012720
     15 H                     0.365362      -0.004387
     16 H                     0.214224      -0.004675
     17 H                     0.214140      -0.004681
     18 H                     0.365217      -0.004395
     19 H                     0.205400      -0.009825
     20 H                     0.205361      -0.009833
  --------------------------------------------------------
  Sum of atomic charges =    -1.000000

                    Cartesian Multipole Moments
 -----------------------------------------------------------------
    Charge (ESU x 10^10)
                -4.8032
    Dipole Moment (Debye)
         X      -1.5476      Y       0.6407      Z      -0.0157
       Tot       1.6751
    Quadrupole Moments (Debye-Ang)
        XX     -93.4793     XY     -13.8101     YY    -120.9046
        XZ       1.2227     YZ       3.0069     ZZ     -85.7966

 Total job time:  28.68s(wall), 207.96s(cpu)
        *  Thank you very much for using Q-Chem.  Have a nice day.  *
