 Q-Chem 5.4, Q-Chem, Inc., Pleasanton, CA (2021)
 Q-Chem 5.4.0 for Intel X86 EM64T Linux

User input:
--------------------------------------------------------------
$molecule
0 1
C                 -0.5325920000      2.9616560000      0.7127610000
C                 -1.6667400000      2.6000720000     -0.0075270000
C                 -1.6377870000      1.4779850000     -0.8375920000
C                  0.6309070000      2.1962570000      0.6026220000
C                  0.6630300000      1.0678920000     -0.2317270000
C                 -0.4768590000      0.7155810000     -0.9524090000
C                  1.8352030000      2.5590860000      1.3690810000
C                  3.0356520000      1.6835730000      1.2619470000
C                  3.0690720000      0.5592330000      0.4940280000
C                  1.9133780000      0.2460090000     -0.3881690000
O                  1.9064260000      3.5272650000      2.1192620000
O                  1.9633340000     -0.6351950000     -1.2258810000
O                  4.0708070000      2.0866360000      2.0062080000
H                 -0.5296330000      3.8287730000      1.3617280000
H                 -2.5715470000      3.1909010000      0.0755880000
H                 -2.5217830000      1.1986100000     -1.3995120000
H                 -0.4351610000     -0.1531140000     -1.5974840000
H                  3.7696360000      2.8922740000      2.4697720000
S                  4.5644820000     -0.3877740000      0.4018320000
C                  3.9753550000     -2.0860150000      0.4612500000
C                  4.3295140000     -2.9662330000     -0.5606790000
C                  3.2571810000     -2.5586540000      1.5608840000
C                  3.9650010000     -4.3073290000     -0.4787440000
C                  2.8784140000     -3.8968920000      1.6194580000
C                  3.2309910000     -4.7961410000      0.6069910000
C                  2.8547100000     -6.2549230000      0.6971050000
H                  4.8683880000     -2.5985070000     -1.4252990000
H                  2.9967010000     -1.8847630000      2.3687770000
H                  4.2421420000     -4.9805910000     -1.2836980000
H                  2.3099730000     -4.2492810000      2.4744330000
H                  1.9341880000     -6.3949850000      1.2683820000
H                  3.6410170000     -6.8324780000      1.1957380000
H                  2.7088630000     -6.6904680000     -0.2941270000
$end

$rem
BASIS  =  6-311++G(d,p)
GUI  =  2
JOB_TYPE  =  SP
METHOD  =  B3LYP
SCF_CONVERGENCE  = 8
SOLVENT_METHOD = sm12
$end

$smx
solvent dimethylformamide
charges CM5
$end

--------------------------------------------------------------

             Standard Nuclear Orientation (Angstroms)
    I     Atom           X                Y                Z
 ----------------------------------------------------------------
    1      C      -0.5325920000     2.9616560000     0.7127610000
    2      C      -1.6667400000     2.6000720000    -0.0075270000
    3      C      -1.6377870000     1.4779850000    -0.8375920000
    4      C       0.6309070000     2.1962570000     0.6026220000
    5      C       0.6630300000     1.0678920000    -0.2317270000
    6      C      -0.4768590000     0.7155810000    -0.9524090000
    7      C       1.8352030000     2.5590860000     1.3690810000
    8      C       3.0356520000     1.6835730000     1.2619470000
    9      C       3.0690720000     0.5592330000     0.4940280000
   10      C       1.9133780000     0.2460090000    -0.3881690000
   11      O       1.9064260000     3.5272650000     2.1192620000
   12      O       1.9633340000    -0.6351950000    -1.2258810000
   13      O       4.0708070000     2.0866360000     2.0062080000
   14      H      -0.5296330000     3.8287730000     1.3617280000
   15      H      -2.5715470000     3.1909010000     0.0755880000
   16      H      -2.5217830000     1.1986100000    -1.3995120000
   17      H      -0.4351610000    -0.1531140000    -1.5974840000
   18      H       3.7696360000     2.8922740000     2.4697720000
   19      S       4.5644820000    -0.3877740000     0.4018320000
   20      C       3.9753550000    -2.0860150000     0.4612500000
   21      C       4.3295140000    -2.9662330000    -0.5606790000
   22      C       3.2571810000    -2.5586540000     1.5608840000
   23      C       3.9650010000    -4.3073290000    -0.4787440000
   24      C       2.8784140000    -3.8968920000     1.6194580000
   25      C       3.2309910000    -4.7961410000     0.6069910000
   26      C       2.8547100000    -6.2549230000     0.6971050000
   27      H       4.8683880000    -2.5985070000    -1.4252990000
   28      H       2.9967010000    -1.8847630000     2.3687770000
   29      H       4.2421420000    -4.9805910000    -1.2836980000
   30      H       2.3099730000    -4.2492810000     2.4744330000
   31      H       1.9341880000    -6.3949850000     1.2683820000
   32      H       3.6410170000    -6.8324780000     1.1957380000
   33      H       2.7088630000    -6.6904680000    -0.2941270000
 ----------------------------------------------------------------

   16   -1279.1598732052      2.51e-09  Convergence criterion met
 Total energy in the final basis set =    -1279.1862047367

                    Orbital Energies (a.u.)
 --------------------------------------------------------------

 Alpha MOs
 -- Occupied --
-88.8696 -19.1848 -19.1512 -19.1310 -10.2959 -10.2875 -10.2774 -10.2333
-10.2149 -10.2140 -10.2133 -10.2028 -10.2008 -10.1995 -10.1990 -10.1940
-10.1891 -10.1874 -10.1837 -10.1826 -10.1690  -7.9554  -5.9194  -5.9153
 -5.9094  -1.1157  -1.0704  -1.0673  -0.8958  -0.8787  -0.8515  -0.8088
 -0.7834  -0.7806  -0.7603  -0.7406  -0.7010  -0.6781  -0.6582  -0.6324
 -0.6228  -0.6094  -0.5885  -0.5776  -0.5490  -0.5237  -0.5071  -0.4976
 -0.4840  -0.4770  -0.4755  -0.4680  -0.4633  -0.4545  -0.4472  -0.4347
 -0.4320  -0.4293  -0.4236  -0.4150  -0.4091  -0.3925  -0.3897  -0.3815
 -0.3770  -0.3731  -0.3646  -0.3547  -0.3443  -0.3078  -0.3024  -0.2885
 -0.2850  -0.2813  -0.2688  -0.2605  -0.2300

          Ground-State Mulliken Net Atomic Charges

     Atom                 Charge (a.u.)
  ----------------------------------------
      1 C                     0.358195
      2 C                     0.388387
      3 C                     0.499432
      4 C                     0.483752
      5 C                     0.028652
      6 C                     0.056095
      7 C                    -0.574918
      8 C                    -0.833887
      9 C                     0.429947
     10 C                    -1.427258
     11 O                    -0.280678
     12 O                    -0.222910
     13 O                    -0.150422
     14 H                     0.241084
     15 H                     0.332982
     16 H                     0.323199
     17 H                     0.209440
     18 H                     0.294387
     19 S                    -0.429014
     20 C                     0.398895
     21 C                    -0.807862
     22 C                    -0.462443
     23 C                    -0.391813
     24 C                    -0.443607
     25 C                     0.374088
     26 C                     0.047455
     27 H                     0.220052
     28 H                     0.237178
     29 H                     0.245018
     30 H                     0.248251
     31 H                     0.200916
     32 H                     0.210341
     33 H                     0.197065
  ----------------------------------------
  Sum of atomic charges =     0.000000

                    Cartesian Multipole Moments
 -----------------------------------------------------------------
    Charge (ESU x 10^10)
                 0.0000
    Dipole Moment (Debye)
         X      -4.6664      Y      -0.5508      Z       0.0242
       Tot       4.6988
    Quadrupole Moments (Debye-Ang)
        XX    -137.1409     XY      -9.3996     YY    -112.8623
        XZ      -0.6904     YZ      -3.5144     ZZ    -129.2584

 Total job time:  1111.90s(wall), 8184.34s(cpu)
        *  Thank you very much for using Q-Chem.  Have a nice day.  *
