 Q-Chem 5.4, Q-Chem, Inc., Pleasanton, CA (2021)
 Q-Chem 5.4.0 for Intel X86 EM64T Linux

User input:
--------------------------------------------------------------
$molecule
0 1
C                 -0.7596110000     -1.6910840000      3.5919200000
C                  0.3177420000     -2.4557800000      2.8961190000
C                  0.4053860000     -2.3063760000      1.5620300000
C                 -0.4940480000     -1.4368390000      0.7507220000
C                 -1.5349660000     -0.6991660000      1.4261170000
C                 -1.6928540000     -0.7952670000      2.7788270000
O                 -0.9333790000     -1.7485230000      4.7996160000
O                 -0.3160280000     -1.3798210000     -0.4660130000
N                 -2.6026300000     -0.1846600000      3.5682540000
C                 -3.6880840000      0.7569940000      3.2230710000
C                 -4.3817280000      1.0987310000      4.5517740000
C                 -4.7079390000      0.0920850000      2.2784360000
C                 -3.1151000000      2.0477350000      2.6064680000
H                 -2.1628360000     -0.0826570000      0.8005180000
H                 -2.4984180000     -0.4307870000      4.5460490000
H                 -3.6817780000      1.5661620000      5.2504310000
H                 -4.7945610000      0.2007860000      5.0205830000
H                 -5.2028040000      1.7970630000      4.3792010000
H                 -5.1218070000     -0.8087290000      2.7380840000
H                 -4.2660500000     -0.1898300000      1.3224370000
H                 -5.5302760000      0.7830460000      2.0754840000
H                 -2.4132440000      2.5209340000      3.2974920000
H                 -3.9251960000      2.7528850000      2.4030740000
H                 -2.5912550000      1.8623110000      1.6684210000
C                  1.2521400000     -3.3552240000      3.7176390000
C                  0.4309740000     -4.4538460000      4.4367530000
C                  2.2866750000     -4.0511130000      2.8136340000
C                  2.0225270000     -2.5061230000      4.7588270000
H                  1.1538620000     -2.8200970000      0.9725220000
H                 -0.2805590000     -4.0288490000      5.1432330000
H                  1.1081390000     -5.1134830000      4.9873880000
H                 -0.1164520000     -5.0658340000      3.7137360000
H                  1.8126530000     -4.6946950000      2.0674490000
H                  2.9330480000     -4.6814930000      3.4292550000
H                  2.9260230000     -3.3328250000      2.2930640000
H                  1.3492620000     -2.0347360000      5.4733390000
H                  2.6112180000     -1.7268720000      4.2657130000
H                  2.7147860000     -3.1476440000      5.3120850000
$end
$rem
MAX_SCF_CYCLES=200
BASIS  =  6-311++G(d,p)
GUI  =  2
JOB_TYPE  =  SP
METHOD  =  B3LYP
SOLVENT_METHOD = PCM
$end
$pcm
theory = CPCM
$end
$solvent
dielectric 37.219
opticaldielectric 1.43
$end

--------------------------------------------------------------

             Standard Nuclear Orientation (Angstroms)
    I     Atom           X                Y                Z
 ----------------------------------------------------------------
    1      C      -0.7596110000    -1.6910840000     3.5919200000
    2      C       0.3177420000    -2.4557800000     2.8961190000
    3      C       0.4053860000    -2.3063760000     1.5620300000
    4      C      -0.4940480000    -1.4368390000     0.7507220000
    5      C      -1.5349660000    -0.6991660000     1.4261170000
    6      C      -1.6928540000    -0.7952670000     2.7788270000
    7      O      -0.9333790000    -1.7485230000     4.7996160000
    8      O      -0.3160280000    -1.3798210000    -0.4660130000
    9      N      -2.6026300000    -0.1846600000     3.5682540000
   10      C      -3.6880840000     0.7569940000     3.2230710000
   11      C      -4.3817280000     1.0987310000     4.5517740000
   12      C      -4.7079390000     0.0920850000     2.2784360000
   13      C      -3.1151000000     2.0477350000     2.6064680000
   14      H      -2.1628360000    -0.0826570000     0.8005180000
   15      H      -2.4984180000    -0.4307870000     4.5460490000
   16      H      -3.6817780000     1.5661620000     5.2504310000
   17      H      -4.7945610000     0.2007860000     5.0205830000
   18      H      -5.2028040000     1.7970630000     4.3792010000
   19      H      -5.1218070000    -0.8087290000     2.7380840000
   20      H      -4.2660500000    -0.1898300000     1.3224370000
   21      H      -5.5302760000     0.7830460000     2.0754840000
   22      H      -2.4132440000     2.5209340000     3.2974920000
   23      H      -3.9251960000     2.7528850000     2.4030740000
   24      H      -2.5912550000     1.8623110000     1.6684210000
   25      C       1.2521400000    -3.3552240000     3.7176390000
   26      C       0.4309740000    -4.4538460000     4.4367530000
   27      C       2.2866750000    -4.0511130000     2.8136340000
   28      C       2.0225270000    -2.5061230000     4.7588270000
   29      H       1.1538620000    -2.8200970000     0.9725220000
   30      H      -0.2805590000    -4.0288490000     5.1432330000
   31      H       1.1081390000    -5.1134830000     4.9873880000
   32      H      -0.1164520000    -5.0658340000     3.7137360000
   33      H       1.8126530000    -4.6946950000     2.0674490000
   34      H       2.9330480000    -4.6814930000     3.4292550000
   35      H       2.9260230000    -3.3328250000     2.2930640000
   36      H       1.3492620000    -2.0347360000     5.4733390000
   37      H       2.6112180000    -1.7268720000     4.2657130000
   38      H       2.7147860000    -3.1476440000     5.3120850000
 ----------------------------------------------------------------

    9    -751.5584699249      4.24e-06  Convergence criterion met
 Total energy in the final basis set =     -751.5584699249

                    Orbital Energies (a.u.)
 --------------------------------------------------------------

 Alpha MOs
 -- Occupied --
-19.1450 -19.1143 -14.3482 -10.2921 -10.2633 -10.2471 -10.2307 -10.2095
-10.1993 -10.1975 -10.1704 -10.1623 -10.1600 -10.1599 -10.1569 -10.1559
-10.1559  -1.0810  -1.0451  -0.9596  -0.8588  -0.8245  -0.7964  -0.7539
 -0.6986  -0.6947  -0.6937  -0.6861  -0.6827  -0.6391  -0.6070  -0.5821
 -0.5448  -0.5331  -0.5068  -0.4996  -0.4786  -0.4637  -0.4628  -0.4488
 -0.4472  -0.4389  -0.4369  -0.4337  -0.4150  -0.4111  -0.4062  -0.4030
 -0.3876  -0.3856  -0.3789  -0.3749  -0.3709  -0.3664  -0.3583  -0.3536
 -0.3396  -0.3392  -0.3343  -0.3288  -0.2908  -0.2855  -0.2666  -0.2294

          Ground-State Mulliken Net Atomic Charges

     Atom                 Charge (a.u.)
  ----------------------------------------
      1 C                    -0.596986
      2 C                     0.965935
      3 C                    -0.238891
      4 C                    -0.536116
      5 C                    -0.076385
      6 C                    -0.023198
      7 O                    -0.240539
      8 O                    -0.390179
      9 N                     0.090364
     10 C                    -0.062620
     11 C                    -0.555430
     12 C                    -0.456848
     13 C                    -0.456972
     14 H                     0.244581
     15 H                     0.371245
     16 H                     0.166012
     17 H                     0.166253
     18 H                     0.174994
     19 H                     0.172930
     20 H                     0.145653
     21 H                     0.180762
     22 H                     0.172524
     23 H                     0.180811
     24 H                     0.145900
     25 C                     0.609093
     26 C                    -0.711390
     27 C                    -0.482392
     28 C                    -0.709553
     29 H                     0.255597
     30 H                     0.176942
     31 H                     0.171427
     32 H                     0.155822
     33 H                     0.147606
     34 H                     0.191925
     35 H                     0.147501
     36 H                     0.176350
     37 H                     0.155882
     38 H                     0.171388
  ----------------------------------------
  Sum of atomic charges =     0.000000

                    Cartesian Multipole Moments
 -----------------------------------------------------------------
    Charge (ESU x 10^10)
                -0.0000
    Dipole Moment (Debye)
         X      -2.4699      Y       1.2247      Z       4.7496
       Tot       5.4918
    Quadrupole Moments (Debye-Ang)
        XX     -86.1147     XY     -10.1573     YY     -99.3603
        XZ      -9.5604     YZ      -0.8681     ZZ    -102.5852

 Total job time:  74.88s(wall), 520.84s(cpu)
        *  Thank you very much for using Q-Chem.  Have a nice day.  *
