 Q-Chem 5.4, Q-Chem, Inc., Pleasanton, CA (2021)
 Q-Chem 5.4.0 for Intel X86 EM64T Linux

User input:
--------------------------------------------------------------
$molecule
-2 1
O                  4.4054980000     -1.5254760000     -0.4015740000
C                  3.2761540000     -0.7248500000     -0.3075880000
C                  3.3549460000      0.6743530000     -0.3528500000
C                  2.2025030000      1.4409130000     -0.2546180000
O                  2.3404560000      2.8306710000     -0.3038490000
C                  0.9158350000      0.8437100000     -0.1082140000
C                 -0.3126400000      1.6399480000     -0.0034200000
O                 -0.3361990000      2.9041070000     -0.0345350000
C                 -1.5526830000      0.8759810000      0.1437170000
C                 -2.7740760000      1.5672710000      0.2512500000
C                 -3.9908240000      0.9188900000      0.3927740000
C                 -4.0103520000     -0.5050340000      0.4313470000
C                 -2.8428030000     -1.2228860000      0.3299400000
C                 -1.5712350000     -0.5727730000      0.1828340000
C                 -0.3799420000     -1.2871070000      0.0791390000
O                 -0.4249870000     -2.6727260000      0.1194760000
C                  0.8604260000     -0.6143630000     -0.0650480000
C                  2.0690800000     -1.4004800000     -0.1675560000
O                  2.1078380000     -2.7311270000     -0.1367750000
H                  3.9831490000     -2.4124780000     -0.3356910000
H                  4.3274690000      1.1534760000     -0.4659160000
H                  3.2875190000      2.9845780000     -0.3854190000
H                 -2.7146210000      2.6510720000      0.2171200000
H                 -4.9165170000      1.4843580000      0.4732170000
H                 -4.9585030000     -1.0303090000      0.5420920000
H                 -2.8538730000     -2.3070850000      0.3588720000
H                  0.5347820000     -2.9560320000      0.0292710000
$end
$rem
MAX_SCF_CYCLES=200
BASIS  =  6-311++G(d,p)
GUI  =  2
JOB_TYPE  =  SP
METHOD  =  B3LYP
SOLVENT_METHOD = PCM
$end
$pcm
theory = CPCM
$end
$solvent
dielectric 37.219
opticaldielectric 1.43
$end

--------------------------------------------------------------

             Standard Nuclear Orientation (Angstroms)
    I     Atom           X                Y                Z
 ----------------------------------------------------------------
    1      O       4.4054980000    -1.5254760000    -0.4015740000
    2      C       3.2761540000    -0.7248500000    -0.3075880000
    3      C       3.3549460000     0.6743530000    -0.3528500000
    4      C       2.2025030000     1.4409130000    -0.2546180000
    5      O       2.3404560000     2.8306710000    -0.3038490000
    6      C       0.9158350000     0.8437100000    -0.1082140000
    7      C      -0.3126400000     1.6399480000    -0.0034200000
    8      O      -0.3361990000     2.9041070000    -0.0345350000
    9      C      -1.5526830000     0.8759810000     0.1437170000
   10      C      -2.7740760000     1.5672710000     0.2512500000
   11      C      -3.9908240000     0.9188900000     0.3927740000
   12      C      -4.0103520000    -0.5050340000     0.4313470000
   13      C      -2.8428030000    -1.2228860000     0.3299400000
   14      C      -1.5712350000    -0.5727730000     0.1828340000
   15      C      -0.3799420000    -1.2871070000     0.0791390000
   16      O      -0.4249870000    -2.6727260000     0.1194760000
   17      C       0.8604260000    -0.6143630000    -0.0650480000
   18      C       2.0690800000    -1.4004800000    -0.1675560000
   19      O       2.1078380000    -2.7311270000    -0.1367750000
   20      H       3.9831490000    -2.4124780000    -0.3356910000
   21      H       4.3274690000     1.1534760000    -0.4659160000
   22      H       3.2875190000     2.9845780000    -0.3854190000
   23      H      -2.7146210000     2.6510720000     0.2171200000
   24      H      -4.9165170000     1.4843580000     0.4732170000
   25      H      -4.9585030000    -1.0303090000     0.5420920000
   26      H      -2.8538730000    -2.3070850000     0.3588720000
   27      H       0.5347820000    -2.9560320000     0.0292710000
 ----------------------------------------------------------------

    9    -914.9622631612      4.37e-06  Convergence criterion met
 Total energy in the final basis set =     -914.9622631612

                    Orbital Energies (a.u.)
 --------------------------------------------------------------

 Alpha MOs
 -- Occupied --
-19.1293 -19.1250 -19.0989 -19.0515 -19.0362 -10.2096 -10.2003 -10.1915
-10.1852 -10.1848 -10.1568 -10.1566 -10.1523 -10.1521 -10.1519 -10.1510
-10.1493 -10.1461 -10.1423  -1.0365  -1.0344  -1.0104  -0.9630  -0.9452
 -0.8365  -0.8141  -0.7634  -0.7326  -0.7137  -0.7003  -0.6493  -0.6183
 -0.6030  -0.5662  -0.5524  -0.5462  -0.5100  -0.4883  -0.4818  -0.4653
 -0.4465  -0.4402  -0.4207  -0.4178  -0.4125  -0.4035  -0.3927  -0.3815
 -0.3812  -0.3750  -0.3691  -0.3587  -0.3489  -0.3476  -0.3443  -0.3280
 -0.3245  -0.3122  -0.3100  -0.2724  -0.2469  -0.2373  -0.2366  -0.2152
 -0.2065  -0.1770  -0.1180

          Ground-State Mulliken Net Atomic Charges

     Atom                 Charge (a.u.)
  ----------------------------------------
      1 O                    -0.372757
      2 C                    -0.427253
      3 C                     0.095571
      4 C                    -0.220975
      5 O                    -0.301519
      6 C                     0.475664
      7 C                    -0.197847
      8 O                    -0.600103
      9 C                    -0.222217
     10 C                     0.006949
     11 C                    -0.588255
     12 C                    -0.453852
     13 C                    -0.184914
     14 C                     0.186238
     15 C                     0.070686
     16 O                    -0.523008
     17 C                     0.955747
     18 C                    -0.827421
     19 O                    -0.728612
     20 H                     0.302089
     21 H                     0.186367
     22 H                     0.302325
     23 H                     0.146333
     24 H                     0.174854
     25 H                     0.178684
     26 H                     0.156418
     27 H                     0.410810
  ----------------------------------------
  Sum of atomic charges =    -2.000000

                    Cartesian Multipole Moments
 -----------------------------------------------------------------
    Charge (ESU x 10^10)
                -9.6064
    Dipole Moment (Debye)
         X      -3.6601      Y       0.4436      Z       0.3244
       Tot       3.7011
    Quadrupole Moments (Debye-Ang)
        XX    -151.8917     XY      20.5397     YY    -171.8088
        XZ       2.7062     YZ      -0.6662     ZZ    -121.4351

 Total job time:  54.84s(wall), 364.31s(cpu)
        *  Thank you very much for using Q-Chem.  Have a nice day.  *
