 Gaussian 16, Revision A.03,
 Gaussian 16:  ES64L-G16RevA.03 25-Dec-2016

 ----------------------------------------------------------------
 #P UB3LYP/6-311++G(d,p) SCRF=(PCM,Solvent=n,n-DiMethylFormamide)
 ----------------------------------------------------------------

 -------
 Reduced
 -------
 Symbolic Z-matrix:
 Charge = -2 Multiplicity = 1

                         Standard orientation:
 ---------------------------------------------------------------------
 Center     Atomic      Atomic             Coordinates (Angstroms)
 Number     Number       Type             X           Y           Z
 ---------------------------------------------------------------------
      1          8           0        4.334491   -0.978314    0.001033
      2          6           0        3.108323   -0.328880    0.000342
      3          6           0        3.011628    1.069932   -0.000837
      4          6           0        1.766603    1.682550   -0.000523
      5          8           0        1.729894    3.079523    0.000116
      6          6           0        0.558746    0.924473   -0.000856
      7          6           0       -0.765756    1.556787   -0.000976
      8          8           0       -0.947585    2.808409   -0.001936
      9          6           0       -1.906347    0.639153   -0.000117
     10          6           0       -3.210710    1.168193    0.000519
     11          6           0       -4.342538    0.368276    0.001121
     12          6           0       -4.183538   -1.047403    0.001032
     13          6           0       -2.929520   -1.609724    0.000341
     14          6           0       -1.743262   -0.801044   -0.000202
     15          6           0       -0.466036   -1.356830   -0.000667
     16          8           0       -0.337290   -2.737779   -0.000611
     17          6           0        0.686250   -0.529712   -0.000895
     18          6           0        1.989672   -1.154550   -0.000255
     19          8           0        2.195035   -2.470186    0.000213
     20          1           0        4.024607   -1.912907    0.000955
     21          1           0        3.921272    1.670507   -0.002269
     22          1           0        2.652915    3.353279    0.019093
     23          1           0       -3.287254    2.251459    0.000370
     24          1           0       -5.336321    0.810461    0.001616
     25          1           0       -5.063001   -1.690609    0.001448
     26          1           0       -2.804663   -2.687155    0.000224
     27          1           0        0.655006   -2.895590   -0.000129
 ---------------------------------------------------------------------

 SCF Done:  E(UB3LYP) =  -914.953759476     A.U. after   16 cycles

 The electronic state is 1-A.
 Alpha  occ. eigenvalues --  -19.12913 -19.12288 -19.09501 -19.04839 -19.03185
 Alpha  occ. eigenvalues --  -10.20802 -10.19712 -10.18946 -10.18271 -10.18175
 Alpha  occ. eigenvalues --  -10.15627 -10.15406 -10.15109 -10.15080 -10.14967
 Alpha  occ. eigenvalues --  -10.14851 -10.14836 -10.14561 -10.14004  -1.03556
 Alpha  occ. eigenvalues --   -1.03291  -1.00658  -0.95845  -0.94185  -0.83452
 Alpha  occ. eigenvalues --   -0.81220  -0.76167  -0.73077  -0.71207  -0.69810
 Alpha  occ. eigenvalues --   -0.64722  -0.61683  -0.60100  -0.56485  -0.55033
 Alpha  occ. eigenvalues --   -0.54482  -0.50840  -0.48613  -0.47986  -0.46370
 Alpha  occ. eigenvalues --   -0.44496  -0.43837  -0.41869  -0.41599  -0.41000
 Alpha  occ. eigenvalues --   -0.40177  -0.39040  -0.37882  -0.37841  -0.37293
 Alpha  occ. eigenvalues --   -0.36571  -0.35725  -0.34646  -0.34442  -0.34196
 Alpha  occ. eigenvalues --   -0.32540  -0.32258  -0.31008  -0.30675  -0.26948
 Alpha  occ. eigenvalues --   -0.24478  -0.23445  -0.23386  -0.21332  -0.20185
 Alpha  occ. eigenvalues --   -0.17395  -0.11519
 Alpha virt. eigenvalues --   -0.02378   0.00010   0.00203   0.00629   0.01063
 Alpha virt. eigenvalues --    0.02238   0.02609   0.03572   0.04358   0.04540
 Alpha virt. eigenvalues --    0.04954   0.05211   0.06586   0.06706   0.06741

  Beta  occ. eigenvalues --  -19.12913 -19.12288 -19.09501 -19.04839 -19.03185
  Beta  occ. eigenvalues --  -10.20802 -10.19712 -10.18946 -10.18271 -10.18175
  Beta  occ. eigenvalues --  -10.15627 -10.15406 -10.15109 -10.15080 -10.14967
  Beta  occ. eigenvalues --  -10.14851 -10.14836 -10.14561 -10.14004  -1.03556
  Beta  occ. eigenvalues --   -1.03291  -1.00658  -0.95845  -0.94185  -0.83452
  Beta  occ. eigenvalues --   -0.81220  -0.76167  -0.73077  -0.71207  -0.69810
  Beta  occ. eigenvalues --   -0.64722  -0.61683  -0.60100  -0.56485  -0.55033
  Beta  occ. eigenvalues --   -0.54482  -0.50840  -0.48613  -0.47986  -0.46370
  Beta  occ. eigenvalues --   -0.44496  -0.43837  -0.41869  -0.41599  -0.41000
  Beta  occ. eigenvalues --   -0.40177  -0.39040  -0.37882  -0.37841  -0.37293
  Beta  occ. eigenvalues --   -0.36571  -0.35725  -0.34646  -0.34442  -0.34196
  Beta  occ. eigenvalues --   -0.32540  -0.32258  -0.31008  -0.30675  -0.26948
  Beta  occ. eigenvalues --   -0.24478  -0.23445  -0.23386  -0.21332  -0.20185
  Beta  occ. eigenvalues --   -0.17395  -0.11519
  Beta virt. eigenvalues --   -0.02378   0.00010   0.00203   0.00629   0.01063
  Beta virt. eigenvalues --    0.02238   0.02609   0.03572   0.04358   0.04540
  Beta virt. eigenvalues --    0.04954   0.05211   0.06586   0.06706   0.06741

 Mulliken charges and spin densities:
               1          2
     1  O   -0.361974   0.000000
     2  C   -0.430939   0.000000
     3  C    0.104561  -0.000000
     4  C   -0.198202  -0.000000
     5  O   -0.277555  -0.000000
     6  C    0.488868  -0.000000
     7  C   -0.249688   0.000000
     8  O   -0.574806  -0.000000
     9  C   -0.207863   0.000000
    10  C    0.022155  -0.000000
    11  C   -0.578961  -0.000000
    12  C   -0.448909  -0.000000
    13  C   -0.165033  -0.000000
    14  C    0.200279   0.000000
    15  C    0.058346  -0.000000
    16  O   -0.513092  -0.000000
    17  C    0.954895  -0.000000
    18  C   -0.860922   0.000000
    19  O   -0.712784  -0.000000
    20  H    0.290858  -0.000000
    21  H    0.159640  -0.000000
    22  H    0.281688   0.000000
    23  H    0.143899  -0.000000
    24  H    0.158108  -0.000000
    25  H    0.161966   0.000000
    26  H    0.147082  -0.000000
    27  H    0.408381  -0.000000
 Sum of Mulliken charges =  -2.00000   0.00000

 Dipole moment (field-independent basis, Debye):
    X=             -1.2872    Y=              0.2844    Z=              0.0381  Tot=              1.3188
 Quadrupole moment (field-independent basis, Debye-Ang):
   XX=           -159.1814   YY=           -166.1561   ZZ=           -121.2586
   XY=             21.2918   XZ=              0.0851   YZ=              0.1357

 Normal termination of Gaussian 16 at Tue Jan 16 06:22:51 2024.
