 Q-Chem 5.4, Q-Chem, Inc., Pleasanton, CA (2021)
 Q-Chem 5.4.0 for Intel X86 EM64T Linux

User input:
--------------------------------------------------------------
$molecule
-2 1
C                 -1.6185600000      2.7937480000      0.0562750000
C                 -2.8767670000      2.2346720000      0.0912690000
C                 -3.0034250000      0.8222990000      0.0936790000
C                 -0.4458480000      2.0000940000      0.0197960000
C                 -0.5652300000      0.5479320000      0.0229940000
C                 -1.8899710000     -0.0081380000      0.0618340000
C                  0.8335870000      2.6891710000     -0.0122400000
C                  1.9711700000      1.8355850000     -0.0438700000
C                  1.8702280000      0.4214760000     -0.0342610000
C                  0.6303390000     -0.2871180000     -0.0200190000
O                  0.9123200000      3.9891300000     -0.0055070000
O                  0.5821720000     -1.5894380000     -0.0502240000
C                  3.3244010000      2.5081490000     -0.0809240000
C                  3.1224140000     -0.4251860000     -0.0612430000
C                 -2.1434360000     -1.5044470000      0.0777110000
H                 -1.4645670000      3.8685020000      0.0547040000
H                 -3.7668300000      2.8630470000      0.1173100000
H                 -3.9947890000      0.3701280000      0.1247710000
H                  3.1652910000      3.5791310000     -0.2321510000
H                  3.9689110000      2.1164570000     -0.8817170000
H                  3.8905560000      2.3809720000      0.8600510000
H                  3.8742840000     -0.0864430000      0.6658280000
H                  3.6222100000     -0.4183490000     -1.0483240000
H                  2.8401100000     -1.4589070000      0.1540820000
H                 -1.6610100000     -1.9845960000      0.9319220000
H                 -1.7099060000     -1.9956100000     -0.7956350000
H                 -3.2279360000     -1.6926620000      0.1121680000
$end
$rem
MAX_SCF_CYCLES=200
BASIS  =  6-311++G(d,p)
GUI  =  2
JOB_TYPE  =  SP
METHOD  =  B3LYP
SOLVENT_METHOD = PCM
$end
$pcm
theory = CPCM
$end
$solvent
dielectric 37.219
opticaldielectric 1.43
$end

--------------------------------------------------------------

             Standard Nuclear Orientation (Angstroms)
    I     Atom           X                Y                Z
 ----------------------------------------------------------------
    1      C      -1.6185600000     2.7937480000     0.0562750000
    2      C      -2.8767670000     2.2346720000     0.0912690000
    3      C      -3.0034250000     0.8222990000     0.0936790000
    4      C      -0.4458480000     2.0000940000     0.0197960000
    5      C      -0.5652300000     0.5479320000     0.0229940000
    6      C      -1.8899710000    -0.0081380000     0.0618340000
    7      C       0.8335870000     2.6891710000    -0.0122400000
    8      C       1.9711700000     1.8355850000    -0.0438700000
    9      C       1.8702280000     0.4214760000    -0.0342610000
   10      C       0.6303390000    -0.2871180000    -0.0200190000
   11      O       0.9123200000     3.9891300000    -0.0055070000
   12      O       0.5821720000    -1.5894380000    -0.0502240000
   13      C       3.3244010000     2.5081490000    -0.0809240000
   14      C       3.1224140000    -0.4251860000    -0.0612430000
   15      C      -2.1434360000    -1.5044470000     0.0777110000
   16      H      -1.4645670000     3.8685020000     0.0547040000
   17      H      -3.7668300000     2.8630470000     0.1173100000
   18      H      -3.9947890000     0.3701280000     0.1247710000
   19      H       3.1652910000     3.5791310000    -0.2321510000
   20      H       3.9689110000     2.1164570000    -0.8817170000
   21      H       3.8905560000     2.3809720000     0.8600510000
   22      H       3.8742840000    -0.0864430000     0.6658280000
   23      H       3.6222100000    -0.4183490000    -1.0483240000
   24      H       2.8401100000    -1.4589070000     0.1540820000
   25      H      -1.6610100000    -1.9845960000     0.9319220000
   26      H      -1.7099060000    -1.9956100000    -0.7956350000
   27      H      -3.2279360000    -1.6926620000     0.1121680000
 ----------------------------------------------------------------

    9    -653.4791748650      8.30e-06  Convergence criterion met
 Total energy in the final basis set =     -653.4791748650

                    Orbital Energies (a.u.)
 --------------------------------------------------------------

 Alpha MOs
 -- Occupied --
-19.0117 -19.0069 -10.1644 -10.1611 -10.1557 -10.1433 -10.1388 -10.1375
-10.1369 -10.1367 -10.1324 -10.1314 -10.1311 -10.1222 -10.1204  -0.9252
 -0.9208  -0.8208  -0.7745  -0.7411  -0.7197  -0.6933  -0.6596  -0.6356
 -0.6160  -0.5554  -0.5499  -0.5020  -0.4718  -0.4536  -0.4322  -0.4175
 -0.4029  -0.3913  -0.3908  -0.3755  -0.3688  -0.3657  -0.3575  -0.3479
 -0.3464  -0.3456  -0.3447  -0.3197  -0.3060  -0.3013  -0.3001  -0.2947
 -0.2200  -0.2157  -0.1970  -0.1949  -0.1834  -0.1067

          Ground-State Mulliken Net Atomic Charges

     Atom                 Charge (a.u.)
  ----------------------------------------
      1 C                    -0.204652
      2 C                    -0.427274
      3 C                    -0.568774
      4 C                     0.458160
      5 C                     0.815625
      6 C                     0.562577
      7 C                    -1.033947
      8 C                     0.443127
      9 C                     0.750937
     10 C                    -1.644628
     11 O                    -0.731122
     12 O                    -0.679458
     13 C                    -0.542615
     14 C                    -0.462341
     15 C                    -0.476228
     16 H                     0.139002
     17 H                     0.177206
     18 H                     0.114981
     19 H                     0.166577
     20 H                     0.134408
     21 H                     0.141810
     22 H                     0.131553
     23 H                     0.143414
     24 H                     0.164649
     25 H                     0.144585
     26 H                     0.145627
     27 H                     0.136803
  ----------------------------------------
  Sum of atomic charges =    -2.000000

                    Cartesian Multipole Moments
 -----------------------------------------------------------------
    Charge (ESU x 10^10)
                -9.6064
    Dipole Moment (Debye)
         X      -4.4185      Y     -12.5232      Z       0.1478
       Tot      13.2806
    Quadrupole Moments (Debye-Ang)
        XX    -113.0674     XY      -7.8967     YY    -174.9911
        XZ       0.3380     YZ      -0.3440     ZZ    -100.7178

 Total job time:  51.68s(wall), 292.71s(cpu)
        *  Thank you very much for using Q-Chem.  Have a nice day.  *
