 Q-Chem 5.4, Q-Chem, Inc., Pleasanton, CA (2021)
 Q-Chem 5.4.0 for Intel X86 EM64T Linux

User input:
--------------------------------------------------------------
$molecule
-1 2
C                  3.7362650000      0.0881790000     -0.2305650000
C                  2.7733300000      0.1299170000      0.9716410000
C                  1.3211200000      0.2744930000      0.5819990000
C                  0.5925010000     -0.9628150000      0.3416400000
O                  1.1718790000     -2.0677630000      0.4631980000
C                 -0.8272780000     -0.8419560000     -0.0449610000
C                 -1.6517450000     -1.9641330000     -0.2940510000
O                 -1.1960880000     -3.2526920000     -0.1894150000
C                 -2.9846040000     -1.7804510000     -0.6609050000
O                 -3.7556300000     -2.9100470000     -0.8948280000
C                 -3.5327700000     -0.5090730000     -0.7906730000
O                 -4.8600580000     -0.3954660000     -1.1575750000
C                 -2.7569390000      0.6122360000     -0.5541380000
C                 -1.4017740000      0.4624030000     -0.1792000000
C                 -0.6426870000      1.6758520000      0.0571060000
C                  0.7266080000      1.5158010000      0.4358940000
O                  1.4156990000      2.6907960000      0.6436070000
O                 -1.1899720000      2.8365050000     -0.0740160000
O                 -3.3515680000      1.8253190000     -0.6967070000
H                  3.4819740000     -0.7578120000     -0.8725920000
H                  3.6706300000      1.0000290000     -0.8329320000
H                  4.7761330000     -0.0305190000      0.0969600000
H                  2.8703180000     -0.8081830000      1.5230650000
H                  3.0832280000      0.9284730000      1.6639750000
H                 -1.9424110000     -3.8257040000     -0.4065680000
H                  2.3032450000      2.4618900000      0.9362330000
H                 -2.5826900000      2.4826130000     -0.4697170000
H                 -4.6409510000     -2.6124920000     -1.1356000000
H                 -5.0415990000      0.5554590000     -1.1900020000
$end
$rem
MAX_SCF_CYCLES=200
BASIS  =  6-311++G(d,p)
GUI  =  2
JOB_TYPE  =  SP
METHOD  =  B3LYP
SOLVENT_METHOD = PCM
$end
$pcm
theory = CPCM
$end
$solvent
dielectric 37.219
opticaldielectric 1.43
$end

--------------------------------------------------------------

             Standard Nuclear Orientation (Angstroms)
    I     Atom           X                Y                Z
 ----------------------------------------------------------------
    1      C       3.7362650000     0.0881790000    -0.2305650000
    2      C       2.7733300000     0.1299170000     0.9716410000
    3      C       1.3211200000     0.2744930000     0.5819990000
    4      C       0.5925010000    -0.9628150000     0.3416400000
    5      O       1.1718790000    -2.0677630000     0.4631980000
    6      C      -0.8272780000    -0.8419560000    -0.0449610000
    7      C      -1.6517450000    -1.9641330000    -0.2940510000
    8      O      -1.1960880000    -3.2526920000    -0.1894150000
    9      C      -2.9846040000    -1.7804510000    -0.6609050000
   10      O      -3.7556300000    -2.9100470000    -0.8948280000
   11      C      -3.5327700000    -0.5090730000    -0.7906730000
   12      O      -4.8600580000    -0.3954660000    -1.1575750000
   13      C      -2.7569390000     0.6122360000    -0.5541380000
   14      C      -1.4017740000     0.4624030000    -0.1792000000
   15      C      -0.6426870000     1.6758520000     0.0571060000
   16      C       0.7266080000     1.5158010000     0.4358940000
   17      O       1.4156990000     2.6907960000     0.6436070000
   18      O      -1.1899720000     2.8365050000    -0.0740160000
   19      O      -3.3515680000     1.8253190000    -0.6967070000
   20      H       3.4819740000    -0.7578120000    -0.8725920000
   21      H       3.6706300000     1.0000290000    -0.8329320000
   22      H       4.7761330000    -0.0305190000     0.0969600000
   23      H       2.8703180000    -0.8081830000     1.5230650000
   24      H       3.0832280000     0.9284730000     1.6639750000
   25      H      -1.9424110000    -3.8257040000    -0.4065680000
   26      H       2.3032450000     2.4618900000     0.9362330000
   27      H      -2.5826900000     2.4826130000    -0.4697170000
   28      H      -4.6409510000    -2.6124920000    -1.1356000000
   29      H      -5.0415990000     0.5554590000    -1.1900020000
 ----------------------------------------------------------------

    8    -990.3210894773      9.50e-06  Convergence criterion met
 Total energy in the final basis set =     -990.3210894773

                    Orbital Energies (a.u.)
 --------------------------------------------------------------

 Alpha MOs
 -- Occupied --
-19.1654 -19.1632 -19.1519 -19.1510 -19.1326 -19.0929 -19.0712 -10.2377
-10.2370 -10.2339 -10.2317 -10.2294 -10.2282 -10.2264 -10.1789 -10.1784
-10.1666 -10.1660 -10.1544  -1.0887  -1.0717  -1.0630  -1.0530  -1.0439
 -1.0014  -1.0001  -0.8581  -0.8109  -0.7705  -0.7436  -0.7277  -0.6837
 -0.6513  -0.6415  -0.6125  -0.5824  -0.5799  -0.5497  -0.5440  -0.5193
 -0.5051  -0.4864  -0.4669  -0.4643  -0.4600  -0.4406  -0.4347  -0.4216
 -0.4175  -0.4125  -0.4101  -0.4028  -0.3885  -0.3869  -0.3853  -0.3829
 -0.3777  -0.3650  -0.3644  -0.3610  -0.3515  -0.3436  -0.3357  -0.3026
 -0.2621  -0.2511  -0.2360  -0.2217  -0.2167  -0.1472

 Beta MOs
 -- Occupied --
-19.1651 -19.1631 -19.1515 -19.1505 -19.1319 -19.0879 -19.0665 -10.2371
-10.2362 -10.2337 -10.2307 -10.2269 -10.2262 -10.2254 -10.1792 -10.1784
-10.1666 -10.1647 -10.1543  -1.0879  -1.0708  -1.0614  -1.0519  -1.0422
 -0.9933  -0.9917  -0.8560  -0.8070  -0.7685  -0.7407  -0.7260  -0.6769
 -0.6497  -0.6401  -0.6108  -0.5801  -0.5792  -0.5481  -0.5418  -0.5185
 -0.5041  -0.4846  -0.4649  -0.4617  -0.4554  -0.4390  -0.4280  -0.4187
 -0.4120  -0.4093  -0.4063  -0.4012  -0.3865  -0.3837  -0.3835  -0.3794
 -0.3725  -0.3630  -0.3620  -0.3525  -0.3424  -0.3364  -0.3346  -0.2932
 -0.2580  -0.2347  -0.2314  -0.2167  -0.2056

          Ground-State Mulliken Net Atomic Charges

     Atom                 Charge (a.u.)    Spin (a.u.)
  --------------------------------------------------------
      1 C                    -0.603285       0.002639
      2 C                    -0.157045       0.007693
      3 C                     1.335320       0.107223
      4 C                    -0.408704       0.076260
      5 O                    -0.488550       0.180946
      6 C                     0.564153       0.022999
      7 C                    -0.247198       0.042043
      8 O                    -0.296606       0.007654
      9 C                    -0.322819       0.050591
     10 O                    -0.348381       0.008387
     11 C                    -0.259180       0.015186
     12 O                    -0.350931       0.003982
     13 C                     0.057548       0.081347
     14 C                     0.850907      -0.041582
     15 C                    -0.574954       0.195765
     16 C                    -0.872939       0.017698
     17 O                    -0.300282       0.012927
     18 O                    -0.567765       0.187106
     19 O                    -0.528663       0.021001
     20 H                     0.167340      -0.001711
     21 H                     0.153832       0.000769
     22 H                     0.144345       0.003428
     23 H                     0.194004       0.003184
     24 H                     0.142467       0.000323
     25 H                     0.314666      -0.000503
     26 H                     0.312632      -0.000824
     27 H                     0.431634      -0.003910
     28 H                     0.327852      -0.000383
     29 H                     0.330601      -0.000240
  --------------------------------------------------------
  Sum of atomic charges =    -1.000000

                    Cartesian Multipole Moments
 -----------------------------------------------------------------
    Charge (ESU x 10^10)
                -4.8032
    Dipole Moment (Debye)
         X       1.8221      Y      -0.8089      Z      -0.3326
       Tot       2.0211
    Quadrupole Moments (Debye-Ang)
        XX    -110.1746     XY      18.0358     YY    -151.4286
        XZ       2.5367     YZ       4.2194     ZZ    -113.9899

 Total job time:  59.83s(wall), 440.39s(cpu)
        *  Thank you very much for using Q-Chem.  Have a nice day.  *
