 Gaussian 16, Revision A.03,
 Gaussian 16:  ES64L-G16RevA.03 25-Dec-2016

 ----------------------------------------------------------------
 #P UB3LYP/6-311++G(d,p) SCRF=(PCM,Solvent=n,n-DiMethylFormamide)
 ----------------------------------------------------------------

 ------------------
 Quinone PCM in DMF
 ------------------
 Symbolic Z-matrix:
 Charge =  0 Multiplicity = 1

                         Standard orientation:
 ---------------------------------------------------------------------
 Center     Atomic      Atomic             Coordinates (Angstroms)
 Number     Number       Type             X           Y           Z
 ---------------------------------------------------------------------
      1          6           0       -2.034540   -2.004195   -0.023202
      2          6           0       -3.377531   -1.654085   -0.064207
      3          6           0       -3.725387   -0.302375   -0.087676
      4          6           0       -1.047738   -1.013923   -0.008205
      5          6           0       -1.414369    0.342509   -0.042516
      6          6           0       -2.765027    0.698070   -0.087683
      7          6           0        0.387880   -1.426759    0.036945
      8          6           0        1.414365   -0.342504    0.042467
      9          6           0        1.047728    1.013936    0.008231
     10          6           0       -0.387890    1.426766   -0.036972
     11          6           0        2.765016   -0.698068    0.087602
     12          6           0        2.034530    2.004198    0.023286
     13          6           0        3.377529    1.654083    0.064249
     14          8           0        0.706772   -2.601487    0.064245
     15          8           0       -0.706781    2.601493   -0.064269
     16          1           0       -1.728869   -3.042756   -0.006686
     17          1           0        4.151385    2.410776    0.093715
     18          1           0       -3.038047    1.744665   -0.134678
     19          1           0        3.037992   -1.744679    0.134535
     20          1           0        1.728876    3.042766    0.006811
     21          6           0        3.725375    0.302380    0.087648
     22         16           0       -5.472101    0.153346   -0.135316
     23          1           0       -4.151384   -2.410781   -0.093654
     24         16           0        5.472094   -0.153321    0.135330
     25          8           0        5.563598   -1.462473    0.771237
     26          8           0        6.207537    1.012645    0.614889
     27          7           0        5.855512   -0.349550   -1.496560
     28          1           0        6.109669   -1.311975   -1.694551
     29          1           0        6.579732    0.304109   -1.775997
     30          8           0       -5.563538    1.462612   -0.770986
     31          8           0       -6.207552   -1.012503   -0.615140
     32          7           0       -5.855526    0.349269    1.496507
     33          1           0       -6.579422   -0.304644    1.776136
     34          1           0       -6.109664    1.311604    1.694897
 ---------------------------------------------------------------------

 SCF Done:  E(UB3LYP) =  -1897.00610182     A.U. after   16 cycles

 The electronic state is 1-A.
 Alpha  occ. eigenvalues --  -89.09286 -89.09286 -19.14623 -19.14622 -19.14569
 Alpha  occ. eigenvalues --  -19.14569 -19.14539 -19.14538 -14.35707 -14.35707
 Alpha  occ. eigenvalues --  -10.29848 -10.29847 -10.24418 -10.24417 -10.22854
 Alpha  occ. eigenvalues --  -10.22853 -10.22800 -10.22800 -10.22322 -10.22322
 Alpha  occ. eigenvalues --  -10.22246 -10.22246 -10.21555 -10.21555  -8.15428
 Alpha  occ. eigenvalues --   -8.15428  -6.11711  -6.11711  -6.11688  -6.11688
 Alpha  occ. eigenvalues --   -6.11514  -6.11514  -1.15058  -1.15058  -1.08234
 Alpha  occ. eigenvalues --   -1.08055  -1.04302  -1.04301  -0.92783  -0.92762
 Alpha  occ. eigenvalues --   -0.91650  -0.90742  -0.84147  -0.80848  -0.80125
 Alpha  occ. eigenvalues --   -0.79836  -0.72298  -0.72101  -0.68024  -0.67888
 Alpha  occ. eigenvalues --   -0.63770  -0.63687  -0.60633  -0.58318  -0.57939
 Alpha  occ. eigenvalues --   -0.55306  -0.54843  -0.54797  -0.53374  -0.53070
 Alpha  occ. eigenvalues --   -0.52272  -0.52126  -0.50928  -0.48804  -0.47801
 Alpha  occ. eigenvalues --   -0.47418  -0.47351  -0.47124  -0.46973  -0.46802
 Alpha  occ. eigenvalues --   -0.46595  -0.44351  -0.43384  -0.42110  -0.41626
 Alpha  occ. eigenvalues --   -0.40311  -0.39403  -0.38973  -0.38548  -0.38482
 Alpha  occ. eigenvalues --   -0.35603  -0.35578  -0.34586  -0.34474  -0.34131
 Alpha  occ. eigenvalues --   -0.34130  -0.32795  -0.32740  -0.30302  -0.30237
 Alpha  occ. eigenvalues --   -0.29624  -0.29514  -0.29142  -0.29034
 Alpha virt. eigenvalues --   -0.13513  -0.09633  -0.06466  -0.05091  -0.01590
 Alpha virt. eigenvalues --   -0.01237  -0.00512   0.00516   0.00801   0.01807
 Alpha virt. eigenvalues --    0.01983   0.02123   0.02888   0.03163   0.03444

  Beta  occ. eigenvalues --  -89.09286 -89.09286 -19.14623 -19.14622 -19.14569
  Beta  occ. eigenvalues --  -19.14569 -19.14539 -19.14538 -14.35707 -14.35707
  Beta  occ. eigenvalues --  -10.29848 -10.29847 -10.24418 -10.24417 -10.22854
  Beta  occ. eigenvalues --  -10.22853 -10.22800 -10.22800 -10.22322 -10.22322
  Beta  occ. eigenvalues --  -10.22246 -10.22246 -10.21555 -10.21555  -8.15428
  Beta  occ. eigenvalues --   -8.15428  -6.11711  -6.11711  -6.11688  -6.11688
  Beta  occ. eigenvalues --   -6.11514  -6.11514  -1.15058  -1.15058  -1.08234
  Beta  occ. eigenvalues --   -1.08055  -1.04302  -1.04301  -0.92783  -0.92762
  Beta  occ. eigenvalues --   -0.91650  -0.90742  -0.84147  -0.80848  -0.80125
  Beta  occ. eigenvalues --   -0.79836  -0.72298  -0.72101  -0.68024  -0.67888
  Beta  occ. eigenvalues --   -0.63770  -0.63687  -0.60633  -0.58318  -0.57939
  Beta  occ. eigenvalues --   -0.55306  -0.54843  -0.54797  -0.53374  -0.53070
  Beta  occ. eigenvalues --   -0.52272  -0.52126  -0.50928  -0.48804  -0.47801
  Beta  occ. eigenvalues --   -0.47418  -0.47351  -0.47124  -0.46973  -0.46802
  Beta  occ. eigenvalues --   -0.46595  -0.44351  -0.43384  -0.42110  -0.41626
  Beta  occ. eigenvalues --   -0.40311  -0.39403  -0.38973  -0.38548  -0.38482
  Beta  occ. eigenvalues --   -0.35603  -0.35578  -0.34586  -0.34474  -0.34131
  Beta  occ. eigenvalues --   -0.34130  -0.32795  -0.32740  -0.30302  -0.30237
  Beta  occ. eigenvalues --   -0.29624  -0.29514  -0.29142  -0.29034
  Beta virt. eigenvalues --   -0.13513  -0.09633  -0.06466  -0.05091  -0.01590
  Beta virt. eigenvalues --   -0.01237  -0.00512   0.00516   0.00801   0.01807
  Beta virt. eigenvalues --    0.01983   0.02123   0.02888   0.03163   0.03444

 Mulliken charges and spin densities:
               1          2
     1  C    0.053678   0.000000
     2  C   -0.385525  -0.000000
     3  C   -0.357929   0.000000
     4  C    0.543989   0.000000
     5  C    0.201851  -0.000000
     6  C    0.001229  -0.000000
     7  C   -0.692236  -0.000000
     8  C    0.201773   0.000000
     9  C    0.543902   0.000000
    10  C   -0.692267  -0.000000
    11  C    0.001156  -0.000000
    12  C    0.053810  -0.000000
    13  C   -0.385429  -0.000000
    14  O   -0.231870   0.000000
    15  O   -0.231868  -0.000000
    16  H    0.197072   0.000000
    17  H    0.268706  -0.000000
    18  H    0.244381   0.000000
    19  H    0.244375  -0.000000
    20  H    0.197078   0.000000
    21  C   -0.358044   0.000000
    22  S    0.420474  -0.000000
    23  H    0.268695   0.000000
    24  S    0.420577   0.000000
    25  O   -0.269940   0.000000
    26  O   -0.268684   0.000000
    27  N   -0.400723  -0.000000
    28  H    0.336054   0.000000
    29  H    0.339516   0.000000
    30  O   -0.269957  -0.000000
    31  O   -0.268674   0.000000
    32  N   -0.400793  -0.000000
    33  H    0.339534   0.000000
    34  H    0.336090   0.000000
 Sum of Mulliken charges =  -0.00000  -0.00000

 Dipole moment (field-independent basis, Debye):
    X=             -0.0003    Y=             -0.0010    Z=              0.0015  Tot=              0.0019
 Quadrupole moment (field-independent basis, Debye-Ang):
   XX=           -159.8616   YY=           -162.3537   ZZ=           -150.6778
   XY=              8.8310   XZ=            -52.5660   YZ=              5.4593

 Normal termination of Gaussian 16 at Tue Jan 16 05:25:13 2024.
