 Gaussian 16, Revision A.03,
 Gaussian 16:  ES64L-G16RevA.03 25-Dec-2016

 --------------------------------------
 #P UB3LYP/6-311++G(d,p) nosym opt freq
 --------------------------------------

 -------
 Reduced
 -------
 Symbolic Z-matrix:
 Charge = -2 Multiplicity = 1

 SCF Done:  E(UB3LYP) =  -5891.31839537     A.U. after   52 cycles
 SCF Done:  E(UB3LYP) =  -5891.35926543     A.U. after   28 cycles
 SCF Done:  E(UB3LYP) =  -5891.38155147     A.U. after   21 cycles
 SCF Done:  E(UB3LYP) =  -5891.39822918     A.U. after   18 cycles
 SCF Done:  E(UB3LYP) =  -5891.40363680     A.U. after   19 cycles
 SCF Done:  E(UB3LYP) =  -5891.40612705     A.U. after   18 cycles
 SCF Done:  E(UB3LYP) =  -5891.40698040     A.U. after   18 cycles
 SCF Done:  E(UB3LYP) =  -5891.40761591     A.U. after   18 cycles
 SCF Done:  E(UB3LYP) =  -5891.40788509     A.U. after   17 cycles
 SCF Done:  E(UB3LYP) =  -5891.40803303     A.U. after   17 cycles
 SCF Done:  E(UB3LYP) =  -5891.40796708     A.U. after   22 cycles
 SCF Done:  E(UB3LYP) =  -5891.40842851     A.U. after   18 cycles
 SCF Done:  E(UB3LYP) =  -5891.40850636     A.U. after   17 cycles
 SCF Done:  E(UB3LYP) =  -5891.40854291     A.U. after   15 cycles
 SCF Done:  E(UB3LYP) =  -5891.40856007     A.U. after   16 cycles
 SCF Done:  E(UB3LYP) =  -5891.40857319     A.U. after   17 cycles
 SCF Done:  E(UB3LYP) =  -5891.40857453     A.U. after   15 cycles
 SCF Done:  E(UB3LYP) =  -5891.40857520     A.U. after   15 cycles
 SCF Done:  E(UB3LYP) =  -5891.40857552     A.U. after   14 cycles
 Optimization completed.
    -- Stationary point found.
 Normal termination of Gaussian 16 at Thu Dec 21 10:42:01 2023.

 ----------------------------------------------------------------------
 #P Geom=AllCheck Guess=TCheck SCRF=Check GenChk UB3LYP/6-311++G(d,p) F
 req
 ----------------------------------------------------------------------

 Structure from the checkpoint file:  "159-an.chk"
 -------
 Reduced
 -------
 Charge = -2 Multiplicity = 1

                          Input orientation:
 ---------------------------------------------------------------------
 Center     Atomic      Atomic             Coordinates (Angstroms)
 Number     Number       Type             X           Y           Z
 ---------------------------------------------------------------------
      1          7           0       -2.804016    1.420572    1.335869
      2          6           0       -2.484530    0.491931    0.365350
      3          6           0       -3.437014   -0.199944   -0.357980
      4         35           0       -5.345577    0.126289   -0.009036
      5          6           0       -3.125595   -1.220666   -1.287156
      6          6           0       -1.813230   -1.584393   -1.426606
      7         35           0       -1.543077   -2.885168   -2.883569
      8          6           0       -0.731017   -0.971105   -0.722961
      9          6           0        0.634942   -1.442464   -0.821949
     10          8           0        0.978774   -2.528343   -1.392378
     11          6           0        1.634401   -0.564006   -0.228743
     12          6           0        3.003403   -0.892623   -0.376435
     13          6           0        4.007650   -0.110620    0.158802
     14          6           0        3.667537    1.057647    0.892364
     15          6           0        2.342155    1.401542    1.055351
     16          6           0        1.290721    0.619119    0.507364
     17          6           0       -0.076256    1.021564    0.722396
     18          8           0       -0.332966    2.086938    1.439604
     19          6           0       -1.079920    0.191260    0.117563
     20          1           0       -1.960640    1.992909    1.565443
     21          1           0       -3.702487    1.866774    1.227167
     22          1           0       -3.897570   -1.656260   -1.905286
     23          1           0        3.222778   -1.796000   -0.936521
     24          1           0        5.051804   -0.385737    0.021634
     25          1           0        4.451167    1.676796    1.325974
     26          1           0        2.048564    2.283987    1.613735
 ---------------------------------------------------------------------

 SCF Done:  E(UB3LYP) =  -5891.40857552     A.U. after    2 cycles

 Alpha  occ. eigenvalues -- -482.61872-482.58562 -62.27152 -62.23830 -56.09139
 Alpha  occ. eigenvalues --  -56.08823 -56.08818 -56.05848 -56.05500 -56.05468
 Alpha  occ. eigenvalues --  -18.79897 -18.78963 -14.06932  -9.98667  -9.98387
 Alpha  occ. eigenvalues --   -9.98039  -9.95690  -9.95622  -9.94484  -9.94319
 Alpha  occ. eigenvalues --   -9.94142  -9.93290  -9.93245  -9.92945  -9.92768
 Alpha  occ. eigenvalues --   -9.92011  -9.91839  -8.48106  -8.44778  -6.31089
 Alpha  occ. eigenvalues --   -6.30039  -6.30015  -6.27854  -6.26698  -6.26599
 Alpha  occ. eigenvalues --   -2.42209  -2.41912  -2.41890  -2.41059  -2.41057
 Alpha  occ. eigenvalues --   -2.38955  -2.38646  -2.38571  -2.37650  -2.37648
 Alpha  occ. eigenvalues --   -0.72041  -0.71375  -0.67788  -0.61761  -0.61020
 Alpha  occ. eigenvalues --   -0.58158  -0.54935  -0.52497  -0.50828  -0.48989
 Alpha  occ. eigenvalues --   -0.47173  -0.42022  -0.39176  -0.38015  -0.33860
 Alpha  occ. eigenvalues --   -0.31240  -0.30935  -0.27603  -0.26763  -0.23709
 Alpha  occ. eigenvalues --   -0.22138  -0.21537  -0.20579  -0.19986  -0.18386
 Alpha  occ. eigenvalues --   -0.17282  -0.16493  -0.15228  -0.14631  -0.14327
 Alpha  occ. eigenvalues --   -0.13380  -0.12204  -0.11407  -0.10762  -0.10354
 Alpha  occ. eigenvalues --   -0.08952  -0.08650  -0.08240  -0.07767  -0.05024
 Alpha  occ. eigenvalues --   -0.04556  -0.01186  -0.00103   0.00186   0.01597
 Alpha  occ. eigenvalues --    0.03097   0.03850   0.11655
 Alpha virt. eigenvalues --    0.15514   0.15916   0.17340   0.18028   0.18482
 Alpha virt. eigenvalues --    0.18982   0.19388   0.20144   0.20509   0.21195
 Alpha virt. eigenvalues --    0.21645   0.22579   0.22680   0.23333   0.23435

  Beta  occ. eigenvalues -- -482.61872-482.58562 -62.27152 -62.23830 -56.09139
  Beta  occ. eigenvalues --  -56.08823 -56.08818 -56.05848 -56.05500 -56.05468
  Beta  occ. eigenvalues --  -18.79897 -18.78963 -14.06932  -9.98667  -9.98387
  Beta  occ. eigenvalues --   -9.98039  -9.95690  -9.95622  -9.94484  -9.94319
  Beta  occ. eigenvalues --   -9.94142  -9.93290  -9.93245  -9.92945  -9.92768
  Beta  occ. eigenvalues --   -9.92011  -9.91839  -8.48106  -8.44778  -6.31089
  Beta  occ. eigenvalues --   -6.30039  -6.30015  -6.27854  -6.26698  -6.26599
  Beta  occ. eigenvalues --   -2.42209  -2.41912  -2.41890  -2.41059  -2.41057
  Beta  occ. eigenvalues --   -2.38955  -2.38646  -2.38571  -2.37650  -2.37648
  Beta  occ. eigenvalues --   -0.72041  -0.71375  -0.67788  -0.61761  -0.61020
  Beta  occ. eigenvalues --   -0.58158  -0.54935  -0.52497  -0.50828  -0.48989
  Beta  occ. eigenvalues --   -0.47173  -0.42022  -0.39176  -0.38015  -0.33860
  Beta  occ. eigenvalues --   -0.31240  -0.30935  -0.27603  -0.26763  -0.23709
  Beta  occ. eigenvalues --   -0.22138  -0.21537  -0.20579  -0.19986  -0.18386
  Beta  occ. eigenvalues --   -0.17282  -0.16493  -0.15228  -0.14631  -0.14327
  Beta  occ. eigenvalues --   -0.13380  -0.12204  -0.11407  -0.10762  -0.10354
  Beta  occ. eigenvalues --   -0.08952  -0.08650  -0.08240  -0.07767  -0.05024
  Beta  occ. eigenvalues --   -0.04556  -0.01186  -0.00103   0.00186   0.01597
  Beta  occ. eigenvalues --    0.03097   0.03850   0.11655
  Beta virt. eigenvalues --    0.15514   0.15916   0.17340   0.18028   0.18482
  Beta virt. eigenvalues --    0.18982   0.19388   0.20144   0.20509   0.21195
  Beta virt. eigenvalues --    0.21645   0.22579   0.22680   0.23333   0.23435

 Mulliken charges and spin densities:
               1          2
     1  N   -0.290139  -0.000000
     2  C   -0.924724   0.000000
     3  C    0.408567   0.000000
     4  Br  -0.399336   0.000000
     5  C   -0.143445   0.000000
     6  C    0.183034  -0.000000
     7  Br  -0.342384  -0.000000
     8  C    0.697543   0.000000
     9  C   -1.354016  -0.000000
    10  O   -0.393650  -0.000000
    11  C    0.150352  -0.000000
    12  C    0.033850  -0.000000
    13  C   -0.367980  -0.000000
    14  C   -0.523213   0.000000
    15  C    0.158572   0.000000
    16  C    0.355885   0.000000
    17  C   -0.566853  -0.000000
    18  O   -0.496511   0.000000
    19  C    0.638760  -0.000000
    20  H    0.322299   0.000000
    21  H    0.187161  -0.000000
    22  H    0.227811  -0.000000
    23  H    0.142797  -0.000000
    24  H    0.078574  -0.000000
    25  H    0.079083   0.000000
    26  H    0.137963  -0.000000
 Sum of Mulliken charges =  -2.00000  -0.00000

 Dipole moment (field-independent basis, Debye):
    X=              4.3026    Y=              4.6783    Z=              2.6406  Tot=              6.8827
 Quadrupole moment (field-independent basis, Debye-Ang):
   XX=           -215.5146   YY=           -184.0137   ZZ=           -171.3893
   XY=             -3.1731   XZ=             -4.0178   YZ=            -26.2784

  Exact polarizability: 561.199  21.790 251.551  21.328  86.947 222.725
 Approx polarizability: 895.757  23.915 451.359  47.621 168.277 364.006

                      1                      2                      3
                      A                      A                      A
 Frequencies --     30.0979                40.2562                91.9691
 Red. masses --     11.6607                 8.7488                 5.9035
 Frc consts  --      0.0062                 0.0084                 0.0294
 IR Inten    --      1.4582                 4.4705                 3.6315

                      4                      5                      6
                      A                      A                      A
 Frequencies --    100.7786               123.4850               130.2071
 Red. masses --      8.8616                18.1624                 8.2962
 Frc consts  --      0.0530                 0.1632                 0.0829
 IR Inten    --     16.4832                 3.0393                 2.2620

                      7                      8                      9
                      A                      A                      A
 Frequencies --    139.2307               177.5738               199.0345
 Red. masses --      6.9233                 7.6791                17.3986
 Frc consts  --      0.0791                 0.1427                 0.4061
 IR Inten    --      0.6696                 7.2112                14.8924

                     10                     11                     12
                      A                      A                      A
 Frequencies --    225.9580               261.8360               270.6998
 Red. masses --     11.6830                 8.0766                 5.0490
 Frc consts  --      0.3514                 0.3262                 0.2180
 IR Inten    --      0.3614                37.7765                 2.0359

                     13                     14                     15
                      A                      A                      A
 Frequencies --    291.0649               341.9896               378.3594
 Red. masses --      6.2079                 6.5648                 7.4171
 Frc consts  --      0.3099                 0.4524                 0.6256
 IR Inten    --     25.2102                 1.0376                 8.3594

                     16                     17                     18
                      A                      A                      A
 Frequencies --    386.5772               415.1423               429.3170
 Red. masses --      6.3992                 6.0677                 4.0035
 Frc consts  --      0.5634                 0.6161                 0.4348
 IR Inten    --      4.8501                16.6632                17.1831

                     19                     20                     21
                      A                      A                      A
 Frequencies --    447.1384               460.4975               486.5091
 Red. masses --      3.9559                 1.9053                 3.1399
 Frc consts  --      0.4660                 0.2380                 0.4379
 IR Inten    --      8.1526                78.7265                47.8086

                     22                     23                     24
                      A                      A                      A
 Frequencies --    489.8027               521.2232               571.5882
 Red. masses --      7.8128                 5.5619                 5.0502
 Frc consts  --      1.1043                 0.8903                 0.9721
 IR Inten    --      3.4836                 9.5475                19.8601

                     25                     26                     27
                      A                      A                      A
 Frequencies --    608.7224               623.2939               642.3351
 Red. masses --      6.2897                 6.1319                 7.7283
 Frc consts  --      1.3732                 1.4036                 1.8787
 IR Inten    --      3.8821                46.6444               124.9716

                     28                     29                     30
                      A                      A                      A
 Frequencies --    666.3397               700.2035               710.3189
 Red. masses --      6.0884                 2.1729                 6.2334
 Frc consts  --      1.5927                 0.6277                 1.8530
 IR Inten    --     18.0500                39.6388                57.4029

                     31                     32                     33
                      A                      A                      A
 Frequencies --    714.8913               750.2910               762.0952
 Red. masses --      4.9178                 1.4872                 2.4894
 Frc consts  --      1.4808                 0.4933                 0.8518
 IR Inten    --     24.5590               152.1758                27.5766

                     34                     35                     36
                      A                      A                      A
 Frequencies --    784.9172               799.4398               825.3188
 Red. masses --      2.2833                 6.3602                 2.4039
 Frc consts  --      0.8288                 2.3949                 0.9647
 IR Inten    --      1.6989                35.5449                 2.3426

                     37                     38                     39
                      A                      A                      A
 Frequencies --    883.1950               892.4872               930.2045
 Red. masses --      1.7717                 3.2904                 5.2369
 Frc consts  --      0.8142                 1.5442                 2.6698
 IR Inten    --     70.0791                15.9578                49.5287

                     40                     41                     42
                      A                      A                      A
 Frequencies --    960.2757               967.9704              1008.7627
 Red. masses --      1.2611                 1.3308                 3.8679
 Frc consts  --      0.6852                 0.7347                 2.3190
 IR Inten    --      1.2584                 2.2591                13.0332

                     43                     44                     45
                      A                      A                      A
 Frequencies --   1021.4998              1085.0213              1109.7396
 Red. masses --      2.1779                 3.2780                 2.1497
 Frc consts  --      1.3389                 2.2737                 1.5598
 IR Inten    --    123.3367               137.5346                31.7739

                     46                     47                     48
                      A                      A                      A
 Frequencies --   1123.0235              1169.6431              1192.8356
 Red. masses --      1.4814                 2.4554                 2.0111
 Frc consts  --      1.1008                 1.9791                 1.6859
 IR Inten    --    189.0493                 4.6583               140.5924

                     49                     50                     51
                      A                      A                      A
 Frequencies --   1207.2040              1236.4547              1252.1336
 Red. masses --      2.5892                 3.1041                 3.9367
 Frc consts  --      2.2232                 2.7961                 3.6365
 IR Inten    --    220.7422               238.6171                68.9237

                     52                     53                     54
                      A                      A                      A
 Frequencies --   1266.8133              1333.3111              1357.0825
 Red. masses --      2.7424                 2.1298                 8.3433
 Frc consts  --      2.5930                 2.2307                 9.0532
 IR Inten    --      4.3460                79.0117                99.0413

                     55                     56                     57
                      A                      A                      A
 Frequencies --   1376.2489              1386.7286              1422.4373
 Red. masses --      3.0768                 2.7025                 5.8926
 Frc consts  --      3.4336                 3.0619                 7.0247
 IR Inten    --    313.8656                48.7235               135.9683

                     58                     59                     60
                      A                      A                      A
 Frequencies --   1463.0045              1470.1681              1498.9917
 Red. masses --      2.9482                 4.1938                 5.9048
 Frc consts  --      3.7179                 5.3406                 7.8172
 IR Inten    --     72.0311                61.2606               452.5938

                     61                     62                     63
                      A                      A                      A
 Frequencies --   1523.9677              1548.0387              1582.1190
 Red. masses --      5.9773                 5.7639                 2.2393
 Frc consts  --      8.1792                 8.1382                 3.3025
 IR Inten    --      8.8597               296.0352                79.7574

                     64                     65                     66
                      A                      A                      A
 Frequencies --   1592.0433              1599.7999              2981.3520
 Red. masses --      2.6108                 5.0205                 1.0776
 Frc consts  --      3.8988                 7.5706                 5.6434
 IR Inten    --     57.7709               106.6685               155.8105

                     67                     68                     69
                      A                      A                      A
 Frequencies --   3094.4608              3118.3381              3163.6999
 Red. masses --      1.0830                 1.0909                 1.0906
 Frc consts  --      6.1098                 6.2501                 6.4314
 IR Inten    --     40.4303               138.6483                34.1044

                     70                     71                     72
                      A                      A                      A
 Frequencies --   3169.8286              3199.6850              3606.1423
 Red. masses --      1.0909                 1.0900                 1.0784
 Frc consts  --      6.4581                 6.5748                 8.2628
 IR Inten    --     45.8099                 9.7090                 8.6618

 - Thermochemistry -
 -------------------
 Temperature   298.150 Kelvin.  Pressure   1.00000 Atm.
 Atom     1 has atomic number  7 and mass  14.00307

 Molecular mass:   378.88435 amu.
 Principal axes and moments of inertia in atomic units:
                           1         2         3
     Eigenvalues --  5772.44104********************
           X            0.99787  -0.05679  -0.03224
           Y            0.02097   0.74614  -0.66546
           Z            0.06184   0.66336   0.74574
 This molecule is an asymmetric top.
 Rotational symmetry number  1.
 Warning -- assumption of classical behavior for rotation
           may cause significant error
 Rotational temperatures (Kelvin)      0.01500     0.00823     0.00535
 Rotational constants (GHZ):           0.31265     0.17151     0.11148
 Zero-point vibrational energy     444970.2 (Joules/Mol)
                                  106.35044 (Kcal/Mol)
 Warning -- explicit consideration of  25 degrees of freedom as
           vibrations may cause significant error
 Vibrational temperatures:     43.30    57.92   132.32   145.00   177.67
          (Kelvin)            187.34   200.32   255.49   286.37   325.10
                              376.72   389.48   418.78   492.05   544.37
                              556.20   597.30   617.69   643.33   662.55
                              699.98   704.72   749.92   822.39   875.82
                              896.78   924.18   958.71  1007.44  1021.99
                             1028.57  1079.50  1096.49  1129.32  1150.22
                             1187.45  1270.72  1284.09  1338.36  1381.62
                             1392.69  1451.38  1469.71  1561.10  1596.67
                             1615.78  1682.86  1716.22  1736.90  1778.98
                             1801.54  1822.66  1918.34  1952.54  1980.12
                             1995.19  2046.57  2104.94  2115.24  2156.71
                             2192.65  2227.28  2276.32  2290.60  2301.76
                             4289.50  4452.24  4486.59  4551.86  4560.68
                             4603.63  5188.43

 Zero-point correction=                           0.169480 (Hartree/Particle)
 Thermal correction to Energy=                    0.185444
 Thermal correction to Enthalpy=                  0.186388
 Thermal correction to Gibbs Free Energy=         0.124128
 Sum of electronic and zero-point Energies=          -5891.239095
 Sum of electronic and thermal Energies=             -5891.223132
 Sum of electronic and thermal Enthalpies=           -5891.222188
 Sum of electronic and thermal Free Energies=        -5891.284448

                     E (Thermal)             CV                S
                      KCal/Mol        Cal/Mol-Kelvin    Cal/Mol-Kelvin
 Total                  116.368             61.087            131.038
 Electronic               0.000              0.000              0.000
 Translational            0.889              2.981             43.689
 Rotational               0.889              2.981             35.240
 Vibrational            114.590             55.125             52.109
 Vibration     1          0.594              1.984              5.823
 Vibration     2          0.594              1.981              5.246
 Vibration     3          0.602              1.955              3.618
 Vibration     4          0.604              1.948              3.439
 Vibration     5          0.610              1.929              3.045
 Vibration     6          0.612              1.923              2.943
 Vibration     7          0.615              1.914              2.814
 Vibration     8          0.628              1.870              2.354
 Vibration     9          0.637              1.841              2.142
 Vibration    10          0.650              1.801              1.911
 Vibration    11          0.669              1.743              1.649
 Vibration    12          0.674              1.727              1.592
 Vibration    13          0.687              1.690              1.468
 Vibration    14          0.721              1.592              1.203
 Vibration    15          0.749              1.516              1.046
 Vibration    16          0.755              1.499              1.013
 Vibration    17          0.779              1.437              0.909
 Vibration    18          0.791              1.406              0.861
 Vibration    19          0.806              1.367              0.804
 Vibration    20          0.818              1.338              0.765
 Vibration    21          0.843              1.280              0.693
 Vibration    22          0.846              1.273              0.684
 Vibration    23          0.876              1.203              0.607
 Vibration    24          0.928              1.093              0.501
 Vibration    25          0.968              1.013              0.435

 Optimization completed.
    -- Stationary point found.
 Normal termination of Gaussian 16 at Thu Dec 21 11:58:38 2023.
