 Gaussian 16, Revision A.03,
 Gaussian 16:  ES64L-G16RevA.03 25-Dec-2016

 --------------------------------------
 #P UB3LYP/6-311++G(d,p) nosym opt freq
 --------------------------------------

 -------
 Reduced
 -------
 Symbolic Z-matrix:
 Charge = -2 Multiplicity = 1

 SCF Done:  E(UB3LYP) =  -751.510136979     A.U. after   38 cycles
 SCF Done:  E(UB3LYP) =  -751.510136906     A.U. after   24 cycles
 SCF Done:  E(UB3LYP) =  -751.510136832     A.U. after   23 cycles
 SCF Done:  E(UB3LYP) =  -751.510137046     A.U. after   24 cycles
 Optimization completed.
    -- Stationary point found.
 Normal termination of Gaussian 16 at Wed Jan 10 18:39:30 2024.

 ----------------------------------------------------------------------
 #P Geom=AllCheck Guess=TCheck SCRF=Check GenChk UB3LYP/6-311++G(d,p) F
 req
 ----------------------------------------------------------------------

 Structure from the checkpoint file:  "106-an.chk"
 -------
 Reduced
 -------
 Charge = -2 Multiplicity = 1

                          Input orientation:
 ---------------------------------------------------------------------
 Center     Atomic      Atomic             Coordinates (Angstroms)
 Number     Number       Type             X           Y           Z
 ---------------------------------------------------------------------
      1          6           0       -1.093145   -1.915957    3.488183
      2          6           0        0.028204   -2.504510    2.807659
      3          6           0        0.049633   -2.571836    1.408277
      4          6           0       -1.008834   -2.105330    0.556953
      5          6           0       -2.122647   -1.535156    1.259617
      6          6           0       -2.157829   -1.426776    2.645808
      7          8           0       -1.198896   -1.808951    4.790975
      8          8           0       -0.967967   -2.215130   -0.729477
      9          7           0       -3.276062   -0.886553    3.367134
     10          6           0       -3.561253    0.575535    3.303215
     11          6           0       -4.495732    0.882179    4.487242
     12          6           0       -4.288457    0.933614    1.996024
     13          6           0       -2.282411    1.433365    3.431770
     14          1           0       -2.977186   -1.230597    0.662430
     15          1           0       -3.021100   -1.094468    4.338136
     16          1           0       -4.001376    0.655783    5.438140
     17          1           0       -5.403888    0.273715    4.421005
     18          1           0       -4.787428    1.939007    4.502496
     19          1           0       -5.178295    0.307023    1.876782
     20          1           0       -3.639898    0.771857    1.133383
     21          1           0       -4.597134    1.987024    2.002825
     22          1           0       -1.753234    1.181649    4.355358
     23          1           0       -2.523204    2.505209    3.438442
     24          1           0       -1.607324    1.230061    2.596507
     25          6           0        1.203440   -3.036501    3.655647
     26          6           0        0.692677   -4.142530    4.612157
     27          6           0        2.341904   -3.638567    2.809065
     28          6           0        1.801047   -1.880962    4.495255
     29          1           0        0.892348   -3.014738    0.886196
     30          1           0       -0.121206   -3.741868    5.219582
     31          1           0        1.503038   -4.500263    5.267339
     32          1           0        0.317841   -4.995682    4.034946
     33          1           0        1.995011   -4.485760    2.209292
     34          1           0        3.141693   -3.995064    3.472675
     35          1           0        2.771644   -2.899851    2.125642
     36          1           0        1.010913   -1.429855    5.098893
     37          1           0        2.223492   -1.115082    3.834632
     38          1           0        2.604449   -2.247657    5.153545
 ---------------------------------------------------------------------

 SCF Done:  E(UB3LYP) =  -751.510137046     A.U. after    2 cycles

 Alpha  occ. eigenvalues --  -18.78408 -18.77076 -14.04941  -9.98914  -9.95764
 Alpha  occ. eigenvalues --   -9.95194  -9.94692  -9.94323  -9.93515  -9.93127
 Alpha  occ. eigenvalues --   -9.93120  -9.93084  -9.93059  -9.91990  -9.90270
 Alpha  occ. eigenvalues --   -9.88243  -9.87962  -0.70102  -0.68110  -0.66051
 Alpha  occ. eigenvalues --   -0.59212  -0.56251  -0.52182  -0.47929  -0.46890
 Alpha  occ. eigenvalues --   -0.46829  -0.45891  -0.45078  -0.40207  -0.35494
 Alpha  occ. eigenvalues --   -0.33354  -0.29289  -0.28322  -0.24940  -0.23473
 Alpha  occ. eigenvalues --   -0.22938  -0.22266  -0.21751  -0.21733  -0.19675
 Alpha  occ. eigenvalues --   -0.18963  -0.18533  -0.17592  -0.17282  -0.16665
 Alpha  occ. eigenvalues --   -0.16060  -0.15249  -0.14562  -0.13802  -0.12359
 Alpha  occ. eigenvalues --   -0.11655  -0.11330  -0.11181  -0.11045  -0.10205
 Alpha  occ. eigenvalues --   -0.09822  -0.08518  -0.07445  -0.06301  -0.02113
 Alpha  occ. eigenvalues --    0.02106   0.03762   0.04847   0.05521   0.13031
 Alpha virt. eigenvalues --    0.14608   0.15251   0.16803   0.17473   0.17542
 Alpha virt. eigenvalues --    0.17846   0.18462   0.19343   0.20109   0.20611
 Alpha virt. eigenvalues --    0.20793   0.20986   0.21589   0.21663   0.23117

  Beta  occ. eigenvalues --  -18.78408 -18.77076 -14.04941  -9.98914  -9.95764
  Beta  occ. eigenvalues --   -9.95194  -9.94692  -9.94323  -9.93515  -9.93127
  Beta  occ. eigenvalues --   -9.93120  -9.93084  -9.93059  -9.91990  -9.90270
  Beta  occ. eigenvalues --   -9.88243  -9.87962  -0.70102  -0.68110  -0.66051
  Beta  occ. eigenvalues --   -0.59212  -0.56251  -0.52182  -0.47929  -0.46890
  Beta  occ. eigenvalues --   -0.46829  -0.45891  -0.45078  -0.40207  -0.35494
  Beta  occ. eigenvalues --   -0.33354  -0.29289  -0.28322  -0.24940  -0.23473
  Beta  occ. eigenvalues --   -0.22938  -0.22266  -0.21751  -0.21733  -0.19675
  Beta  occ. eigenvalues --   -0.18963  -0.18533  -0.17592  -0.17282  -0.16665
  Beta  occ. eigenvalues --   -0.16060  -0.15249  -0.14562  -0.13802  -0.12359
  Beta  occ. eigenvalues --   -0.11655  -0.11330  -0.11181  -0.11045  -0.10205
  Beta  occ. eigenvalues --   -0.09822  -0.08518  -0.07445  -0.06301  -0.02113
  Beta  occ. eigenvalues --    0.02106   0.03762   0.04847   0.05521   0.13031
  Beta virt. eigenvalues --    0.14608   0.15251   0.16803   0.17473   0.17542
  Beta virt. eigenvalues --    0.17846   0.18462   0.19343   0.20109   0.20611
  Beta virt. eigenvalues --    0.20793   0.20986   0.21589   0.21663   0.23117

 Mulliken charges and spin densities:
               1          2
     1  C   -1.215646  -0.000000
     2  C    1.117051   0.000000
     3  C   -0.316934   0.000000
     4  C   -1.032804   0.000000
     5  C    0.319846   0.000000
     6  C    0.585264   0.000000
     7  O   -0.511708  -0.000000
     8  O   -0.544018  -0.000000
     9  N    0.169211   0.000000
    10  C   -0.613033   0.000000
    11  C    0.209594   0.000000
    12  C   -0.156927   0.000000
    13  C   -0.055792  -0.000000
    14  H    0.097838  -0.000000
    15  H    0.287746   0.000000
    16  H   -0.004676  -0.000000
    17  H    0.064173  -0.000000
    18  H   -0.423297  -0.000000
    19  H    0.127135   0.000000
    20  H    0.075480  -0.000000
    21  H   -0.105419  -0.000000
    22  H    0.146027   0.000000
    23  H   -0.195059  -0.000000
    24  H    0.130584   0.000000
    25  C    0.667314  -0.000000
    26  C   -0.707959  -0.000000
    27  C   -0.526679   0.000000
    28  C   -0.729898   0.000000
    29  H    0.102559  -0.000000
    30  H    0.206545   0.000000
    31  H    0.058104  -0.000000
    32  H    0.095698   0.000000
    33  H    0.109512   0.000000
    34  H    0.110218  -0.000000
    35  H    0.108481   0.000000
    36  H    0.183715  -0.000000
    37  H    0.096137  -0.000000
    38  H    0.071617  -0.000000
 Sum of Mulliken charges =  -2.00000   0.00000

 Dipole moment (field-independent basis, Debye):
    X=             15.0756    Y=             12.1848    Z=            -23.1603  Tot=             30.2017
 Quadrupole moment (field-independent basis, Debye-Ang):
   XX=           -187.0707   YY=           -181.4516   ZZ=           -237.7425
   XY=             14.0701   XZ=             44.0370   YZ=             15.2752

  Exact polarizability:1016.897-513.7181109.257-238.332 132.185 752.352
 Approx polarizability:2240.747********3572.008-935.3781201.3201126.139

                      1                      2                      3
                      A                      A                      A
 Frequencies --     25.7005                47.0410                65.4333
 Red. masses --      3.1198                 3.3035                 3.1711
 Frc consts  --      0.0012                 0.0043                 0.0080
 IR Inten    --      2.8115                 2.6367                 2.1861

                      4                      5                      6
                      A                      A                      A
 Frequencies --     86.8463               106.9532               170.6905
 Red. masses --      4.3436                 4.3278                 5.8150
 Frc consts  --      0.0193                 0.0292                 0.0998
 IR Inten    --      5.3427                 0.7758                 5.8525

                      7                      8                      9
                      A                      A                      A
 Frequencies --    181.5683               201.7413               240.6030
 Red. masses --      2.4312                 1.1867                 2.9004
 Frc consts  --      0.0472                 0.0285                 0.0989
 IR Inten    --     10.4165                 3.1638                 0.7143

                     10                     11                     12
                      A                      A                      A
 Frequencies --    249.3480               250.6052               262.1054
 Red. masses --      2.1003                 1.0583                 1.2450
 Frc consts  --      0.0769                 0.0392                 0.0504
 IR Inten    --      7.7494                 0.1144                 4.7742

                     13                     14                     15
                      A                      A                      A
 Frequencies --    263.6318               284.4841               286.6179
 Red. masses --      2.1451                 1.3879                 2.4749
 Frc consts  --      0.0878                 0.0662                 0.1198
 IR Inten    --      3.6665                 4.1301                11.8975

                     16                     17                     18
                      A                      A                      A
 Frequencies --    295.0933               300.4779               316.2788
 Red. masses --      1.3446                 2.6115                 1.0535
 Frc consts  --      0.0690                 0.1389                 0.0621
 IR Inten    --     12.0095                11.4391                 0.2810

                     19                     20                     21
                      A                      A                      A
 Frequencies --    334.1428               363.0342               373.5737
 Red. masses --      3.2583                 2.7260                 3.1360
 Frc consts  --      0.2143                 0.2117                 0.2579
 IR Inten    --      7.3416                 2.3753                18.7178

                     22                     23                     24
                      A                      A                      A
 Frequencies --    384.4641               413.5983               416.0331
 Red. masses --      2.5594                 2.7892                 3.2133
 Frc consts  --      0.2229                 0.2811                 0.3277
 IR Inten    --      9.4537                25.2111                 2.5812

                     25                     26                     27
                      A                      A                      A
 Frequencies --    432.2347               450.8676               466.8197
 Red. masses --      3.6597                 3.4385                 2.8653
 Frc consts  --      0.4028                 0.4118                 0.3679
 IR Inten    --     61.5215               196.8590                26.0056

                     28                     29                     30
                      A                      A                      A
 Frequencies --    470.8883               535.2149               578.4527
 Red. masses --      4.9890                 3.0516                 4.3667
 Frc consts  --      0.6518                 0.5150                 0.8609
 IR Inten    --    494.3070                 9.0191                20.9059

                     31                     32                     33
                      A                      A                      A
 Frequencies --    633.0696               657.9395               664.9124
 Red. masses --      2.5215                 3.8369                 4.4602
 Frc consts  --      0.5954                 0.9786                 1.1618
 IR Inten    --      0.4300                24.4516                34.1834

                     34                     35                     36
                      A                      A                      A
 Frequencies --    734.5487               783.4940               794.2835
 Red. masses --      4.0996                 4.8369                 3.7100
 Frc consts  --      1.3033                 1.7494                 1.3790
 IR Inten    --     13.5814                 1.5245                 9.7790

                     37                     38                     39
                      A                      A                      A
 Frequencies --    809.3864               812.6128               834.4658
 Red. masses --      4.4301                 1.5879                 2.0554
 Frc consts  --      1.7099                 0.6178                 0.8432
 IR Inten    --     50.2528                42.5314                24.8576

                     40                     41                     42
                      A                      A                      A
 Frequencies --    859.9046               903.0842               913.1255
 Red. masses --      2.4845                 1.7571                 1.7932
 Frc consts  --      1.0824                 0.8443                 0.8809
 IR Inten    --     28.6125                47.3475                48.7238

                     43                     44                     45
                      A                      A                      A
 Frequencies --    914.9200               924.0767               936.6896
 Red. masses --      1.8016                 1.9410                 2.4431
 Frc consts  --      0.8885                 0.9766                 1.2629
 IR Inten    --      1.6228                 8.2764               241.2773

                     46                     47                     48
                      A                      A                      A
 Frequencies --    952.6119               954.6639               988.6223
 Red. masses --      1.2100                 1.2010                 1.5973
 Frc consts  --      0.6469                 0.6449                 0.9198
 IR Inten    --      0.4213                 4.1201                58.5840

                     49                     50                     51
                      A                      A                      A
 Frequencies --    999.4116              1040.4851              1043.6345
 Red. masses --      2.1592                 1.4284                 1.4682
 Frc consts  --      1.2707                 0.9111                 0.9422
 IR Inten    --     47.0544                47.6239               111.6738

                     52                     53                     54
                      A                      A                      A
 Frequencies --   1046.6483              1056.9609              1144.1708
 Red. masses --      1.3834                 1.4077                 3.2331
 Frc consts  --      0.8929                 0.9266                 2.4937
 IR Inten    --      2.4376                17.4358               166.4523

                     55                     56                     57
                      A                      A                      A
 Frequencies --   1173.8519              1205.6700              1207.5815
 Red. masses --      5.0321                 2.1195                 2.6205
 Frc consts  --      4.0853                 1.8153                 2.2514
 IR Inten    --      7.0003               367.9658                 7.9607

                     58                     59                     60
                      A                      A                      A
 Frequencies --   1211.7684              1219.7043              1235.2560
 Red. masses --      2.3395                 2.2844                 2.7816
 Frc consts  --      2.0240                 2.0023                 2.5007
 IR Inten    --     50.5347                72.9962               149.2174

                     61                     62                     63
                      A                      A                      A
 Frequencies --   1250.2012              1259.0179              1289.5879
 Red. masses --      1.9450                 2.7021                 3.2141
 Frc consts  --      1.7912                 2.5235                 3.1493
 IR Inten    --    119.9081               285.1030               148.4870

                     64                     65                     66
                      A                      A                      A
 Frequencies --   1335.7933              1354.4689              1367.7741
 Red. masses --      3.6561                 1.2152                 1.2804
 Frc consts  --      3.8437                 1.3135                 1.4113
 IR Inten    --   3351.0623                11.3857               307.5410

                     67                     68                     69
                      A                      A                      A
 Frequencies --   1370.7385              1375.5096              1390.7779
 Red. masses --      1.3428                 1.2408                 1.4073
 Frc consts  --      1.4865                 1.3832                 1.6038
 IR Inten    --    210.6561                44.8031               102.7141

                     70                     71                     72
                      A                      A                      A
 Frequencies --   1401.7641              1412.4161              1448.2473
 Red. masses --      1.3744                 3.0469                 3.4111
 Frc consts  --      1.5911                 3.5812                 4.2153
 IR Inten    --    113.1618               195.3606               362.0195

                     73                     74                     75
                      A                      A                      A
 Frequencies --   1459.1349              1460.4667              1475.6458
 Red. masses --      1.0474                 1.0605                 1.0590
 Frc consts  --      1.3139                 1.3327                 1.3587
 IR Inten    --      1.0817                 3.3964               131.6439

                     76                     77                     78
                      A                      A                      A
 Frequencies --   1479.2779              1484.2950              1484.7530
 Red. masses --      2.4899                 1.1491                 1.0653
 Frc consts  --      3.2103                 1.4916                 1.3837
 IR Inten    --    125.0976                41.0253                 3.9462

                     79                     80                     81
                      A                      A                      A
 Frequencies --   1486.7510              1487.6056              1493.8110
 Red. masses --      1.0769                 1.2881                 1.0639
 Frc consts  --      1.4024                 1.6794                 1.3988
 IR Inten    --    173.9600                45.9322                10.7912

                     82                     83                     84
                      A                      A                      A
 Frequencies --   1493.8905              1509.7470              1515.7231
 Red. masses --      1.0635                 1.0537                 1.0619
 Frc consts  --      1.3983                 1.4150                 1.4374
 IR Inten    --      9.4524                 1.4815                82.5244

                     85                     86                     87
                      A                      A                      A
 Frequencies --   1527.7511              1560.5875              1599.7718
 Red. masses --      1.0593                 1.6053                 3.1238
 Frc consts  --      1.4567                 2.3035                 4.7103
 IR Inten    --      3.5388               481.2097              2052.2119

                     88                     89                     90
                      A                      A                      A
 Frequencies --   2942.6760              2953.5747              2981.0987
 Red. masses --      1.0516                 1.0499                 1.0452
 Frc consts  --      5.3655                 5.3960                 5.4726
 IR Inten    --    160.9854               658.3140                37.0873

                     91                     92                     93
                      A                      A                      A
 Frequencies --   2985.1301              2988.9967              2996.9515
 Red. masses --      1.0440                 1.0389                 1.0400
 Frc consts  --      5.4812                 5.4687                 5.5033
 IR Inten    --    452.3142                 3.9032                66.6742

                     94                     95                     96
                      A                      A                      A
 Frequencies --   3025.9606              3030.6807              3045.9528
 Red. masses --      1.0834                 1.0850                 1.0885
 Frc consts  --      5.8447                 5.8714                 5.9504
 IR Inten    --     63.5639                14.7731                74.2378

                     97                     98                     99
                      A                      A                      A
 Frequencies --   3052.2258              3056.1449              3063.1247
 Red. masses --      1.0981                 1.0955                 1.0908
 Frc consts  --      6.0273                 6.0287                 6.0300
 IR Inten    --     11.0692                39.2445                44.5610

                    100                    101                    102
                      A                      A                      A
 Frequencies --   3066.6120              3072.0736              3090.2394
 Red. masses --      1.1004                 1.1011                 1.0993
 Frc consts  --      6.0971                 6.1225                 6.1852
 IR Inten    --     11.2209                52.9514                13.5962

                    103                    104                    105
                      A                      A                      A
 Frequencies --   3091.7088              3093.8381              3101.2091
 Red. masses --      1.1020                 1.0985                 1.0977
 Frc consts  --      6.2064                 6.1952                 6.2203
 IR Inten    --      1.0378                25.0749                24.6815

                    106                    107                    108
                      A                      A                      A
 Frequencies --   3142.3188              3145.0675              3362.7325
 Red. masses --      1.0875                 1.0858                 1.0715
 Frc consts  --      6.3266                 6.3282                 7.1390
 IR Inten    --     16.7798               215.1605                77.3786

 - Thermochemistry -
 -------------------
 Temperature   298.150 Kelvin.  Pressure   1.00000 Atm.
 Atom     1 has atomic number  6 and mass  12.00000

 Molecular mass:   235.15723 amu.
 Principal axes and moments of inertia in atomic units:
                           1         2         3
     Eigenvalues --  2525.836605748.670727378.42333
           X            0.79620   0.07341   0.60056
           Y           -0.60493   0.11427   0.78804
           Z            0.01078   0.99073  -0.13539
 This molecule is an asymmetric top.
 Rotational symmetry number  1.
 Warning -- assumption of classical behavior for rotation
           may cause significant error
 Rotational temperatures (Kelvin)      0.03429     0.01507     0.01174
 Rotational constants (GHZ):           0.71451     0.31394     0.24460
 Zero-point vibrational energy     840830.8 (Joules/Mol)
                                  200.96337 (Kcal/Mol)
 Warning -- explicit consideration of  30 degrees of freedom as
           vibrations may cause significant error
 Vibrational temperatures:     36.98    67.68    94.14   124.95   153.88
          (Kelvin)            245.59   261.24   290.26   346.17   358.76
                              360.57   377.11   379.31   409.31   412.38
                              424.57   432.32   455.05   480.76   522.33
                              537.49   553.16   595.08   598.58   621.89
                              648.70   671.65   677.50   770.05   832.26
                              910.85   946.63   956.66  1056.85  1127.27
                             1142.80  1164.53  1169.17  1200.61  1237.21
                             1299.34  1313.78  1316.37  1329.54  1347.69
                             1370.60  1373.55  1422.41  1437.93  1497.03
                             1501.56  1505.89  1520.73  1646.21  1688.91
                             1734.69  1737.44  1743.46  1754.88  1777.26
                             1798.76  1811.45  1855.43  1921.91  1948.78
                             1967.92  1972.19  1979.05  2001.02  2016.83
                             2032.15  2083.70  2099.37  2101.29  2123.13
                             2128.35  2135.57  2136.23  2139.10  2140.33
                             2149.26  2149.38  2172.19  2180.79  2198.09
                             2245.34  2301.71  4233.85  4249.54  4289.14
                             4294.94  4300.50  4311.94  4353.68  4360.47
                             4382.45  4391.47  4397.11  4407.15  4412.17
                             4420.03  4446.17  4448.28  4451.34  4461.95
                             4521.10  4525.05  4838.22

 Zero-point correction=                           0.320256 (Hartree/Particle)
 Thermal correction to Energy=                    0.338565
 Thermal correction to Enthalpy=                  0.339510
 Thermal correction to Gibbs Free Energy=         0.275168
 Sum of electronic and zero-point Energies=           -751.189882
 Sum of electronic and thermal Energies=              -751.171572
 Sum of electronic and thermal Enthalpies=            -751.170627
 Sum of electronic and thermal Free Energies=         -751.234969

                     E (Thermal)             CV                S
                      KCal/Mol        Cal/Mol-Kelvin    Cal/Mol-Kelvin
 Total                  212.453             71.966            135.419
 Electronic               0.000              0.000              0.000
 Translational            0.889              2.981             42.267
 Rotational               0.889              2.981             33.038
 Vibrational            210.676             66.004             60.114
 Vibration     1          0.593              1.985              6.136
 Vibration     2          0.595              1.979              4.938
 Vibration     3          0.597              1.971              4.286
 Vibration     4          0.601              1.958              3.730
 Vibration     5          0.606              1.944              3.323
 Vibration     6          0.626              1.879              2.428
 Vibration     7          0.630              1.865              2.312
 Vibration     8          0.639              1.837              2.117
 Vibration     9          0.658              1.778              1.798
 Vibration    10          0.662              1.764              1.735
 Vibration    11          0.663              1.762              1.726
 Vibration    12          0.669              1.742              1.648
 Vibration    13          0.670              1.740              1.638
 Vibration    14          0.683              1.702              1.507
 Vibration    15          0.684              1.699              1.494
 Vibration    16          0.689              1.683              1.445
 Vibration    17          0.693              1.673              1.414
 Vibration    18          0.703              1.643              1.329
 Vibration    19          0.716              1.607              1.240
 Vibration    20          0.737              1.548              1.109
 Vibration    21          0.745              1.526              1.065
 Vibration    22          0.753              1.503              1.022
 Vibration    23          0.777              1.441              0.914
 Vibration    24          0.779              1.435              0.906
 Vibration    25          0.793              1.400              0.851
 Vibration    26          0.810              1.359              0.793
 Vibration    27          0.824              1.324              0.747
 Vibration    28          0.828              1.315              0.735
 Vibration    29          0.890              1.172              0.576
 Vibration    30          0.935              1.078              0.488

 Optimization completed.
    -- Stationary point found.
 Normal termination of Gaussian 16 at Wed Jan 10 21:12:09 2024.
