 Q-Chem 5.4, Q-Chem, Inc., Pleasanton, CA (2021)
 Q-Chem 5.4.0 for Intel X86 EM64T Linux

User input:
--------------------------------------------------------------
$molecule
-2 1
C                 -1.0931450000     -1.9159570000      3.4881830000
C                  0.0282040000     -2.5045100000      2.8076590000
C                  0.0496330000     -2.5718360000      1.4082770000
C                 -1.0088340000     -2.1053300000      0.5569530000
C                 -2.1226470000     -1.5351560000      1.2596170000
C                 -2.1578290000     -1.4267760000      2.6458080000
O                 -1.1988960000     -1.8089510000      4.7909750000
O                 -0.9679670000     -2.2151300000     -0.7294770000
N                 -3.2760620000     -0.8865530000      3.3671340000
C                 -3.5612530000      0.5755350000      3.3032150000
C                 -4.4957320000      0.8821790000      4.4872420000
C                 -4.2884570000      0.9336140000      1.9960240000
C                 -2.2824110000      1.4333650000      3.4317700000
H                 -2.9771860000     -1.2305970000      0.6624300000
H                 -3.0211000000     -1.0944680000      4.3381360000
H                 -4.0013760000      0.6557830000      5.4381400000
H                 -5.4038880000      0.2737150000      4.4210050000
H                 -4.7874280000      1.9390070000      4.5024960000
H                 -5.1782950000      0.3070230000      1.8767820000
H                 -3.6398980000      0.7718570000      1.1333830000
H                 -4.5971340000      1.9870240000      2.0028250000
H                 -1.7532340000      1.1816490000      4.3553580000
H                 -2.5232040000      2.5052090000      3.4384420000
H                 -1.6073240000      1.2300610000      2.5965070000
C                  1.2034400000     -3.0365010000      3.6556470000
C                  0.6926770000     -4.1425300000      4.6121570000
C                  2.3419040000     -3.6385670000      2.8090650000
C                  1.8010470000     -1.8809620000      4.4952550000
H                  0.8923480000     -3.0147380000      0.8861960000
H                 -0.1212060000     -3.7418680000      5.2195820000
H                  1.5030380000     -4.5002630000      5.2673390000
H                  0.3178410000     -4.9956820000      4.0349460000
H                  1.9950110000     -4.4857600000      2.2092920000
H                  3.1416930000     -3.9950640000      3.4726750000
H                  2.7716440000     -2.8998510000      2.1256420000
H                  1.0109130000     -1.4298550000      5.0988930000
H                  2.2234920000     -1.1150820000      3.8346320000
H                  2.6044490000     -2.2476570000      5.1535450000
$end

$rem
BASIS  =  6-311++G(d,p)
GUI  =  2
JOB_TYPE  =  SP
METHOD  =  B3LYP
SCF_CONVERGENCE  = 8
SOLVENT_METHOD = sm12
$end

$smx
solvent dimethylformamide
charges CM5
$end

--------------------------------------------------------------

             Standard Nuclear Orientation (Angstroms)
    I     Atom           X                Y                Z
 ----------------------------------------------------------------
    1      C      -1.0931450000    -1.9159570000     3.4881830000
    2      C       0.0282040000    -2.5045100000     2.8076590000
    3      C       0.0496330000    -2.5718360000     1.4082770000
    4      C      -1.0088340000    -2.1053300000     0.5569530000
    5      C      -2.1226470000    -1.5351560000     1.2596170000
    6      C      -2.1578290000    -1.4267760000     2.6458080000
    7      O      -1.1988960000    -1.8089510000     4.7909750000
    8      O      -0.9679670000    -2.2151300000    -0.7294770000
    9      N      -3.2760620000    -0.8865530000     3.3671340000
   10      C      -3.5612530000     0.5755350000     3.3032150000
   11      C      -4.4957320000     0.8821790000     4.4872420000
   12      C      -4.2884570000     0.9336140000     1.9960240000
   13      C      -2.2824110000     1.4333650000     3.4317700000
   14      H      -2.9771860000    -1.2305970000     0.6624300000
   15      H      -3.0211000000    -1.0944680000     4.3381360000
   16      H      -4.0013760000     0.6557830000     5.4381400000
   17      H      -5.4038880000     0.2737150000     4.4210050000
   18      H      -4.7874280000     1.9390070000     4.5024960000
   19      H      -5.1782950000     0.3070230000     1.8767820000
   20      H      -3.6398980000     0.7718570000     1.1333830000
   21      H      -4.5971340000     1.9870240000     2.0028250000
   22      H      -1.7532340000     1.1816490000     4.3553580000
   23      H      -2.5232040000     2.5052090000     3.4384420000
   24      H      -1.6073240000     1.2300610000     2.5965070000
   25      C       1.2034400000    -3.0365010000     3.6556470000
   26      C       0.6926770000    -4.1425300000     4.6121570000
   27      C       2.3419040000    -3.6385670000     2.8090650000
   28      C       1.8010470000    -1.8809620000     4.4952550000
   29      H       0.8923480000    -3.0147380000     0.8861960000
   30      H      -0.1212060000    -3.7418680000     5.2195820000
   31      H       1.5030380000    -4.5002630000     5.2673390000
   32      H       0.3178410000    -4.9956820000     4.0349460000
   33      H       1.9950110000    -4.4857600000     2.2092920000
   34      H       3.1416930000    -3.9950640000     3.4726750000
   35      H       2.7716440000    -2.8998510000     2.1256420000
   36      H       1.0109130000    -1.4298550000     5.0988930000
   37      H       2.2234920000    -1.1150820000     3.8346320000
   38      H       2.6044490000    -2.2476570000     5.1535450000
 ----------------------------------------------------------------

   18    -751.4937025489      5.09e-09  Convergence criterion met
 Total energy in the final basis set =     -751.7800596130

                    Orbital Energies (a.u.)
 --------------------------------------------------------------

 Alpha MOs
 -- Occupied --
-19.0173 -19.0155 -14.2893 -10.2160 -10.1871 -10.1767 -10.1694 -10.1674
-10.1672 -10.1667 -10.1645 -10.1642 -10.1592 -10.1583 -10.1430 -10.1288
-10.1275  -0.9378  -0.9275  -0.8960  -0.8221  -0.7952  -0.7618  -0.7033
 -0.6956  -0.6921  -0.6883  -0.6863  -0.6441  -0.5927  -0.5644  -0.5345
 -0.5168  -0.4792  -0.4671  -0.4520  -0.4517  -0.4469  -0.4405  -0.4358
 -0.4247  -0.4168  -0.4019  -0.3974  -0.3890  -0.3837  -0.3752  -0.3724
 -0.3697  -0.3568  -0.3546  -0.3514  -0.3448  -0.3406  -0.3340  -0.3279
 -0.3264  -0.3149  -0.3048  -0.2627  -0.2233  -0.1999  -0.1978  -0.1909
 -0.1179

          Ground-State Mulliken Net Atomic Charges

     Atom                 Charge (a.u.)
  ----------------------------------------
      1 C                    -1.907887
      2 C                    -0.708293
      3 C                    -1.788691
      4 C                    -2.048528
      5 C                    -0.564889
      6 C                    -0.252325
      7 O                    -0.219108
      8 O                    -0.428952
      9 N                     0.033951
     10 C                    -0.169528
     11 C                     0.899111
     12 C                    -0.033496
     13 C                    -0.426075
     14 H                    -0.211979
     15 H                     0.214836
     16 H                     0.222362
     17 H                     0.217967
     18 H                     0.321907
     19 H                     0.111473
     20 H                    -0.017472
     21 H                     0.388736
     22 H                    -0.018989
     23 H                     0.445513
     24 H                    -0.134579
     25 C                     2.467648
     26 C                    -0.216801
     27 C                     0.612995
     28 C                    -0.247435
     29 H                    -0.198146
     30 H                     0.079077
     31 H                     0.362641
     32 H                     0.049020
     33 H                     0.109715
     34 H                     0.482579
     35 H                     0.111433
     36 H                     0.063844
     37 H                     0.048878
     38 H                     0.349488
  ----------------------------------------
  Sum of atomic charges =    -2.000000

                    Cartesian Multipole Moments
 -----------------------------------------------------------------
    Charge (ESU x 10^10)
                -9.6064
    Dipole Moment (Debye)
         X      10.3588      Y      19.6468      Z     -18.8891
       Tot      29.1565
    Quadrupole Moments (Debye-Ang)
        XX    -150.6191     XY     -14.0468     YY    -167.2795
        XZ      19.3160     YZ      36.6325     ZZ    -213.6039

 Total job time:  1532.82s(wall), 11799.31s(cpu)
        *  Thank you very much for using Q-Chem.  Have a nice day.  *
