 Q-Chem 5.4, Q-Chem, Inc., Pleasanton, CA (2021)
 Q-Chem 5.4.0 for Intel X86 EM64T Linux

User input:
--------------------------------------------------------------
$molecule
-2 1
Br                -2.4543940000      2.1910550000      0.4899220000
C                 -0.9313630000      0.8447400000      0.4630110000
C                 -1.2583440000     -0.4988240000      0.3002160000
Br                -2.8776210000     -1.2386740000      1.1694780000
C                 -0.3951180000     -1.4802040000     -0.2839220000
O                 -0.6605740000     -2.6865970000     -0.4213770000
C                  1.0514060000     -0.9963040000     -0.5739970000
O                  1.8995300000     -1.8301830000     -0.9346670000
C                  1.3202750000      0.3638340000     -0.2171220000
C                  0.3561150000      1.2755430000      0.2046190000
Br                 0.7047500000      3.2476380000     -0.1429670000
Br                 3.2441380000      0.8091770000     -0.0587940000
$end

$rem
BASIS  =  6-311++G(d,p)
GUI  =  2
JOB_TYPE  =  SP
METHOD  =  B3LYP
SCF_CONVERGENCE  = 8
SOLVENT_METHOD = sm12
$end

$smx
solvent dimethylformamide
charges CM5
$end

--------------------------------------------------------------

             Standard Nuclear Orientation (Angstroms)
    I     Atom           X                Y                Z
 ----------------------------------------------------------------
    1      Br     -2.4543940000     2.1910550000     0.4899220000
    2      C      -0.9313630000     0.8447400000     0.4630110000
    3      C      -1.2583440000    -0.4988240000     0.3002160000
    4      Br     -2.8776210000    -1.2386740000     1.1694780000
    5      C      -0.3951180000    -1.4802040000    -0.2839220000
    6      O      -0.6605740000    -2.6865970000    -0.4213770000
    7      C       1.0514060000    -0.9963040000    -0.5739970000
    8      O       1.8995300000    -1.8301830000    -0.9346670000
    9      C       1.3202750000     0.3638340000    -0.2171220000
   10      C       0.3561150000     1.2755430000     0.2046190000
   11      Br      0.7047500000     3.2476380000    -0.1429670000
   12      Br      3.2441380000     0.8091770000    -0.0587940000
 ----------------------------------------------------------------

   17  -10675.7428150103      5.78e-09  Convergence criterion met
 Total energy in the final basis set =   -10675.9909556382

                    Orbital Energies (a.u.)
 --------------------------------------------------------------

 Alpha MOs
 -- Occupied --
********-482.7980-482.7947-482.7946 -62.4505 -62.4504 -62.4471 -62.4470
-56.2709 -56.2708 -56.2674 -56.2673 -56.2673 -56.2672 -56.2670 -56.2669
-56.2639 -56.2639 -56.2637 -56.2636 -19.0451 -19.0451 -10.2047 -10.2045
-10.2033 -10.2027 -10.1813 -10.1813  -8.6586  -8.6585  -8.6553  -8.6553
 -6.4894  -6.4893  -6.4859  -6.4858  -6.4775  -6.4774  -6.4769  -6.4768
 -6.4745  -6.4744  -6.4737  -6.4737  -2.6003  -2.6003  -2.5970  -2.5969
 -2.5969  -2.5968  -2.5966  -2.5965  -2.5937  -2.5936  -2.5932  -2.5931
 -2.5872  -2.5871  -2.5871  -2.5870  -2.5841  -2.5840  -2.5840  -2.5840
 -0.9861  -0.9587  -0.8416  -0.7826  -0.7591  -0.7400  -0.7329  -0.6630
 -0.6536  -0.5388  -0.5367  -0.4709  -0.4253  -0.3969  -0.3919  -0.3757
 -0.3681  -0.3455  -0.3419  -0.3255  -0.3245  -0.2887  -0.2814  -0.2707
 -0.2701  -0.2621  -0.2528  -0.2452  -0.2393  -0.2224  -0.1959  -0.1868
 -0.1458

          Ground-State Mulliken Net Atomic Charges

     Atom                 Charge (a.u.)
  ----------------------------------------
      1 Br                    0.043810
      2 C                     0.666058
      3 C                     0.746448
      4 Br                    0.000023
      5 C                    -2.120813
      6 O                    -0.328667
      7 C                    -2.121499
      8 O                    -0.329353
      9 C                     0.735958
     10 C                     0.662196
     11 Br                    0.045518
     12 Br                    0.000321
  ----------------------------------------
  Sum of atomic charges =    -2.000000

                    Cartesian Multipole Moments
 -----------------------------------------------------------------
    Charge (ESU x 10^10)
                -9.6064
    Dipole Moment (Debye)
         X      -0.9962      Y       3.4794      Z       0.8240
       Tot       3.7119
    Quadrupole Moments (Debye-Ang)
        XX    -172.4396     XY      -0.0808     YY    -178.3917
        XZ      10.4398     YZ      -6.8196     ZZ    -133.8841

 Total job time:  162.13s(wall), 1216.77s(cpu)
        *  Thank you very much for using Q-Chem.  Have a nice day.  *
