 Gaussian 16, Revision A.03,
 Gaussian 16:  ES64L-G16RevA.03 25-Dec-2016

 --------------------------------------
 #P UB3LYP/6-311++G(d,p) nosym opt freq
 --------------------------------------

 -------
 Reduced
 -------
 Symbolic Z-matrix:
 Charge = -2 Multiplicity = 1

 SCF Done:  E(UB3LYP) =  -10675.7492275     A.U. after   21 cycles
 SCF Done:  E(UB3LYP) =  -10675.7492798     A.U. after   14 cycles
 SCF Done:  E(UB3LYP) =  -10675.7504087     A.U. after   18 cycles
 SCF Done:  E(UB3LYP) =  -10675.7489249     A.U. after   18 cycles
 SCF Done:  E(UB3LYP) =  -10675.7529137     A.U. after   16 cycles
 SCF Done:  E(UB3LYP) =  -10675.7548256     A.U. after   17 cycles
 SCF Done:  E(UB3LYP) =  -10675.7552279     A.U. after   15 cycles
 SCF Done:  E(UB3LYP) =  -10675.7556064     A.U. after   15 cycles
 SCF Done:  E(UB3LYP) =  -10675.7556546     A.U. after   14 cycles
 SCF Done:  E(UB3LYP) =  -10675.7556614     A.U. after   14 cycles
 SCF Done:  E(UB3LYP) =  -10675.7556758     A.U. after   12 cycles
 SCF Done:  E(UB3LYP) =  -10675.7556764     A.U. after   12 cycles
 Optimization completed.
    -- Stationary point found.
 Normal termination of Gaussian 16 at Fri Jan 12 19:45:05 2024.

 ----------------------------------------------------------------------
 #P Geom=AllCheck Guess=TCheck SCRF=Check GenChk UB3LYP/6-311++G(d,p) F
 req
 ----------------------------------------------------------------------

 Structure from the checkpoint file:  "318-an.chk"
 -------
 Reduced
 -------
 Charge = -2 Multiplicity = 1

                          Input orientation:
 ---------------------------------------------------------------------
 Center     Atomic      Atomic             Coordinates (Angstroms)
 Number     Number       Type             X           Y           Z
 ---------------------------------------------------------------------
      1         35           0       -2.454394    2.191055    0.489922
      2          6           0       -0.931363    0.844740    0.463011
      3          6           0       -1.258344   -0.498824    0.300216
      4         35           0       -2.877621   -1.238674    1.169478
      5          6           0       -0.395118   -1.480204   -0.283922
      6          8           0       -0.660574   -2.686597   -0.421377
      7          6           0        1.051406   -0.996304   -0.573997
      8          8           0        1.899530   -1.830183   -0.934667
      9          6           0        1.320275    0.363834   -0.217122
     10          6           0        0.356115    1.275543    0.204619
     11         35           0        0.704750    3.247638   -0.142967
     12         35           0        3.244138    0.809177   -0.058794
 ---------------------------------------------------------------------

 SCF Done:  E(UB3LYP) =  -10675.7556764     A.U. after    1 cycles

 Alpha  occ. eigenvalues -- -482.57712-482.57707-482.57271-482.57269 -62.22991
 Alpha  occ. eigenvalues --  -62.22987 -62.22543 -62.22541 -56.04996 -56.04992
 Alpha  occ. eigenvalues --  -56.04664 -56.04659 -56.04637 -56.04632 -56.04545
 Alpha  occ. eigenvalues --  -56.04543 -56.04218 -56.04216 -56.04192 -56.04190
 Alpha  occ. eigenvalues --  -18.81621 -18.81619  -9.97824  -9.97766  -9.97663
 Alpha  occ. eigenvalues --   -9.97644  -9.95502  -9.95500  -8.43929  -8.43924
 Alpha  occ. eigenvalues --   -8.43485  -8.43483  -6.26960  -6.26955  -6.26514
 Alpha  occ. eigenvalues --   -6.26511  -6.25861  -6.25856  -6.25785  -6.25780
 Alpha  occ. eigenvalues --   -6.25422  -6.25420  -6.25343  -6.25341  -2.38064
 Alpha  occ. eigenvalues --   -2.38059  -2.37771  -2.37766  -2.37714  -2.37709
 Alpha  occ. eigenvalues --   -2.37623  -2.37621  -2.37327  -2.37325  -2.37267
 Alpha  occ. eigenvalues --   -2.37265  -2.36840  -2.36840  -2.36835  -2.36835
 Alpha  occ. eigenvalues --   -2.36399  -2.36398  -2.36396  -2.36396  -0.75660
 Alpha  occ. eigenvalues --   -0.72821  -0.61507  -0.55731  -0.53578  -0.51896
 Alpha  occ. eigenvalues --   -0.50932  -0.43792  -0.42705  -0.31092  -0.30944
 Alpha  occ. eigenvalues --   -0.24191  -0.20053  -0.16798  -0.16418  -0.14703
 Alpha  occ. eigenvalues --   -0.14371  -0.12225  -0.11546  -0.10094  -0.09810
 Alpha  occ. eigenvalues --   -0.07101  -0.05987  -0.05194  -0.05095  -0.04439
 Alpha  occ. eigenvalues --   -0.03426  -0.02546  -0.01907   0.00436   0.03431
 Alpha  occ. eigenvalues --    0.03976   0.08265
 Alpha virt. eigenvalues --    0.15996   0.18633   0.19986   0.19997   0.20978
 Alpha virt. eigenvalues --    0.22799   0.23154   0.23488   0.23730   0.24547
 Alpha virt. eigenvalues --    0.24620   0.24718   0.25413   0.25644   0.25926

  Beta  occ. eigenvalues -- -482.57712-482.57707-482.57271-482.57269 -62.22991
  Beta  occ. eigenvalues --  -62.22987 -62.22543 -62.22541 -56.04996 -56.04992
  Beta  occ. eigenvalues --  -56.04664 -56.04659 -56.04637 -56.04632 -56.04545
  Beta  occ. eigenvalues --  -56.04543 -56.04218 -56.04216 -56.04192 -56.04190
  Beta  occ. eigenvalues --  -18.81621 -18.81619  -9.97824  -9.97766  -9.97663
  Beta  occ. eigenvalues --   -9.97644  -9.95502  -9.95500  -8.43929  -8.43924
  Beta  occ. eigenvalues --   -8.43485  -8.43483  -6.26960  -6.26955  -6.26514
  Beta  occ. eigenvalues --   -6.26511  -6.25861  -6.25856  -6.25785  -6.25780
  Beta  occ. eigenvalues --   -6.25422  -6.25420  -6.25343  -6.25341  -2.38064
  Beta  occ. eigenvalues --   -2.38059  -2.37771  -2.37766  -2.37714  -2.37709
  Beta  occ. eigenvalues --   -2.37623  -2.37621  -2.37327  -2.37325  -2.37267
  Beta  occ. eigenvalues --   -2.37265  -2.36840  -2.36840  -2.36835  -2.36835
  Beta  occ. eigenvalues --   -2.36399  -2.36398  -2.36396  -2.36396  -0.75660
  Beta  occ. eigenvalues --   -0.72821  -0.61507  -0.55731  -0.53578  -0.51896
  Beta  occ. eigenvalues --   -0.50932  -0.43792  -0.42705  -0.31092  -0.30944
  Beta  occ. eigenvalues --   -0.24191  -0.20053  -0.16798  -0.16418  -0.14703
  Beta  occ. eigenvalues --   -0.14371  -0.12225  -0.11546  -0.10094  -0.09810
  Beta  occ. eigenvalues --   -0.07101  -0.05987  -0.05194  -0.05095  -0.04439
  Beta  occ. eigenvalues --   -0.03426  -0.02546  -0.01907   0.00436   0.03431
  Beta  occ. eigenvalues --    0.03976   0.08265
  Beta virt. eigenvalues --    0.15996   0.18633   0.19986   0.19997   0.20978
  Beta virt. eigenvalues --    0.22799   0.23154   0.23488   0.23730   0.24547
  Beta virt. eigenvalues --    0.24620   0.24718   0.25413   0.25644   0.25926

 Mulliken charges and spin densities:
               1          2
     1  Br  -0.347235   0.000000
     2  C   -0.091666  -0.000000
     3  C    0.677064  -0.000000
     4  Br  -0.350995   0.000000
     5  C   -0.514287  -0.000000
     6  O   -0.372829   0.000000
     7  C   -0.513850   0.000000
     8  O   -0.372784  -0.000000
     9  C    0.676687   0.000000
    10  C   -0.092057  -0.000000
    11  Br  -0.347142  -0.000000
    12  Br  -0.350905  -0.000000
 Sum of Mulliken charges =  -2.00000  -0.00000

 Dipole moment (field-independent basis, Debye):
    X=             -0.3415    Y=              1.2123    Z=              0.3032  Tot=              1.2955
 Quadrupole moment (field-independent basis, Debye-Ang):
   XX=           -177.5993   YY=           -182.2141   ZZ=           -133.8808
   XY=             -0.3930   XZ=             11.1629   YZ=             -5.7351

  Exact polarizability: 302.681   0.413 311.498 -36.982   4.351 133.101
 Approx polarizability: 469.884 -30.898 592.591 -67.158  46.048 215.078

                      1                      2                      3
                      A                      A                      A
 Frequencies --     32.5154                44.9075                85.2302
 Red. masses --     66.1823                29.0995                16.7269
 Frc consts  --      0.0412                 0.0346                 0.0716
 IR Inten    --      2.1549                 7.3671                 0.2377

                      4                      5                      6
                      A                      A                      A
 Frequencies --    111.8870               120.8730               126.5229
 Red. masses --     63.3449                41.8872                23.5159
 Frc consts  --      0.4672                 0.3606                 0.2218
 IR Inten    --      7.5431                 6.9193                12.2565

                      7                      8                      9
                      A                      A                      A
 Frequencies --    131.9755               142.0536               190.0928
 Red. masses --     44.5739                56.8234                29.8138
 Frc consts  --      0.4574                 0.6756                 0.6347
 IR Inten    --      9.1596                 5.9828                 9.8412

                     10                     11                     12
                      A                      A                      A
 Frequencies --    221.8405               251.5687               259.1940
 Red. masses --     19.4846                17.2374                13.0818
 Frc consts  --      0.5650                 0.6427                 0.5178
 IR Inten    --      0.9228                75.7349                 5.6711

                     13                     14                     15
                      A                      A                      A
 Frequencies --    371.2604               378.0612               403.8240
 Red. masses --     15.2702                14.8086                12.6853
 Frc consts  --      1.2401                 1.2471                 1.2188
 IR Inten    --      9.6632                51.2340               122.0592

                     16                     17                     18
                      A                      A                      A
 Frequencies --    501.8834               535.2739               559.4130
 Red. masses --     12.6348                12.4313                12.3292
 Frc consts  --      1.8751                 2.0986                 2.2733
 IR Inten    --    376.5657                26.3577                11.9422

                     19                     20                     21
                      A                      A                      A
 Frequencies --    596.0158               687.0479               770.8766
 Red. masses --     12.5167                12.6490                12.2203
 Frc consts  --      2.6197                 3.5179                 4.2786
 IR Inten    --    271.7610                61.4526                 1.3723

                     22                     23                     24
                      A                      A                      A
 Frequencies --    794.9019               794.9421              1094.2956
 Red. masses --     12.3535                12.6172                12.0357
 Frc consts  --      4.5991                 4.6977                 8.4917
 IR Inten    --     95.9976                52.3040               212.7357

                     25                     26                     27
                      A                      A                      A
 Frequencies --   1150.7153              1242.9863              1390.0656
 Red. masses --     12.2650                12.1147                12.1025
 Frc consts  --      9.5687                11.0280                13.7783
 IR Inten    --    117.8166               437.7733                36.0444

                     28                     29                     30
                      A                      A                      A
 Frequencies --   1470.5362              1583.0216              1588.0211
 Red. masses --     12.0057                12.9836                13.1492
 Frc consts  --     15.2964                19.1699                19.5372
 IR Inten    --     78.5027               105.6436              1616.1109

 - Thermochemistry -
 -------------------
 Temperature   298.150 Kelvin.  Pressure   1.00000 Atm.
 Atom     1 has atomic number 35 and mass  78.91834

 Molecular mass:   419.66317 amu.
 Principal axes and moments of inertia in atomic units:
                           1         2         3
     Eigenvalues --  4790.650968371.17979**********
           X            0.93164  -0.30872   0.19165
           Y            0.31164   0.95007   0.01549
           Z           -0.18686   0.04530   0.98134
 This molecule is an asymmetric top.
 Rotational symmetry number  1.
 Warning -- assumption of classical behavior for rotation
           may cause significant error
 Rotational temperatures (Kelvin)      0.01808     0.01035     0.00678
 Rotational constants (GHZ):           0.37672     0.21559     0.14129
 Zero-point vibrational energy     105461.6 (Joules/Mol)
                                   25.20593 (Kcal/Mol)
 Warning -- explicit consideration of  19 degrees of freedom as
           vibrations may cause significant error
 Vibrational temperatures:     46.78    64.61   122.63   160.98   173.91
          (Kelvin)            182.04   189.88   204.38   273.50   319.18
                              361.95   372.92   534.16   543.95   581.01
                              722.10   770.14   804.87   857.53   988.51
                             1109.12  1143.69  1143.74  1574.45  1655.62
                             1788.38  1999.99  2115.77  2277.61  2284.81

 Zero-point correction=                           0.040168 (Hartree/Particle)
 Thermal correction to Energy=                    0.053157
 Thermal correction to Enthalpy=                  0.054101
 Thermal correction to Gibbs Free Energy=        -0.003902
 Sum of electronic and zero-point Energies=         -10675.715508
 Sum of electronic and thermal Energies=            -10675.702520
 Sum of electronic and thermal Enthalpies=          -10675.701575
 Sum of electronic and thermal Free Energies=       -10675.759579

                     E (Thermal)             CV                S
                      KCal/Mol        Cal/Mol-Kelvin    Cal/Mol-Kelvin
 Total                   33.356             41.648            122.079
 Electronic               0.000              0.000              0.000
 Translational            0.889              2.981             43.993
 Rotational               0.889              2.981             34.592
 Vibrational             31.579             35.687             43.493
 Vibration     1          0.594              1.983              5.670
 Vibration     2          0.595              1.979              5.030
 Vibration     3          0.601              1.959              3.767
 Vibration     4          0.607              1.940              3.236
 Vibration     5          0.609              1.932              3.086
 Vibration     6          0.611              1.927              2.998
 Vibration     7          0.612              1.921              2.917
 Vibration     8          0.616              1.911              2.776
 Vibration     9          0.633              1.854              2.227
 Vibration    10          0.648              1.808              1.944
 Vibration    11          0.664              1.760              1.720
 Vibration    12          0.668              1.747              1.667
 Vibration    13          0.743              1.531              1.075
 Vibration    14          0.748              1.517              1.047
 Vibration    15          0.769              1.462              0.949
 Vibration    16          0.857              1.246              0.653
 Vibration    17          0.890              1.172              0.576
 Vibration    18          0.915              1.119              0.525
 Vibration    19          0.954              1.040              0.457

 Optimization completed.
    -- Stationary point found.
 Normal termination of Gaussian 16 at Fri Jan 12 19:56:03 2024.
