 Gaussian 16, Revision A.03,
 Gaussian 16:  ES64L-G16RevA.03 25-Dec-2016

 --------------------------------------
 #P UB3LYP/6-311++G(d,p) nosym opt freq
 --------------------------------------

 -------
 Reduced
 -------
 Symbolic Z-matrix:
 Charge = -2 Multiplicity = 1

 SCF Done:  E(UB3LYP) =  -992.890398617     A.U. after   28 cycles
 Optimization completed.
    -- Stationary point found.
 Normal termination of Gaussian 16 at Wed Dec 27 21:12:04 2023.

 ----------------------------------------------------------------------
 #P Geom=AllCheck Guess=TCheck SCRF=Check GenChk UB3LYP/6-311++G(d,p) F
 req
 ----------------------------------------------------------------------

 Structure from the checkpoint file:  "171-an.chk"
 -------
 Reduced
 -------
 Charge = -2 Multiplicity = 1

                          Input orientation:
 ---------------------------------------------------------------------
 Center     Atomic      Atomic             Coordinates (Angstroms)
 Number     Number       Type             X           Y           Z
 ---------------------------------------------------------------------
      1          6           0       -1.318505    1.930396   -4.234279
      2          6           0       -1.230968    0.556597   -4.319575
      3          6           0       -0.945672   -0.203651   -3.151499
      4          6           0       -1.137703    2.620022   -3.007538
      5          6           0       -0.849753    1.851913   -1.827423
      6          6           0       -0.759414    0.440489   -1.946520
      7          6           0       -1.233081    4.057635   -2.977659
      8          6           0       -0.637408    2.473692   -0.546142
      9          6           0       -1.061611    4.689488   -1.690467
     10          6           0       -0.773723    3.908321   -0.492807
     11          6           0       -1.127135    6.136670   -1.578258
     12          6           0       -0.823921    6.752170   -0.374492
     13          6           0       -0.548216    5.992743    0.789960
     14          6           0       -0.574367    4.608377    0.766216
     15          8           0       -1.449274    4.711701   -4.084897
     16          8           0       -0.320596    1.737767    0.484139
     17          1           0       -1.530169    2.539854   -5.106472
     18          1           0       -1.378259    0.055298   -5.274465
     19          1           0       -0.874402   -1.288188   -3.210494
     20          1           0       -0.535300   -0.109324   -1.038613
     21          1           0       -0.357871    6.516177    1.720905
     22          1           0       -0.835213    7.834677   -0.300531
     23          7           0       -1.510235    6.874517   -2.697685
     24          6           0       -1.187995    8.264875   -2.817978
     25          1           0       -1.503743    6.265608   -3.538446
     26          1           0       -0.120959    8.493148   -2.617580
     27          1           0       -1.775110    8.894993   -2.128866
     28          1           0       -1.419801    8.595093   -3.836296
     29          7           0       -0.437486    3.850826    1.931224
     30          6           0        0.146724    4.396655    3.120916
     31          6           0        0.311757    3.308937    4.179462
     32          8           0        0.843201    3.817213    5.416443
     33          1           0       -0.258908    2.856338    1.671407
     34          1           0       -0.475752    5.199843    3.542603
     35          1           0        1.147036    4.854493    2.938178
     36          1           0        0.954245    2.507680    3.791580
     37          1           0       -0.657001    2.870843    4.426810
     38          1           0        1.673918    4.265083    5.209871
 ---------------------------------------------------------------------

 SCF Done:  E(UB3LYP) =  -992.890398617     A.U. after    2 cycles

 Alpha  occ. eigenvalues --  -18.94762 -18.80670 -18.80608 -14.07095 -14.07060
 Alpha  occ. eigenvalues --  -10.02960  -9.99572  -9.99535  -9.96567  -9.96562
 Alpha  occ. eigenvalues --   -9.96208  -9.96034  -9.94474  -9.94430  -9.93626
 Alpha  occ. eigenvalues --   -9.93585  -9.92553  -9.92487  -9.92465  -9.92403
 Alpha  occ. eigenvalues --   -9.92154  -9.92114  -0.84329  -0.72847  -0.72448
 Alpha  occ. eigenvalues --   -0.69066  -0.68662  -0.61432  -0.59159  -0.54349
 Alpha  occ. eigenvalues --   -0.53549  -0.51175  -0.50197  -0.48888  -0.45132
 Alpha  occ. eigenvalues --   -0.42917  -0.42126  -0.38861  -0.37785  -0.34234
 Alpha  occ. eigenvalues --   -0.32958  -0.31614  -0.30063  -0.28910  -0.27750
 Alpha  occ. eigenvalues --   -0.26831  -0.25775  -0.24025  -0.23549  -0.22759
 Alpha  occ. eigenvalues --   -0.22250  -0.22088  -0.21293  -0.19462  -0.18938
 Alpha  occ. eigenvalues --   -0.18566  -0.17983  -0.16633  -0.16397  -0.15559
 Alpha  occ. eigenvalues --   -0.14577  -0.14091  -0.13670  -0.13241  -0.12285
 Alpha  occ. eigenvalues --   -0.11064  -0.10654  -0.10062  -0.09094  -0.08766
 Alpha  occ. eigenvalues --   -0.07193  -0.01988  -0.01547  -0.00493   0.00207
 Alpha  occ. eigenvalues --    0.01439   0.01943   0.05547   0.11549
 Alpha virt. eigenvalues --    0.13271   0.14579   0.15349   0.16963   0.17076
 Alpha virt. eigenvalues --    0.17303   0.18203   0.18423   0.18977   0.19554
 Alpha virt. eigenvalues --    0.19825   0.20573   0.21043   0.21525   0.21839

  Beta  occ. eigenvalues --  -18.94762 -18.80670 -18.80608 -14.07095 -14.07060
  Beta  occ. eigenvalues --  -10.02960  -9.99572  -9.99535  -9.96567  -9.96562
  Beta  occ. eigenvalues --   -9.96208  -9.96034  -9.94474  -9.94430  -9.93626
  Beta  occ. eigenvalues --   -9.93585  -9.92553  -9.92487  -9.92465  -9.92403
  Beta  occ. eigenvalues --   -9.92154  -9.92114  -0.84329  -0.72847  -0.72448
  Beta  occ. eigenvalues --   -0.69066  -0.68662  -0.61432  -0.59159  -0.54349
  Beta  occ. eigenvalues --   -0.53549  -0.51175  -0.50197  -0.48888  -0.45132
  Beta  occ. eigenvalues --   -0.42917  -0.42126  -0.38861  -0.37785  -0.34234
  Beta  occ. eigenvalues --   -0.32958  -0.31614  -0.30063  -0.28910  -0.27750
  Beta  occ. eigenvalues --   -0.26831  -0.25775  -0.24025  -0.23549  -0.22759
  Beta  occ. eigenvalues --   -0.22250  -0.22088  -0.21293  -0.19462  -0.18938
  Beta  occ. eigenvalues --   -0.18566  -0.17983  -0.16633  -0.16397  -0.15559
  Beta  occ. eigenvalues --   -0.14577  -0.14091  -0.13670  -0.13241  -0.12285
  Beta  occ. eigenvalues --   -0.11064  -0.10654  -0.10062  -0.09094  -0.08766
  Beta  occ. eigenvalues --   -0.07193  -0.01988  -0.01547  -0.00493   0.00207
  Beta  occ. eigenvalues --    0.01439   0.01943   0.05547   0.11549
  Beta virt. eigenvalues --    0.13271   0.14579   0.15349   0.16963   0.17076
  Beta virt. eigenvalues --    0.17303   0.18203   0.18423   0.18977   0.19554
  Beta virt. eigenvalues --    0.19825   0.20573   0.21043   0.21525   0.21839

 Mulliken charges and spin densities:
               1          2
     1  C   -0.054234   0.000000
     2  C   -0.530992  -0.000000
     3  C   -0.486683  -0.000000
     4  C    0.353264  -0.000000
     5  C    0.273854  -0.000000
     6  C   -0.089501   0.000000
     7  C   -0.617415  -0.000000
     8  C   -0.642589   0.000000
     9  C    0.345518   0.000000
    10  C    0.393532  -0.000000
    11  C   -0.056733  -0.000000
    12  C   -0.236166  -0.000000
    13  C   -0.321971   0.000000
    14  C   -0.121364  -0.000000
    15  O   -0.483207   0.000000
    16  O   -0.461216   0.000000
    17  H    0.132183   0.000000
    18  H    0.079855  -0.000000
    19  H    0.082179  -0.000000
    20  H    0.122141   0.000000
    21  H    0.066685  -0.000000
    22  H    0.101585   0.000000
    23  N   -0.210886   0.000000
    24  C   -0.394327  -0.000000
    25  H    0.381289  -0.000000
    26  H    0.072888  -0.000000
    27  H    0.111082  -0.000000
    28  H    0.076246   0.000000
    29  N   -0.093256   0.000000
    30  C   -0.266000  -0.000000
    31  C    0.146722   0.000000
    32  O   -0.286399  -0.000000
    33  H    0.509827   0.000000
    34  H    0.126333  -0.000000
    35  H   -0.081993  -0.000000
    36  H    0.016194  -0.000000
    37  H    0.151178  -0.000000
    38  H   -0.107622  -0.000000
 Sum of Mulliken charges =  -2.00000   0.00000

 Dipole moment (field-independent basis, Debye):
    X=              6.2154    Y=            -34.7468    Z=              6.7695  Tot=             35.9415
 Quadrupole moment (field-independent basis, Debye-Ang):
   XX=           -161.7300   YY=           -316.0454   ZZ=           -256.5564
   XY=             23.7786   XZ=            -31.7102   YZ=             19.9618

  Exact polarizability: 537.559  79.924 530.597 675.677 150.2521702.909
 Approx polarizability:1231.886 227.348 833.3261827.834 484.3284011.727

                      1                      2                      3
                      A                      A                      A
 Frequencies --     31.5056                49.6599                59.1297
 Red. masses --      6.8458                 4.5327                 2.4482
 Frc consts  --      0.0040                 0.0066                 0.0050
 IR Inten    --      3.7848                 4.2611                 3.5101

                      4                      5                      6
                      A                      A                      A
 Frequencies --     66.8235                75.4435                97.5203
 Red. masses --      4.8553                 3.2603                 4.0174
 Frc consts  --      0.0128                 0.0109                 0.0225
 IR Inten    --     11.7280                18.9026                 2.8355

                      7                      8                      9
                      A                      A                      A
 Frequencies --    124.9670               136.5316               161.9679
 Red. masses --      3.4034                 4.5549                 3.7365
 Frc consts  --      0.0313                 0.0500                 0.0578
 IR Inten    --     42.2724                 0.2048                13.3967

                     10                     11                     12
                      A                      A                      A
 Frequencies --    176.8527               184.7855               221.5337
 Red. masses --      4.0878                 5.0765                 1.3635
 Frc consts  --      0.0753                 0.1021                 0.0394
 IR Inten    --     11.4895                 1.2904                 3.8960

                     13                     14                     15
                      A                      A                      A
 Frequencies --    226.1176               248.7136               273.0350
 Red. masses --      2.3742                 4.9714                 4.9085
 Frc consts  --      0.0715                 0.1812                 0.2156
 IR Inten    --    128.7854                13.5261                 2.0822

                     16                     17                     18
                      A                      A                      A
 Frequencies --    300.9979               326.7258               337.2013
 Red. masses --      1.9003                 4.0959                 2.2844
 Frc consts  --      0.1014                 0.2576                 0.1530
 IR Inten    --    113.0054                33.9467                31.3871

                     19                     20                     21
                      A                      A                      A
 Frequencies --    375.9092               383.3135               391.4081
 Red. masses --      5.5147                 6.1196                 7.6305
 Frc consts  --      0.4591                 0.5298                 0.6888
 IR Inten    --     15.6708                29.7235                 1.6642

                     22                     23                     24
                      A                      A                      A
 Frequencies --    408.3798               438.4220               443.7964
 Red. masses --      7.9535                 7.5890                 3.9389
 Frc consts  --      0.7815                 0.8595                 0.4571
 IR Inten    --      7.0072                 8.0058                11.9901

                     25                     26                     27
                      A                      A                      A
 Frequencies --    472.6099               492.6037               497.5490
 Red. masses --      6.0068                 5.9152                 5.8368
 Frc consts  --      0.7905                 0.8457                 0.8513
 IR Inten    --     93.7236               132.1104               149.4968

                     28                     29                     30
                      A                      A                      A
 Frequencies --    529.4608               576.4327               610.5760
 Red. masses --      5.4428                 4.2988                 2.9931
 Frc consts  --      0.8990                 0.8416                 0.6574
 IR Inten    --     24.7452                90.5976                51.9954

                     31                     32                     33
                      A                      A                      A
 Frequencies --    623.2375               631.4467               663.9387
 Red. masses --      5.1792                 4.6782                 5.6839
 Frc consts  --      1.1853                 1.0990                 1.4762
 IR Inten    --     12.4521                 0.7210                89.3263

                     34                     35                     36
                      A                      A                      A
 Frequencies --    703.1469               724.1031               729.7137
 Red. masses --      1.5974                 5.8188                 3.6950
 Frc consts  --      0.4653                 1.7976                 1.1592
 IR Inten    --     34.2978                 3.1444                 1.7694

                     37                     38                     39
                      A                      A                      A
 Frequencies --    743.6837               755.9598               769.1617
 Red. masses --      1.7660                 4.3581                 3.4717
 Frc consts  --      0.5755                 1.4674                 1.2101
 IR Inten    --     71.1127                38.3464                 7.8219

                     40                     41                     42
                      A                      A                      A
 Frequencies --    783.9016               793.0923               817.7083
 Red. masses --      1.6122                 1.8590                 1.1936
 Frc consts  --      0.5837                 0.6889                 0.4702
 IR Inten    --      2.4415                 4.9373                20.3767

                     43                     44                     45
                      A                      A                      A
 Frequencies --    823.7735               849.0675               873.8028
 Red. masses --      2.9680                 3.7496                 2.2267
 Frc consts  --      1.1867                 1.5926                 1.0017
 IR Inten    --      1.5104               139.0946                23.5726

                     46                     47                     48
                      A                      A                      A
 Frequencies --    893.3078               911.5199               948.2004
 Red. masses --      1.4143                 1.8404                 4.9359
 Frc consts  --      0.6650                 0.9010                 2.6146
 IR Inten    --     73.4924                12.6159                20.4103

                     49                     50                     51
                      A                      A                      A
 Frequencies --    956.6170               960.9755              1006.5559
 Red. masses --      1.2330                 1.3539                 4.3020
 Frc consts  --      0.6648                 0.7366                 2.5680
 IR Inten    --      0.3645                 2.2859               214.0129

                     52                     53                     54
                      A                      A                      A
 Frequencies --   1012.9594              1041.0305              1060.3028
 Red. masses --      2.4188                 2.6513                 2.4697
 Frc consts  --      1.4623                 1.6929                 1.6359
 IR Inten    --    413.5179                18.1467                11.9692

                     55                     56                     57
                      A                      A                      A
 Frequencies --   1095.2106              1095.9690              1107.8954
 Red. masses --      1.9074                 2.0080                 1.9272
 Frc consts  --      1.3480                 1.4210                 1.3937
 IR Inten    --     48.5816                62.5328                37.9779

                     58                     59                     60
                      A                      A                      A
 Frequencies --   1129.9186              1139.8737              1150.6497
 Red. masses --      1.3770                 1.3617                 3.4349
 Frc consts  --      1.0358                 1.0425                 2.6795
 IR Inten    --     75.4013                11.0411                34.4220

                     61                     62                     63
                      A                      A                      A
 Frequencies --   1165.6983              1177.2003              1183.3461
 Red. masses --      2.4257                 1.9122                 1.4968
 Frc consts  --      1.9421                 1.5613                 1.2349
 IR Inten    --     12.8767                52.3206                18.8244

                     64                     65                     66
                      A                      A                      A
 Frequencies --   1189.7187              1227.0052              1243.0049
 Red. masses --      1.2193                 3.4237                 2.1066
 Frc consts  --      1.0168                 3.0369                 1.9176
 IR Inten    --    111.0752               146.9760                30.1677

                     67                     68                     69
                      A                      A                      A
 Frequencies --   1250.3521              1267.7817              1281.1467
 Red. masses --      3.2333                 3.5277                 1.3056
 Frc consts  --      2.9782                 3.3406                 1.2626
 IR Inten    --   2646.7051               159.3354               154.6162

                     70                     71                     72
                      A                      A                      A
 Frequencies --   1289.6129              1321.7955              1334.7870
 Red. masses --      4.6729                 1.3135                 1.8224
 Frc consts  --      4.5789                 1.3521                 1.9130
 IR Inten    --    632.3789                 9.3953               140.8063

                     73                     74                     75
                      A                      A                      A
 Frequencies --   1349.4705              1363.9791              1366.7068
 Red. masses --      3.8446                 2.5268                 1.7981
 Frc consts  --      4.1251                 2.7697                 1.9788
 IR Inten    --    500.8372               560.8237                78.4277

                     76                     77                     78
                      A                      A                      A
 Frequencies --   1384.7122              1415.7397              1427.8538
 Red. masses --      2.6142                 1.4412                 7.8216
 Frc consts  --      2.9533                 1.7019                 9.3953
 IR Inten    --    396.4029                26.1257               712.9074

                     79                     80                     81
                      A                      A                      A
 Frequencies --   1441.6977              1463.0952              1465.0207
 Red. masses --      1.3117                 1.3918                 2.0717
 Frc consts  --      1.6064                 1.7554                 2.6198
 IR Inten    --    111.8025                46.8670                98.7973

                     82                     83                     84
                      A                      A                      A
 Frequencies --   1468.3532              1486.7465              1503.5237
 Red. masses --      2.4725                 4.8919                 1.1028
 Frc consts  --      3.1409                 6.3709                 1.4688
 IR Inten    --    302.9403                 3.0030                43.2638

                     85                     86                     87
                      A                      A                      A
 Frequencies --   1512.2215              1516.8676              1540.6144
 Red. masses --      1.0526                 1.1164                 4.8153
 Frc consts  --      1.4183                 1.5135                 6.7339
 IR Inten    --     92.6266                27.6820                50.6252

                     88                     89                     90
                      A                      A                      A
 Frequencies --   1552.1972              1576.0131              1591.3748
 Red. masses --      2.0122                 3.8386                 5.1557
 Frc consts  --      2.8564                 5.6176                 7.6928
 IR Inten    --    214.4397              2716.1442                 0.5039

                     91                     92                     93
                      A                      A                      A
 Frequencies --   1605.6178              1621.5783              2788.0011
 Red. masses --      1.9124                 2.3915                 1.0747
 Frc consts  --      2.9048                 3.7051                 4.9218
 IR Inten    --    955.7268                25.3684               308.5946

                     94                     95                     96
                      A                      A                      A
 Frequencies --   2850.2568              2914.4914              2950.4838
 Red. masses --      1.0709                 1.0709                 1.0842
 Frc consts  --      5.1260                 5.3595                 5.5609
 IR Inten    --    665.3545               316.3670               201.0590

                     97                     98                     99
                      A                      A                      A
 Frequencies --   2999.9282              3005.5107              3040.1029
 Red. masses --      1.0695                 1.0844                 1.0881
 Frc consts  --      5.6710                 5.7712                 5.9249
 IR Inten    --     90.2744               346.5532               157.3642

                    100                    101                    102
                      A                      A                      A
 Frequencies --   3082.6228              3084.9752              3096.3297
 Red. masses --      1.0864                 1.0952                 1.0830
 Frc consts  --      6.0826                 6.1408                 6.1173
 IR Inten    --    325.1173                41.7278                32.0005

                    103                    104                    105
                      A                      A                      A
 Frequencies --   3119.6944              3140.6294              3161.9666
 Red. masses --      1.0910                 1.0839                 1.0912
 Frc consts  --      6.2558                 6.2988                 6.4276
 IR Inten    --    245.1013                31.7960                53.5916

                    106                    107                    108
                      A                      A                      A
 Frequencies --   3167.6042              3170.1184              3738.3717
 Red. masses --      1.0903                 1.0912                 1.0662
 Frc consts  --      6.4458                 6.4612                 8.7791
 IR Inten    --     34.2243               128.5841              2891.1341

 - Thermochemistry -
 -------------------
 Temperature   298.150 Kelvin.  Pressure   1.00000 Atm.
 Atom     1 has atomic number  6 and mass  12.00000

 Molecular mass:   296.11609 amu.
 Principal axes and moments of inertia in atomic units:
                           1         2         3
     Eigenvalues --  5122.323958665.17000**********
           X            0.19932  -0.09499   0.97532
           Y            0.17863   0.98214   0.05915
           Z            0.96352  -0.16243  -0.21272
 This molecule is an asymmetric top.
 Rotational symmetry number  1.
 Warning -- assumption of classical behavior for rotation
           may cause significant error
 Rotational temperatures (Kelvin)      0.01691     0.01000     0.00632
 Rotational constants (GHZ):           0.35233     0.20828     0.13159
 Zero-point vibrational energy     774059.4 (Joules/Mol)
                                  185.00463 (Kcal/Mol)
 Warning -- explicit consideration of  30 degrees of freedom as
           vibrations may cause significant error
 Vibrational temperatures:     45.33    71.45    85.07    96.14   108.55
          (Kelvin)            140.31   179.80   196.44   233.04   254.45
                              265.87   318.74   325.33   357.84   392.84
                              433.07   470.09   485.16   540.85   551.50
                              563.15   587.57   630.79   638.52   679.98
                              708.75   715.86   761.78   829.36   878.48
                              896.70   908.51   955.26  1011.67  1041.82
                             1049.90  1069.99  1087.66  1106.65  1127.86
                             1141.08  1176.50  1185.23  1221.62  1257.21
                             1285.27  1311.47  1364.25  1376.36  1382.63
                             1448.21  1457.42  1497.81  1525.54  1575.76
                             1576.85  1594.01  1625.70  1640.02  1655.53
                             1677.18  1693.73  1702.57  1711.74  1765.39
                             1788.41  1798.98  1824.06  1843.28  1855.47
                             1901.77  1920.46  1941.59  1962.46  1966.39
                             1992.29  2036.93  2054.36  2074.28  2105.07
                             2107.84  2112.63  2139.10  2163.24  2175.75
                             2182.43  2216.60  2233.27  2267.53  2289.63
                             2310.13  2333.09  4011.31  4100.88  4193.30
                             4245.09  4316.23  4324.26  4374.03  4435.21
                             4438.59  4454.93  4488.54  4518.67  4549.36
                             4557.48  4561.09  5378.68

 Zero-point correction=                           0.294824 (Hartree/Particle)
 Thermal correction to Energy=                    0.314130
 Thermal correction to Enthalpy=                  0.315074
 Thermal correction to Gibbs Free Energy=         0.246766
 Sum of electronic and zero-point Energies=           -992.595575
 Sum of electronic and thermal Energies=              -992.576269
 Sum of electronic and thermal Enthalpies=            -992.575325
 Sum of electronic and thermal Free Energies=         -992.643633

                     E (Thermal)             CV                S
                      KCal/Mol        Cal/Mol-Kelvin    Cal/Mol-Kelvin
 Total                  197.119             75.231            143.766
 Electronic               0.000              0.000              0.000
 Translational            0.889              2.981             42.954
 Rotational               0.889              2.981             34.764
 Vibrational            195.342             69.270             66.049
 Vibration     1          0.594              1.983              5.732
 Vibration     2          0.595              1.978              4.831
 Vibration     3          0.596              1.974              4.486
 Vibration     4          0.598              1.970              4.245
 Vibration     5          0.599              1.965              4.006
 Vibration     6          0.603              1.951              3.503
 Vibration     7          0.610              1.928              3.022
 Vibration     8          0.614              1.917              2.852
 Vibration     9          0.622              1.889              2.527
 Vibration    10          0.628              1.871              2.361
 Vibration    11          0.631              1.861              2.280
 Vibration    12          0.648              1.808              1.947
 Vibration    13          0.650              1.801              1.910
 Vibration    14          0.662              1.765              1.740
 Vibration    15          0.676              1.723              1.577
 Vibration    16          0.693              1.672              1.411
 Vibration    17          0.710              1.622              1.276
 Vibration    18          0.718              1.601              1.225
 Vibration    19          0.747              1.521              1.056
 Vibration    20          0.753              1.506              1.026
 Vibration    21          0.759              1.489              0.995
 Vibration    22          0.773              1.452              0.932
 Vibration    23          0.799              1.386              0.832
 Vibration    24          0.803              1.375              0.815
 Vibration    25          0.829              1.311              0.730
 Vibration    26          0.848              1.266              0.677
 Vibration    27          0.853              1.255              0.664
 Vibration    28          0.884              1.185              0.588
 Vibration    29          0.933              1.082              0.492
 Vibration    30          0.970              1.009              0.432

                           ! Non-Optimized Parameters !
 Normal termination of Gaussian 16 at Thu Dec 28 00:00:44 2023.
