 Q-Chem 5.4, Q-Chem, Inc., Pleasanton, CA (2021)
 Q-Chem 5.4.0 for Intel X86 EM64T Linux

User input:
--------------------------------------------------------------
$molecule
-2 1
C                 -1.3185050000      1.9303960000     -4.2342790000
C                 -1.2309680000      0.5565970000     -4.3195750000
C                 -0.9456720000     -0.2036510000     -3.1514990000
C                 -1.1377030000      2.6200220000     -3.0075380000
C                 -0.8497530000      1.8519130000     -1.8274230000
C                 -0.7594140000      0.4404890000     -1.9465200000
C                 -1.2330810000      4.0576350000     -2.9776590000
C                 -0.6374080000      2.4736920000     -0.5461420000
C                 -1.0616110000      4.6894880000     -1.6904670000
C                 -0.7737230000      3.9083210000     -0.4928070000
C                 -1.1271350000      6.1366700000     -1.5782580000
C                 -0.8239210000      6.7521700000     -0.3744920000
C                 -0.5482160000      5.9927430000      0.7899600000
C                 -0.5743670000      4.6083770000      0.7662160000
O                 -1.4492740000      4.7117010000     -4.0848970000
O                 -0.3205960000      1.7377670000      0.4841390000
H                 -1.5301690000      2.5398540000     -5.1064720000
H                 -1.3782590000      0.0552980000     -5.2744650000
H                 -0.8744020000     -1.2881880000     -3.2104940000
H                 -0.5353000000     -0.1093240000     -1.0386130000
H                 -0.3578710000      6.5161770000      1.7209050000
H                 -0.8352130000      7.8346770000     -0.3005310000
N                 -1.5102350000      6.8745170000     -2.6976850000
C                 -1.1879950000      8.2648750000     -2.8179780000
H                 -1.5037430000      6.2656080000     -3.5384460000
H                 -0.1209590000      8.4931480000     -2.6175800000
H                 -1.7751100000      8.8949930000     -2.1288660000
H                 -1.4198010000      8.5950930000     -3.8362960000
N                 -0.4374860000      3.8508260000      1.9312240000
C                  0.1467240000      4.3966550000      3.1209160000
C                  0.3117570000      3.3089370000      4.1794620000
O                  0.8432010000      3.8172130000      5.4164430000
H                 -0.2589080000      2.8563380000      1.6714070000
H                 -0.4757520000      5.1998430000      3.5426030000
H                  1.1470360000      4.8544930000      2.9381780000
H                  0.9542450000      2.5076800000      3.7915800000
H                 -0.6570010000      2.8708430000      4.4268100000
H                  1.6739180000      4.2650830000      5.2098710000
$end

$rem
BASIS  =  6-311++G(d,p)
GUI  =  2
JOB_TYPE  =  SP
METHOD  =  B3LYP
SCF_CONVERGENCE  = 8
SOLVENT_METHOD = sm12
$end

$smx
solvent dimethylformamide
charges CM5
$end

--------------------------------------------------------------

             Standard Nuclear Orientation (Angstroms)
    I     Atom           X                Y                Z
 ----------------------------------------------------------------
    1      C      -1.3185050000     1.9303960000    -4.2342790000
    2      C      -1.2309680000     0.5565970000    -4.3195750000
    3      C      -0.9456720000    -0.2036510000    -3.1514990000
    4      C      -1.1377030000     2.6200220000    -3.0075380000
    5      C      -0.8497530000     1.8519130000    -1.8274230000
    6      C      -0.7594140000     0.4404890000    -1.9465200000
    7      C      -1.2330810000     4.0576350000    -2.9776590000
    8      C      -0.6374080000     2.4736920000    -0.5461420000
    9      C      -1.0616110000     4.6894880000    -1.6904670000
   10      C      -0.7737230000     3.9083210000    -0.4928070000
   11      C      -1.1271350000     6.1366700000    -1.5782580000
   12      C      -0.8239210000     6.7521700000    -0.3744920000
   13      C      -0.5482160000     5.9927430000     0.7899600000
   14      C      -0.5743670000     4.6083770000     0.7662160000
   15      O      -1.4492740000     4.7117010000    -4.0848970000
   16      O      -0.3205960000     1.7377670000     0.4841390000
   17      H      -1.5301690000     2.5398540000    -5.1064720000
   18      H      -1.3782590000     0.0552980000    -5.2744650000
   19      H      -0.8744020000    -1.2881880000    -3.2104940000
   20      H      -0.5353000000    -0.1093240000    -1.0386130000
   21      H      -0.3578710000     6.5161770000     1.7209050000
   22      H      -0.8352130000     7.8346770000    -0.3005310000
   23      N      -1.5102350000     6.8745170000    -2.6976850000
   24      C      -1.1879950000     8.2648750000    -2.8179780000
   25      H      -1.5037430000     6.2656080000    -3.5384460000
   26      H      -0.1209590000     8.4931480000    -2.6175800000
   27      H      -1.7751100000     8.8949930000    -2.1288660000
   28      H      -1.4198010000     8.5950930000    -3.8362960000
   29      N      -0.4374860000     3.8508260000     1.9312240000
   30      C       0.1467240000     4.3966550000     3.1209160000
   31      C       0.3117570000     3.3089370000     4.1794620000
   32      O       0.8432010000     3.8172130000     5.4164430000
   33      H      -0.2589080000     2.8563380000     1.6714070000
   34      H      -0.4757520000     5.1998430000     3.5426030000
   35      H       1.1470360000     4.8544930000     2.9381780000
   36      H       0.9542450000     2.5076800000     3.7915800000
   37      H      -0.6570010000     2.8708430000     4.4268100000
   38      H       1.6739180000     4.2650830000     5.2098710000
 ----------------------------------------------------------------

   17    -992.8753512053      9.25e-09  Convergence criterion met
 Total energy in the final basis set =     -993.1555136347

                    Orbital Energies (a.u.)
 --------------------------------------------------------------

 Alpha MOs
 -- Occupied --
-19.1289 -19.0358 -19.0354 -14.2925 -14.2913 -10.2185 -10.2014 -10.1989
-10.1942 -10.1942 -10.1926 -10.1920 -10.1720 -10.1715 -10.1671 -10.1671
-10.1581 -10.1577 -10.1538 -10.1534 -10.1523 -10.1516  -1.0246  -0.9578
 -0.9549  -0.9124  -0.9082  -0.8446  -0.8178  -0.7685  -0.7493  -0.7423
 -0.7270  -0.7058  -0.6674  -0.6509  -0.6363  -0.6160  -0.6028  -0.5677
 -0.5528  -0.5259  -0.5172  -0.5081  -0.4939  -0.4792  -0.4672  -0.4599
 -0.4531  -0.4517  -0.4432  -0.4336  -0.4220  -0.4185  -0.4065  -0.4011
 -0.3974  -0.3910  -0.3895  -0.3729  -0.3706  -0.3617  -0.3609  -0.3544
 -0.3435  -0.3369  -0.3348  -0.3214  -0.3170  -0.2976  -0.2834  -0.2466
 -0.2457  -0.2357  -0.2313  -0.2145  -0.2097  -0.1729  -0.1177

          Ground-State Mulliken Net Atomic Charges

     Atom                 Charge (a.u.)
  ----------------------------------------
      1 C                     0.140747
      2 C                     1.529200
      3 C                     1.598983
      4 C                    -0.945665
      5 C                    -0.790417
      6 C                     0.040551
      7 C                    -2.236648
      8 C                    -2.234859
      9 C                    -1.315577
     10 C                    -0.863412
     11 C                    -1.445040
     12 C                     1.000523
     13 C                     0.621337
     14 C                    -1.597709
     15 O                    -0.304340
     16 O                    -0.246919
     17 H                     0.156114
     18 H                     0.395029
     19 H                     0.400286
     20 H                     0.140956
     21 H                     0.271642
     22 H                     0.281989
     23 N                    -0.248249
     24 C                     0.216267
     25 H                     0.300803
     26 H                     0.179363
     27 H                     0.204618
     28 H                     0.342187
     29 N                    -0.053922
     30 C                     0.161164
     31 C                     0.976740
     32 O                    -0.087775
     33 H                     0.429201
     34 H                     0.225770
     35 H                     0.097032
     36 H                     0.179410
     37 H                     0.151274
     38 H                     0.329345
  ----------------------------------------
  Sum of atomic charges =    -2.000000

                    Cartesian Multipole Moments
 -----------------------------------------------------------------
    Charge (ESU x 10^10)
                -9.6064
    Dipole Moment (Debye)
         X       9.9115      Y     -34.0280      Z      13.0371
       Tot      37.7639
    Quadrupole Moments (Debye-Ang)
        XX    -155.2057     XY      40.5618     YY    -302.8191
        XZ     -18.8386     YZ      47.6494     ZZ    -226.1927

 Total job time:  1530.44s(wall), 12005.58s(cpu)
        *  Thank you very much for using Q-Chem.  Have a nice day.  *
