 Q-Chem 5.4, Q-Chem, Inc., Pleasanton, CA (2021)
 Q-Chem 5.4.0 for Intel X86 EM64T Linux

User input:
--------------------------------------------------------------
$molecule
-2 2
C                 -1.7813920000      1.9704760000     -5.1426660000
C                 -1.7678400000      0.6430170000     -5.5244110000
C                 -1.4734600000     -0.3582020000     -4.5688310000
C                 -1.5023270000      2.3539030000     -3.8118900000
C                 -1.2051430000      1.3517020000     -2.8546020000
C                 -1.2023340000     -0.0023920000     -3.2629540000
C                 -1.5392560000      3.7672190000     -3.4485810000
C                 -0.9104140000      1.6764150000     -1.4613850000
C                 -1.2193670000      4.1252320000     -2.0682800000
C                 -0.8579750000      3.1050210000     -1.1018490000
C                 -1.2395390000      5.5214540000     -1.6797550000
C                 -0.8653740000      5.8730610000     -0.3628200000
C                 -0.4698640000      4.8894890000      0.5340590000
C                 -0.4699140000      3.5512270000      0.1836190000
O                 -1.8377980000      4.6155710000     -4.3475660000
O                 -0.7190780000      0.7502470000     -0.6350740000
H                 -2.0077850000      2.7614750000     -5.8482240000
H                 -1.9841340000      0.3676210000     -6.5534690000
H                 -1.4617520000     -1.4046630000     -4.8634040000
H                 -0.9768130000     -0.7451650000     -2.5062580000
Br                 0.1825910000      2.3874850000      1.6090480000
N                 -1.6153700000      6.4845750000     -2.5596730000
S                 -0.9507810000      7.5925040000      0.2623890000
O                 -0.5114020000      8.4477210000     -0.8891470000
O                 -2.3721730000      7.8213540000      0.6335160000
O                 -0.0169790000      7.6335970000      1.4176450000
H                 -0.1515120000      5.1995860000      1.5201130000
H                 -1.7547430000      6.1684080000     -3.5156740000
H                 -1.3759610000      7.4396790000     -2.3104960000
$end
$rem
MAX_SCF_CYCLES=200
BASIS  =  6-311++G(d,p)
GUI  =  2
JOB_TYPE  =  SP
METHOD  =  B3LYP
SOLVENT_METHOD = COSMO
$end
$solvent
dielectric 37.219
opticaldielectric 1.43
$end

--------------------------------------------------------------

             Standard Nuclear Orientation (Angstroms)
    I     Atom           X                Y                Z
 ----------------------------------------------------------------
    1      C       3.9022316692    -2.2479950569    -0.0969219640
    2      C       5.2055326230    -1.7907307574    -0.0775239579
    3      C       5.4598389698    -0.4020854064     0.0185207085
    4      C       2.8102479758    -1.3544231182    -0.0265010550
    5      C       3.0641697944     0.0369146455     0.0674586520
    6      C       4.4052451399     0.4854966050     0.0923775296
    7      C       1.4489099283    -1.8811560092    -0.0379237720
    8      C       1.9835855503     1.0164002270     0.1468501642
    9      C       0.3464243822    -0.9230678609     0.0103033137
   10      C       0.6049013315     0.5042461810     0.0475569364
   11      C      -1.0165436064    -1.4157874290    -0.0081397807
   12      C      -2.0820071498    -0.4871861547    -0.0289204231
   13      C      -1.8166849095     0.8757088827    -0.0477673245
   14      C      -0.5212613282     1.3592743100    -0.0053928104
   15      O       1.2879997673    -3.1411266313    -0.0977938261
   16      O       2.2578896395     2.2327607034     0.2965530564
   17      H       3.6727792913    -3.3051152688    -0.1646992745
   18      H       6.0326926352    -2.4937478521    -0.1337351418
   19      H       6.4835600297    -0.0363992566     0.0346385725
   20      H       4.5662026826     1.5546879561     0.1703699104
   21      Br     -0.4286880732     3.3071727807    -0.1004075040
   22      N      -1.2762830397    -2.7483009558    -0.0010817743
   23      S      -3.8391552387    -0.9982927165     0.0476664932
   24      O      -3.9196980636    -2.2416417178    -0.7878461017
   25      O      -4.1267313187    -1.2558687980     1.4834301753
   26      O      -4.6019937616     0.1439403203    -0.5194951354
   27      H      -2.6557908451     1.5557615821    -0.1046900004
   28      H      -0.4632280935    -3.3494177381    -0.1056025160
   29      H      -2.2189403652    -3.0241919578    -0.2597530311
 ----------------------------------------------------------------

   10   -3941.2411542056      7.43e-06  Convergence criterion met
 Total energy in the final basis set =    -3941.2411542056
    4   -3941.4848012778      9.58e-06  Convergence criterion met
 Total energy in the final basis set =    -3941.4848012778

                    Orbital Energies (a.u.)
 --------------------------------------------------------------

 Alpha MOs
 -- Occupied --
******** -89.0532 -62.4707 -56.2911 -56.2874 -56.2870 -19.0981 -19.0974
-19.0968 -19.0832 -19.0770 -14.3050 -10.2345 -10.2324 -10.2298 -10.2201
-10.1925 -10.1902 -10.1854 -10.1831 -10.1741 -10.1735 -10.1735 -10.1729
-10.1698 -10.1692  -8.6793  -8.1117  -6.5106  -6.4983  -6.4972  -6.0746
 -6.0744  -6.0734  -2.6215  -2.6182  -2.6173  -2.6076  -2.6075  -1.1153
 -1.0106  -1.0063  -0.9811  -0.9781  -0.9228  -0.8628  -0.8531  -0.7965
 -0.7837  -0.7507  -0.7475  -0.7159  -0.6760  -0.6503  -0.6323  -0.6028
 -0.5766  -0.5600  -0.5519  -0.5237  -0.5089  -0.4911  -0.4816  -0.4736
 -0.4616  -0.4578  -0.4470  -0.4432  -0.4305  -0.4232  -0.4224  -0.4156
 -0.4084  -0.3941  -0.3913  -0.3857  -0.3668  -0.3560  -0.3496  -0.3442
 -0.3417  -0.3372  -0.3350  -0.3092  -0.3048  -0.2969  -0.2891  -0.2867
 -0.2685  -0.2647  -0.2569  -0.2523  -0.2496  -0.2315  -0.2122  -0.1440

 Beta MOs
 -- Occupied --
******** -89.0532 -62.4707 -56.2911 -56.2874 -56.2870 -19.0981 -19.0973
-19.0967 -19.0786 -19.0712 -14.3049 -10.2328 -10.2326 -10.2281 -10.2193
-10.1915 -10.1888 -10.1853 -10.1827 -10.1733 -10.1731 -10.1728 -10.1724
-10.1699 -10.1692  -8.6792  -8.1118  -6.5106  -6.4982  -6.4971  -6.0746
 -6.0744  -6.0734  -2.6215  -2.6181  -2.6173  -2.6075  -2.6075  -1.1151
 -1.0026  -0.9963  -0.9811  -0.9779  -0.9220  -0.8603  -0.8516  -0.7935
 -0.7818  -0.7487  -0.7457  -0.7135  -0.6704  -0.6481  -0.6298  -0.6019
 -0.5756  -0.5580  -0.5500  -0.5227  -0.5076  -0.4900  -0.4794  -0.4719
 -0.4609  -0.4575  -0.4462  -0.4420  -0.4225  -0.4219  -0.4202  -0.4106
 -0.4061  -0.3920  -0.3837  -0.3688  -0.3658  -0.3548  -0.3436  -0.3419
 -0.3398  -0.3360  -0.3282  -0.3072  -0.3045  -0.2960  -0.2878  -0.2819
 -0.2645  -0.2529  -0.2503  -0.2468  -0.2455  -0.2270  -0.2041

          Ground-State Mulliken Net Atomic Charges

     Atom                 Charge (a.u.)    Spin (a.u.)
  --------------------------------------------------------
      1 C                     0.122573       0.018152
      2 C                    -0.568664       0.038644
      3 C                    -0.433226       0.024049
      4 C                    -0.187853       0.015082
      5 C                     0.132256       0.025582
      6 C                     0.112255       0.038287
      7 C                    -0.331411       0.099344
      8 C                    -1.141787       0.096741
      9 C                     0.342062       0.005573
     10 C                     0.898311       0.071664
     11 C                     0.244240      -0.001804
     12 C                    -0.865923       0.089135
     13 C                    -0.225785       0.033416
     14 C                     0.277640       0.065338
     15 O                    -0.467621       0.165779
     16 O                    -0.381956       0.211960
     17 H                     0.181223      -0.000282
     18 H                     0.204398      -0.003364
     19 H                     0.204783      -0.002109
     20 H                     0.177600      -0.002255
     21 Br                   -0.248241       0.005400
     22 N                    -0.466090       0.006293
     23 S                     0.710366      -0.002304
     24 O                    -0.457140       0.003204
     25 O                    -0.371356       0.003628
     26 O                    -0.380658       0.000295
     27 H                     0.257593      -0.002419
     28 H                     0.362377      -0.002140
     29 H                     0.300020      -0.000887
  --------------------------------------------------------
  Sum of atomic charges =    -2.000012

                    Cartesian Multipole Moments
 -----------------------------------------------------------------
    Charge (ESU x 10^10)
                -9.6065
    Dipole Moment (Debye)
         X      14.9295      Y       3.2806      Z      -1.4138
       Tot      15.3509
    Quadrupole Moments (Debye-Ang)
        XX    -256.6316     XY     -24.8975     YY    -197.7271
        XZ       0.9341     YZ       0.5210     ZZ    -164.3022

 Total job time:  141.90s(wall), 1066.69s(cpu)
        *  Thank you very much for using Q-Chem.  Have a nice day.  *
