 Gaussian 16, Revision A.03,
 Gaussian 16:  ES64L-G16RevA.03 25-Dec-2016

 ----------------------------------------------------------------------
 #P UB3LYP/6-311++G(d,p) nosym opt freq SCRF=(PCM,Solvent=n,n-DiMethylF
 ormamide)
 ----------------------------------------------------------------------

 -------
 Radical
 -------
 Symbolic Z-matrix:
 Charge = -1 Multiplicity = 2

 SCF Done:  E(UB3LYP) =  -770.147045428     A.U. after   18 cycles
 SCF Done:  E(UB3LYP) =  -770.147338963     A.U. after   16 cycles
 SCF Done:  E(UB3LYP) =  -770.147404127     A.U. after   14 cycles
 SCF Done:  E(UB3LYP) =  -770.147407894     A.U. after   14 cycles
 SCF Done:  E(UB3LYP) =  -770.147409028     A.U. after   10 cycles
 SCF Done:  E(UB3LYP) =  -770.147409494     A.U. after   10 cycles
 Optimization completed.
    -- Stationary point found.
 Normal termination of Gaussian 16 at Sun Feb 11 02:15:21 2024.

 ----------------------------------------------------------------------
 #P Geom=AllCheck Guess=TCheck SCRF=Check GenChk UB3LYP/6-311++G(d,p) F
 req
 ----------------------------------------------------------------------

 Structure from the checkpoint file:  "240-rad.chk"
 -------
 Radical
 -------
 Charge = -1 Multiplicity = 2

                          Input orientation:
 ---------------------------------------------------------------------
 Center     Atomic      Atomic             Coordinates (Angstroms)
 Number     Number       Type             X           Y           Z
 ---------------------------------------------------------------------
      1          8           0        2.745405   -2.745219   -1.375518
      2          6           0        2.208126   -1.739835   -0.815370
      3          6           0        0.788569   -1.575017   -0.740008
      4          6           0        0.141250   -0.505007   -0.144494
      5          6           0       -1.377925   -0.472082   -0.145630
      6          6           0       -1.960312    0.720198   -0.939410
      7          6           0       -3.494993    0.679914   -0.978143
      8          6           0       -4.096044    0.615489    0.432841
      9          6           0       -3.525163   -0.568194    1.226095
     10          6           0       -1.990527   -0.532312    1.272911
     11          6           0        0.910312    0.560534    0.465711
     12          8           0        0.372929    1.563292    1.023443
     13          6           0        2.379980    0.436327    0.413964
     14          6           0        3.185137    1.440883    0.990199
     15          6           0        4.566454    1.358022    0.960544
     16          6           0        5.191950    0.256132    0.347526
     17          6           0        4.421477   -0.741315   -0.224021
     18          6           0        3.013833   -0.674189   -0.204092
     19          1           0        0.195023   -2.365313   -1.193510
     20          1           0       -1.703677   -1.383416   -0.665823
     21          1           0       -1.624351    1.650959   -0.473889
     22          1           0       -1.559750    0.707572   -1.959321
     23          1           0       -3.877507    1.555963   -1.513481
     24          1           0       -3.822140   -0.200566   -1.547571
     25          1           0       -3.869271    1.549007    0.964481
     26          1           0       -5.187785    0.543780    0.377380
     27          1           0       -3.853525   -1.505619    0.757117
     28          1           0       -3.929130   -0.572069    2.244512
     29          1           0       -1.611320   -1.417970    1.795066
     30          1           0       -1.656487    0.341731    1.838937
     31          1           0        2.691410    2.283496    1.459228
     32          1           0        5.167908    2.141412    1.409413
     33          1           0        6.274488    0.190531    0.324128
     34          1           0        4.885658   -1.597121   -0.699809
 ---------------------------------------------------------------------

 SCF Done:  E(UB3LYP) =  -770.147409494     A.U. after    2 cycles

 Alpha  occ. eigenvalues --  -19.07209 -19.07093 -10.21769 -10.21724 -10.17178
 Alpha  occ. eigenvalues --  -10.17130 -10.17128 -10.17057 -10.16900 -10.16824
 Alpha  occ. eigenvalues --  -10.16726 -10.16501 -10.15589 -10.15564 -10.15554
 Alpha  occ. eigenvalues --  -10.15508 -10.15128 -10.15118  -0.99383  -0.99049
 Alpha  occ. eigenvalues --   -0.85588  -0.83004  -0.79940  -0.75425  -0.74784
 Alpha  occ. eigenvalues --   -0.73187  -0.71765  -0.66823  -0.62398  -0.61073
 Alpha  occ. eigenvalues --   -0.60050  -0.58158  -0.55646  -0.54118  -0.50237
 Alpha  occ. eigenvalues --   -0.49608  -0.46943  -0.45709  -0.44930  -0.43301
 Alpha  occ. eigenvalues --   -0.42935  -0.42506  -0.41484  -0.41456  -0.40572
 Alpha  occ. eigenvalues --   -0.40467  -0.38420  -0.37963  -0.36997  -0.36895
 Alpha  occ. eigenvalues --   -0.36686  -0.34770  -0.34760  -0.33586  -0.33367
 Alpha  occ. eigenvalues --   -0.33113  -0.31172  -0.29714  -0.29638  -0.26701
 Alpha  occ. eigenvalues --   -0.25490  -0.24477  -0.23863  -0.23145  -0.15058
 Alpha virt. eigenvalues --   -0.03285  -0.01385  -0.00369   0.00243   0.00819
 Alpha virt. eigenvalues --    0.01499   0.01738   0.01993   0.03332   0.03709
 Alpha virt. eigenvalues --    0.03831   0.04143   0.04308   0.04821   0.04873

  Beta  occ. eigenvalues --  -19.06593 -19.06445 -10.21604 -10.21566 -10.17147
  Beta  occ. eigenvalues --  -10.17098 -10.17080 -10.17008 -10.16894 -10.16818
  Beta  occ. eigenvalues --  -10.16555 -10.16508 -10.15589 -10.15563 -10.15553
  Beta  occ. eigenvalues --  -10.15390 -10.15119 -10.15109  -0.98266  -0.97935
  Beta  occ. eigenvalues --   -0.85386  -0.82882  -0.79551  -0.75272  -0.74618
  Beta  occ. eigenvalues --   -0.73172  -0.71595  -0.65932  -0.62245  -0.60832
  Beta  occ. eigenvalues --   -0.60026  -0.58008  -0.55480  -0.54028  -0.50020
  Beta  occ. eigenvalues --   -0.49378  -0.46720  -0.45611  -0.44839  -0.43280
  Beta  occ. eigenvalues --   -0.42905  -0.42433  -0.41265  -0.40424  -0.40132
  Beta  occ. eigenvalues --   -0.39951  -0.38137  -0.37389  -0.36983  -0.36792
  Beta  occ. eigenvalues --   -0.34691  -0.34633  -0.33848  -0.33465  -0.33063
  Beta  occ. eigenvalues --   -0.33055  -0.31134  -0.29572  -0.29502  -0.24845
  Beta  occ. eigenvalues --   -0.24331  -0.23573  -0.23298  -0.22577
  Beta virt. eigenvalues --   -0.08364  -0.02552  -0.00358  -0.00293   0.00246
  Beta virt. eigenvalues --    0.00829   0.01527   0.01752   0.01996   0.03337
  Beta virt. eigenvalues --    0.03719   0.03869   0.04155   0.04412   0.04838

 Mulliken charges and spin densities:
               1          2
     1  O   -0.504973   0.221444
     2  C   -0.578988   0.119342
     3  C   -0.274251   0.071425
     4  C    0.553690   0.091604
     5  C    0.728141  -0.022526
     6  C   -0.545143   0.016009
     7  C   -0.354755   0.000879
     8  C   -0.413122   0.000187
     9  C   -0.353999   0.000880
    10  C   -0.544715   0.016000
    11  C   -0.777707   0.114356
    12  O   -0.434920   0.243688
    13  C   -0.149851   0.005982
    14  C    0.099758   0.043228
    15  C   -0.477889   0.023173
    16  C   -0.353574   0.026030
    17  C    0.041366   0.027393
    18  C    0.748221   0.022927
    19  H    0.183147  -0.007974
    20  H    0.170273  -0.002470
    21  H    0.180885  -0.001938
    22  H    0.160259   0.000078
    23  H    0.168484   0.000523
    24  H    0.124748  -0.000087
    25  H    0.111923   0.000055
    26  H    0.171744  -0.000018
    27  H    0.124746  -0.000088
    28  H    0.168540   0.000520
    29  H    0.160244   0.000075
    30  H    0.180857  -0.001948
    31  H    0.165112  -0.002356
    32  H    0.180795  -0.002061
    33  H    0.182068  -0.001979
    34  H    0.158886  -0.002356
 Sum of Mulliken charges =  -1.00000   1.00000

 Dipole moment (field-independent basis, Debye):
    X=             -8.2560    Y=              3.3809    Z=              1.1415  Tot=              8.9942
 Quadrupole moment (field-independent basis, Debye-Ang):
   XX=           -129.6634   YY=           -137.0823   ZZ=           -121.0308
   XY=             19.4677   XZ=              9.6458   YZ=            -11.9920

  Exact polarizability: 383.511 -11.450 309.924  -3.986  70.172 224.650
 Approx polarizability: 389.128 -20.318 359.265  -9.124  88.511 251.582

                      1                      2                      3
                      A                      A                      A
 Frequencies --     42.3032                45.1989                71.3388
 Red. masses --      5.4945                 3.4474                 3.5875
 Frc consts  --      0.0058                 0.0041                 0.0108
 IR Inten    --      6.0475                 2.5166                 1.0448

                      4                      5                      6
                      A                      A                      A
 Frequencies --    124.2027               132.0082               188.4833
 Red. masses --      4.9619                 5.0170                 3.1143
 Frc consts  --      0.0451                 0.0515                 0.0652
 IR Inten    --      8.4100                 4.7960                 4.9545

                      7                      8                      9
                      A                      A                      A
 Frequencies --    193.8848               225.9699               228.1882
 Red. masses --      5.7990                 3.4125                 2.2254
 Frc consts  --      0.1284                 0.1027                 0.0683
 IR Inten    --      0.5977                 3.0822                 1.1326

                     10                     11                     12
                      A                      A                      A
 Frequencies --    261.6070               279.6854               335.1400
 Red. masses --      4.3731                 6.2448                 1.8156
 Frc consts  --      0.1763                 0.2878                 0.1202
 IR Inten    --      0.1568                 3.0171                 0.5032

                     13                     14                     15
                      A                      A                      A
 Frequencies --    372.1395               415.3010               434.4699
 Red. masses --     10.9726                 3.8184                 2.5428
 Frc consts  --      0.8953                 0.3880                 0.2828
 IR Inten    --     29.6958                 1.8517                 2.1510

                     16                     17                     18
                      A                      A                      A
 Frequencies --    439.4838               454.3075               465.0438
 Red. masses --      3.1395                 4.3848                 3.3141
 Frc consts  --      0.3573                 0.5332                 0.4223
 IR Inten    --      0.2773                 0.8163                 2.3592

                     19                     20                     21
                      A                      A                      A
 Frequencies --    475.3537               505.9554               530.8537
 Red. masses --      6.3196                 3.1704                 3.9699
 Frc consts  --      0.8413                 0.4782                 0.6591
 IR Inten    --      0.9006                 6.2294                 0.8069

                     22                     23                     24
                      A                      A                      A
 Frequencies --    572.4121               650.1557               661.0002
 Red. masses --      4.1923                 4.4858                 3.2985
 Frc consts  --      0.8093                 1.1172                 0.8491
 IR Inten    --     13.4890                 1.9065                 9.0391

                     25                     26                     27
                      A                      A                      A
 Frequencies --    698.9637               715.3682               744.7295
 Red. masses --      5.2105                 3.3268                 4.8297
 Frc consts  --      1.4998                 1.0031                 1.5782
 IR Inten    --      0.9156                54.6722                38.6597

                     28                     29                     30
                      A                      A                      A
 Frequencies --    781.6537               793.8382               794.4109
 Red. masses --      1.7130                 1.6987                 3.3662
 Frc consts  --      0.6166                 0.6307                 1.2516
 IR Inten    --     70.9431                 1.2083                18.7431

                     31                     32                     33
                      A                      A                      A
 Frequencies --    796.8321               828.7618               847.1276
 Red. masses --      2.8228                 3.7169                 2.1712
 Frc consts  --      1.0560                 1.5042                 0.9180
 IR Inten    --      3.7971                14.2744                 1.2346

                     34                     35                     36
                      A                      A                      A
 Frequencies --    875.5063               888.5738               898.3800
 Red. masses --      1.6214                 1.4502                 1.7656
 Frc consts  --      0.7322                 0.6746                 0.8396
 IR Inten    --     39.9608                 0.0654                 0.5150

                     37                     38                     39
                      A                      A                      A
 Frequencies --    899.2701               928.9496               949.5457
 Red. masses --      1.7004                 1.6093                 3.5452
 Frc consts  --      0.8102                 0.8182                 1.8833
 IR Inten    --      0.7636                 1.0906                41.8747

                     40                     41                     42
                      A                      A                      A
 Frequencies --    985.1776              1001.4877              1025.1055
 Red. masses --      1.3702                 1.2881                 2.9325
 Frc consts  --      0.7836                 0.7612                 1.8156
 IR Inten    --      2.2839                 0.0977                13.2186

                     43                     44                     45
                      A                      A                      A
 Frequencies --   1031.6984              1044.2129              1052.3381
 Red. masses --      1.8671                 2.0744                 1.5667
 Frc consts  --      1.1709                 1.3327                 1.0222
 IR Inten    --      5.6354                23.3525                 0.0513

                     46                     47                     48
                      A                      A                      A
 Frequencies --   1081.7745              1088.2359              1101.2347
 Red. masses --      1.4904                 1.6673                 2.8633
 Frc consts  --      1.0276                 1.1634                 2.0459
 IR Inten    --      0.1160                 0.0073                12.4364

                     49                     50                     51
                      A                      A                      A
 Frequencies --   1129.1242              1151.6793              1162.8689
 Red. masses --      2.0762                 1.8705                 1.5856
 Frc consts  --      1.5596                 1.4617                 1.2633
 IR Inten    --     24.4661                 9.2264                 2.9592

                     52                     53                     54
                      A                      A                      A
 Frequencies --   1185.3294              1191.8117              1229.6795
 Red. masses --      1.9342                 1.4319                 1.9781
 Frc consts  --      1.6012                 1.1984                 1.7623
 IR Inten    --     22.1589                 0.3021                43.1820

                     55                     56                     57
                      A                      A                      A
 Frequencies --   1242.6793              1249.8834              1279.9643
 Red. masses --      2.2107                 1.5733                 1.2657
 Frc consts  --      2.0114                 1.4482                 1.2217
 IR Inten    --     71.7756                50.8780                 1.5080

                     58                     59                     60
                      A                      A                      A
 Frequencies --   1281.3261              1296.9283              1326.6284
 Red. masses --      1.2690                 1.7734                 1.3084
 Frc consts  --      1.2275                 1.7575                 1.3567
 IR Inten    --      5.9566                12.9242                 0.0254

                     61                     62                     63
                      A                      A                      A
 Frequencies --   1337.7409              1352.2655              1355.4736
 Red. masses --      1.4088                 9.2793                 1.2945
 Frc consts  --      1.4854                 9.9974                 1.4013
 IR Inten    --     24.7968                 2.3486                 1.3250

                     64                     65                     66
                      A                      A                      A
 Frequencies --   1362.4881              1371.0476              1373.6253
 Red. masses --      1.3615                 1.4462                 1.6401
 Frc consts  --      1.4891                 1.6017                 1.8233
 IR Inten    --      0.0075                 0.0083                 1.6468

                     67                     68                     69
                      A                      A                      A
 Frequencies --   1380.4250              1416.9125              1452.2675
 Red. masses --      1.6808                 2.2823                 3.6642
 Frc consts  --      1.8871                 2.6997                 4.5532
 IR Inten    --     15.2032                40.1706               829.3403

                     70                     71                     72
                      A                      A                      A
 Frequencies --   1469.7756              1478.4734              1479.5497
 Red. masses --      2.6300                 1.2959                 1.0968
 Frc consts  --      3.3474                 1.6690                 1.4147
 IR Inten    --     78.0981                18.1523                 1.9059

                     73                     74                     75
                      A                      A                      A
 Frequencies --   1481.5845              1484.3756              1486.8003
 Red. masses --      3.4078                 1.1130                 1.0939
 Frc consts  --      4.4073                 1.4449                 1.4248
 IR Inten    --      7.5565                19.2993                 6.8469

                     76                     77                     78
                      A                      A                      A
 Frequencies --   1497.0661              1512.7757              1550.7836
 Red. masses --      1.1133                 4.4193                 4.7578
 Frc consts  --      1.4701                 5.9587                 6.7415
 IR Inten    --      0.8799               798.3137                90.2985

                     79                     80                     81
                      A                      A                      A
 Frequencies --   1614.9205              1629.1859              2981.4592
 Red. masses --      7.3932                 5.9461                 1.0820
 Frc consts  --     11.3602                 9.2987                 5.6668
 IR Inten    --     30.5232                 7.1098                42.9713

                     82                     83                     84
                      A                      A                      A
 Frequencies --   2990.2254              2990.3504              2996.4404
 Red. masses --      1.0653                 1.0703                 1.0610
 Frc consts  --      5.6121                 5.6388                 5.6126
 IR Inten    --     28.9884                84.6582                65.2027

                     85                     86                     87
                      A                      A                      A
 Frequencies --   3014.4506              3017.5125              3033.3573
 Red. masses --      1.0648                 1.0672                 1.0958
 Frc consts  --      5.7008                 5.7253                 5.9405
 IR Inten    --     92.1287                44.1605               153.9034

                     88                     89                     90
                      A                      A                      A
 Frequencies --   3037.5511              3039.6017              3066.5303
 Red. masses --      1.0880                 1.1034                 1.0990
 Frc consts  --      5.9145                 6.0066                 6.0891
 IR Inten    --     96.7824               104.3554                 2.4214

                     91                     92                     93
                      A                      A                      A
 Frequencies --   3071.6282              3133.9607              3157.1029
 Red. masses --      1.0978                 1.0886                 1.0859
 Frc consts  --      6.1024                 6.2995                 6.3770
 IR Inten    --    121.0416                53.8341                 9.3793

                     94                     95                     96
                      A                      A                      A
 Frequencies --   3171.1145              3186.1148              3189.9843
 Red. masses --      1.0901                 1.0919                 1.0944
 Frc consts  --      6.4589                 6.5305                 6.5618
 IR Inten    --     22.3357                20.7928                37.5240

 - Thermochemistry -
 -------------------
 Temperature   298.150 Kelvin.  Pressure   1.00000 Atm.
 Atom     1 has atomic number  8 and mass  15.99491

 Molecular mass:   240.11503 amu.
 Principal axes and moments of inertia in atomic units:
                           1         2         3
     Eigenvalues --  1885.474147619.297328767.96263
           X            0.99862   0.05144  -0.01094
           Y           -0.05018   0.86996  -0.49056
           Z           -0.01572   0.49043   0.87134
 This molecule is an asymmetric top.
 Rotational symmetry number  1.
 Warning -- assumption of classical behavior for rotation
           may cause significant error
 Rotational temperatures (Kelvin)      0.04594     0.01137     0.00988
 Rotational constants (GHZ):           0.95718     0.23686     0.20583
 Zero-point vibrational energy     734809.1 (Joules/Mol)
                                  175.62359 (Kcal/Mol)
 Warning -- explicit consideration of  22 degrees of freedom as
           vibrations may cause significant error
 Vibrational temperatures:     60.86    65.03   102.64   178.70   189.93
          (Kelvin)            271.19   278.96   325.12   328.31   376.39
                              402.40   482.19   535.43   597.53   625.11
                              632.32   653.65   669.09   683.93   727.96
                              763.78   823.57   935.43   951.03  1005.65
                             1029.26  1071.50  1124.63  1142.16  1142.98
                             1146.46  1192.40  1218.83  1259.66  1278.46
                             1292.57  1293.85  1336.55  1366.18  1417.45
                             1440.92  1474.90  1484.38  1502.39  1514.08
                             1556.43  1565.73  1584.43  1624.56  1657.01
                             1673.11  1705.42  1714.75  1769.23  1787.94
                             1798.30  1841.58  1843.54  1865.99  1908.72
                             1924.71  1945.61  1950.22  1960.32  1972.63
                             1976.34  1986.12  2038.62  2089.49  2114.68
                             2127.19  2128.74  2131.67  2135.69  2139.17
                             2153.94  2176.55  2231.23  2323.51  2344.04
                             4289.65  4302.27  4302.45  4311.21  4337.12
                             4341.53  4364.32  4370.36  4373.31  4412.05
                             4419.39  4509.07  4542.37  4562.53  4584.11
                             4589.68

 Zero-point correction=                           0.279874 (Hartree/Particle)
 Thermal correction to Energy=                    0.294523
 Thermal correction to Enthalpy=                  0.295468
 Thermal correction to Gibbs Free Energy=         0.237258
 Sum of electronic and zero-point Energies=           -769.867535
 Sum of electronic and thermal Energies=              -769.852886
 Sum of electronic and thermal Enthalpies=            -769.851942
 Sum of electronic and thermal Free Energies=         -769.910152

                     E (Thermal)             CV                S
                      KCal/Mol        Cal/Mol-Kelvin    Cal/Mol-Kelvin
 Total                  184.816             59.438            122.513
 Electronic               0.000              0.000              1.377
 Translational            0.889              2.981             42.329
 Rotational               0.889              2.981             33.199
 Vibrational            183.039             53.477             45.608
 Vibration     1          0.595              1.980              5.148
 Vibration     2          0.595              1.979              5.017
 Vibration     3          0.598              1.968              4.116
 Vibration     4          0.610              1.929              3.034
 Vibration     5          0.612              1.921              2.917
 Vibration     6          0.633              1.856              2.243
 Vibration     7          0.635              1.848              2.190
 Vibration     8          0.650              1.801              1.911
 Vibration     9          0.651              1.798              1.893
 Vibration    10          0.669              1.743              1.651
 Vibration    11          0.680              1.711              1.536
 Vibration    12          0.716              1.605              1.235
 Vibration    13          0.744              1.529              1.071
 Vibration    14          0.779              1.437              0.908
 Vibration    15          0.795              1.395              0.844
 Vibration    16          0.800              1.384              0.828
 Vibration    17          0.813              1.351              0.783
 Vibration    18          0.822              1.328              0.752
 Vibration    19          0.832              1.305              0.723
 Vibration    20          0.861              1.237              0.643
 Vibration    21          0.886              1.182              0.585
 Vibration    22          0.929              1.091              0.500

 Optimization completed.
    -- Stationary point found.
 Normal termination of Gaussian 16 at Sun Feb 11 04:44:48 2024.
