 Gaussian 16, Revision A.03,
 Gaussian 16:  ES64L-G16RevA.03 25-Dec-2016

 ----------------------------------------------------------------------
 #P UB3LYP/6-311++G(d,p) nosym opt freq SCRF=(PCM,Solvent=n,n-DiMethylF
 ormamide)
 ----------------------------------------------------------------------

 --------
 Oxidized
 --------
 Symbolic Z-matrix:
 Charge =  0 Multiplicity = 1

 SCF Done:  E(UB3LYP) =  -10675.7026619     A.U. after   14 cycles
 SCF Done:  E(UB3LYP) =  -10675.7027741     A.U. after   11 cycles
 SCF Done:  E(UB3LYP) =  -10675.7027781     A.U. after   11 cycles
 SCF Done:  E(UB3LYP) =  -10675.7027274     A.U. after   11 cycles
 SCF Done:  E(UB3LYP) =  -10675.7027914     A.U. after   11 cycles
 SCF Done:  E(UB3LYP) =  -10675.7027927     A.U. after   10 cycles
 SCF Done:  E(UB3LYP) =  -10675.7027928     A.U. after    8 cycles
 SCF Done:  E(UB3LYP) =  -10675.7027931     A.U. after   10 cycles
 SCF Done:  E(UB3LYP) =  -10675.7027932     A.U. after    9 cycles
 SCF Done:  E(UB3LYP) =  -10675.7027933     A.U. after    8 cycles
 Optimization completed.
    -- Stationary point found.
 Normal termination of Gaussian 16 at Sun Feb 11 15:33:13 2024.

 ----------------------------------------------------------------------
 #P Geom=AllCheck Guess=TCheck SCRF=Check GenChk UB3LYP/6-311++G(d,p) F
 req
 ----------------------------------------------------------------------

 Structure from the checkpoint file:  "318.chk"
 --------
 Oxidized
 --------
 Charge =  0 Multiplicity = 1

                          Input orientation:
 ---------------------------------------------------------------------
 Center     Atomic      Atomic             Coordinates (Angstroms)
 Number     Number       Type             X           Y           Z
 ---------------------------------------------------------------------
      1         35           0       -2.305750    2.108340    0.820413
      2          6           0       -1.005324    0.822847    0.340136
      3          6           0       -1.349135   -0.488413    0.264005
      4         35           0       -3.088189   -1.151262    0.603684
      5          6           0       -0.351681   -1.509201   -0.099736
      6          8           0       -0.591060   -2.689362   -0.191451
      7          6           0        1.103936   -1.024726   -0.378294
      8          8           0        1.938150   -1.849601   -0.665024
      9          6           0        1.369622    0.420367   -0.275620
     10          6           0        0.378959    1.287153    0.057129
     11         35           0        0.747614    3.138201    0.165638
     12         35           0        3.152860    0.935658   -0.640881
 ---------------------------------------------------------------------

 SCF Done:  E(UB3LYP) =  -10675.7027933     A.U. after    2 cycles

 Alpha  occ. eigenvalues -- -482.86851-482.86850-482.86039-482.86037 -62.52119
 Alpha  occ. eigenvalues --  -62.52117 -62.51301 -62.51299 -56.34181 -56.34179
 Alpha  occ. eigenvalues --  -56.33781 -56.33779 -56.33717 -56.33716 -56.33361
 Alpha  occ. eigenvalues --  -56.33359 -56.32957 -56.32955 -56.32909 -56.32907
 Alpha  occ. eigenvalues --  -19.16889 -19.16887 -10.31414 -10.31396 -10.30387
 Alpha  occ. eigenvalues --  -10.30359 -10.27821 -10.27820  -8.73094  -8.73092
 Alpha  occ. eigenvalues --   -8.72269  -8.72267  -6.56311  -6.56309  -6.55480
 Alpha  occ. eigenvalues --   -6.55478  -6.54972  -6.54970  -6.54799  -6.54797
 Alpha  occ. eigenvalues --   -6.54131  -6.54129  -6.53996  -6.53994  -2.67395
 Alpha  occ. eigenvalues --   -2.67394  -2.67042  -2.67040  -2.66911  -2.66910
 Alpha  occ. eigenvalues --   -2.66563  -2.66561  -2.66199  -2.66197  -2.66098
 Alpha  occ. eigenvalues --   -2.66096  -2.65843  -2.65841  -2.65841  -2.65839
 Alpha  occ. eigenvalues --   -2.65023  -2.65021  -2.65021  -2.65019  -1.11552
 Alpha  occ. eigenvalues --   -1.08775  -0.93658  -0.88079  -0.84484  -0.82189
 Alpha  occ. eigenvalues --   -0.80798  -0.74697  -0.72383  -0.62859  -0.62681
 Alpha  occ. eigenvalues --   -0.57291  -0.51692  -0.49689  -0.49034  -0.47485
 Alpha  occ. eigenvalues --   -0.45901  -0.44230  -0.43096  -0.42559  -0.42518
 Alpha  occ. eigenvalues --   -0.37157  -0.35241  -0.34573  -0.33985  -0.33254
 Alpha  occ. eigenvalues --   -0.32921  -0.31300  -0.30573  -0.29502  -0.28785
 Alpha  occ. eigenvalues --   -0.26607
 Alpha virt. eigenvalues --   -0.16553  -0.08420  -0.04579  -0.04384  -0.04023
 Alpha virt. eigenvalues --   -0.01282  -0.00676  -0.00070   0.01687   0.02336
 Alpha virt. eigenvalues --    0.03423   0.04084   0.04450   0.04869   0.05319

  Beta  occ. eigenvalues -- -482.86851-482.86850-482.86039-482.86037 -62.52119
  Beta  occ. eigenvalues --  -62.52117 -62.51301 -62.51299 -56.34181 -56.34179
  Beta  occ. eigenvalues --  -56.33781 -56.33779 -56.33717 -56.33716 -56.33361
  Beta  occ. eigenvalues --  -56.33359 -56.32957 -56.32955 -56.32909 -56.32907
  Beta  occ. eigenvalues --  -19.16889 -19.16887 -10.31414 -10.31396 -10.30387
  Beta  occ. eigenvalues --  -10.30359 -10.27821 -10.27820  -8.73094  -8.73092
  Beta  occ. eigenvalues --   -8.72269  -8.72267  -6.56311  -6.56309  -6.55480
  Beta  occ. eigenvalues --   -6.55478  -6.54972  -6.54970  -6.54799  -6.54797
  Beta  occ. eigenvalues --   -6.54131  -6.54129  -6.53996  -6.53994  -2.67395
  Beta  occ. eigenvalues --   -2.67394  -2.67042  -2.67040  -2.66911  -2.66910
  Beta  occ. eigenvalues --   -2.66563  -2.66561  -2.66199  -2.66197  -2.66098
  Beta  occ. eigenvalues --   -2.66096  -2.65843  -2.65841  -2.65841  -2.65839
  Beta  occ. eigenvalues --   -2.65023  -2.65021  -2.65021  -2.65019  -1.11552
  Beta  occ. eigenvalues --   -1.08775  -0.93658  -0.88079  -0.84484  -0.82189
  Beta  occ. eigenvalues --   -0.80798  -0.74697  -0.72383  -0.62859  -0.62681
  Beta  occ. eigenvalues --   -0.57291  -0.51692  -0.49689  -0.49034  -0.47485
  Beta  occ. eigenvalues --   -0.45901  -0.44230  -0.43096  -0.42559  -0.42518
  Beta  occ. eigenvalues --   -0.37157  -0.35241  -0.34573  -0.33985  -0.33254
  Beta  occ. eigenvalues --   -0.32921  -0.31300  -0.30573  -0.29502  -0.28785
  Beta  occ. eigenvalues --   -0.26607
  Beta virt. eigenvalues --   -0.16553  -0.08420  -0.04579  -0.04384  -0.04023
  Beta virt. eigenvalues --   -0.01282  -0.00676  -0.00070   0.01687   0.02336
  Beta virt. eigenvalues --    0.03423   0.04084   0.04450   0.04869   0.05319

 Mulliken charges and spin densities:
               1          2
     1  Br  -0.024483  -0.000000
     2  C   -0.387104   0.000000
     3  C    0.757298  -0.000000
     4  Br  -0.019274   0.000000
     5  C   -0.109654   0.000000
     6  O   -0.217106  -0.000000
     7  C   -0.110390  -0.000000
     8  O   -0.216931   0.000000
     9  C    0.757457  -0.000000
    10  C   -0.385915   0.000000
    11  Br  -0.024644  -0.000000
    12  Br  -0.019255  -0.000000
 Sum of Mulliken charges =  -0.00000  -0.00000

 Dipole moment (field-independent basis, Debye):
    X=             -1.7370    Y=              5.8589    Z=              1.1046  Tot=              6.2100
 Quadrupole moment (field-independent basis, Debye-Ang):
   XX=           -116.0847   YY=           -124.3578   ZZ=           -115.8885
   XY=              2.7277   XZ=              0.3206   YZ=             -1.7233

  Exact polarizability: 281.244   4.886 288.047 -40.178  19.639 122.425
 Approx polarizability: 314.924  -5.936 355.893 -44.254  27.733 145.575

                      1                      2                      3
                      A                      A                      A
 Frequencies --     18.0536                42.9235                51.6566
 Red. masses --     37.5931                26.3623                20.4926
 Frc consts  --      0.0072                 0.0286                 0.0322
 IR Inten    --      0.0009                 1.5407                 0.0161

                      4                      5                      6
                      A                      A                      A
 Frequencies --    137.3048               139.2228               155.5213
 Red. masses --     50.1431                66.3939                74.6756
 Frc consts  --      0.5570                 0.7582                 1.0642
 IR Inten    --      0.7149                 0.1439                 0.1477

                      7                      8                      9
                      A                      A                      A
 Frequencies --    161.9480               203.0457               208.3596
 Red. masses --     13.3923                60.7673                56.8598
 Frc consts  --      0.2069                 1.4761                 1.4544
 IR Inten    --      4.5875                 0.0707                 4.3815

                     10                     11                     12
                      A                      A                      A
 Frequencies --    255.6021               276.0222               330.1397
 Red. masses --     19.2111                12.3722                18.9557
 Frc consts  --      0.7395                 0.5554                 1.2173
 IR Inten    --      3.5507                 0.0093                11.0749

                     13                     14                     15
                      A                      A                      A
 Frequencies --    387.6156               405.7651               428.4061
 Red. masses --     15.8137                12.4000                15.3957
 Frc consts  --      1.3999                 1.2029                 1.6648
 IR Inten    --     11.2428                12.1348                 6.5401

                     16                     17                     18
                      A                      A                      A
 Frequencies --    567.4598               587.8647               601.3261
 Red. masses --     12.1766                12.0565                13.3045
 Frc consts  --      2.3102                 2.4549                 2.8344
 IR Inten    --     16.0069                 0.0370                96.9650

                     19                     20                     21
                      A                      A                      A
 Frequencies --    722.7017               724.2277               811.3075
 Red. masses --     12.8335                12.7538                12.1611
 Frc consts  --      3.9492                 3.9413                 4.7162
 IR Inten    --     72.7981               151.5815                 0.0027

                     22                     23                     24
                      A                      A                      A
 Frequencies --    846.8263               938.0613              1083.3603
 Red. masses --     12.6450                12.4330                12.0763
 Frc consts  --      5.3427                 6.4460                 8.3508
 IR Inten    --      0.6571                 7.2307               100.2398

                     25                     26                     27
                      A                      A                      A
 Frequencies --   1148.9353              1223.9690              1512.9398
 Red. masses --     12.1490                12.0126                12.0065
 Frc consts  --      9.4489                10.6030                16.1923
 IR Inten    --     45.8939               771.4132               171.5514

                     28                     29                     30
                      A                      A                      A
 Frequencies --   1557.3788              1735.1426              1751.4105
 Red. masses --     12.0063                13.3251                13.2066
 Frc consts  --     17.1573                23.6369                23.8680
 IR Inten    --     64.0365               880.1224               140.1789

 - Thermochemistry -
 -------------------
 Temperature   298.150 Kelvin.  Pressure   1.00000 Atm.
 Atom     1 has atomic number 35 and mass  78.91834

 Molecular mass:   419.66317 amu.
 Principal axes and moments of inertia in atomic units:
                           1         2         3
     Eigenvalues --  4318.362158335.17583**********
           X            0.93137  -0.28009   0.23261
           Y            0.31182   0.94346  -0.11246
           Z           -0.18796   0.17727   0.96605
 This molecule is an asymmetric top.
 Rotational symmetry number  1.
 Warning -- assumption of classical behavior for rotation
           may cause significant error
 Rotational temperatures (Kelvin)      0.02006     0.01039     0.00685
 Rotational constants (GHZ):           0.41792     0.21652     0.14263
 Zero-point vibrational energy     113732.0 (Joules/Mol)
                                   27.18259 (Kcal/Mol)
 Warning -- explicit consideration of  18 degrees of freedom as
           vibrations may cause significant error
 Vibrational temperatures:     25.98    61.76    74.32   197.55   200.31
          (Kelvin)            223.76   233.01   292.14   299.78   367.75
                              397.13   475.00   557.69   583.81   616.38
                              816.45   845.81   865.17  1039.81  1042.00
                             1167.29  1218.39  1349.66  1558.71  1653.06
                             1761.02  2176.78  2240.72  2496.48  2519.89

 Zero-point correction=                           0.043318 (Hartree/Particle)
 Thermal correction to Energy=                    0.055620
 Thermal correction to Enthalpy=                  0.056564
 Thermal correction to Gibbs Free Energy=        -0.000506
 Sum of electronic and zero-point Energies=         -10675.659475
 Sum of electronic and thermal Energies=            -10675.647174
 Sum of electronic and thermal Enthalpies=          -10675.646229
 Sum of electronic and thermal Free Energies=       -10675.703299

                     E (Thermal)             CV                S
                      KCal/Mol        Cal/Mol-Kelvin    Cal/Mol-Kelvin
 Total                   34.902             39.970            120.113
 Electronic               0.000              0.000              0.000
 Translational            0.889              2.981             43.993
 Rotational               0.889              2.981             34.476
 Vibrational             33.124             34.009             41.644
 Vibration     1          0.593              1.986              6.838
 Vibration     2          0.595              1.980              5.119
 Vibration     3          0.596              1.977              4.753
 Vibration     4          0.614              1.916              2.841
 Vibration     5          0.615              1.914              2.815
 Vibration     6          0.620              1.896              2.604
 Vibration     7          0.622              1.889              2.527
 Vibration     8          0.639              1.836              2.105
 Vibration     9          0.642              1.828              2.058
 Vibration    10          0.666              1.753              1.692
 Vibration    11          0.678              1.718              1.558
 Vibration    12          0.713              1.615              1.259
 Vibration    13          0.756              1.497              1.009
 Vibration    14          0.771              1.458              0.942
 Vibration    15          0.790              1.408              0.864
 Vibration    16          0.923              1.102              0.509
 Vibration    17          0.945              1.058              0.471
 Vibration    18          0.960              1.029              0.447

                           ! Non-Optimized Parameters !
 Normal termination of Gaussian 16 at Sun Feb 11 15:57:11 2024.
