 Q-Chem 5.4, Q-Chem, Inc., Pleasanton, CA (2021)
 Q-Chem 5.4.0 for Intel X86 EM64T Linux

User input:
--------------------------------------------------------------
$molecule
-2 1
C                 -3.1972750000      1.3946760000      0.1808570000
C                 -2.3862780000      0.6702460000     -0.9161800000
C                 -1.0253050000      0.1981090000     -0.4636190000
C                 -0.8295400000     -1.1205000000      0.0283590000
C                 -1.9911000000     -2.0818160000      0.1505550000
C                  0.4457550000     -1.6222630000      0.4324050000
O                  0.6378380000     -2.8206120000      0.8819800000
C                  1.5495020000     -0.6777310000      0.3077810000
C                  2.8542690000     -1.0691780000      0.6884790000
C                  3.9377520000     -0.2140840000      0.5853490000
C                  3.7493610000      1.0983560000      0.0825460000
C                  2.4807390000      1.5097160000     -0.2896730000
C                  1.3567610000      0.6593700000     -0.1900000000
C                  0.0415100000      1.1466050000     -0.5929060000
O                 -0.1247800000      2.3428500000     -1.0430340000
H                 -4.1830000000      1.7178750000     -0.1928060000
H                 -2.6496550000      2.2776400000      0.5214840000
H                 -3.3673850000      0.7426450000      1.0448070000
H                 -2.9861760000     -0.1661070000     -1.2989820000
H                 -2.2363530000      1.3818000000     -1.7368300000
H                 -1.6338640000     -2.9803390000      0.6597970000
H                 -2.8364860000     -1.6609380000      0.7167900000
H                 -2.3945140000     -2.3842450000     -0.8280740000
H                  2.9630990000     -2.0812250000      1.0667560000
H                  4.9306610000     -0.5473850000      0.8848620000
H                  4.5961080000      1.7775440000     -0.0068030000
H                  2.2983570000      2.5089920000     -0.6739010000
$end
$rem
MAX_SCF_CYCLES=200
BASIS  =  6-311++G(d,p)
GUI  =  2
JOB_TYPE  =  SP
METHOD  =  B3LYP
SOLVENT_METHOD = PCM
$end
$pcm
theory = CPCM
$end
$solvent
dielectric 37.219
opticaldielectric 1.43
$end

--------------------------------------------------------------

             Standard Nuclear Orientation (Angstroms)
    I     Atom           X                Y                Z
 ----------------------------------------------------------------
    1      C      -3.1972750000     1.3946760000     0.1808570000
    2      C      -2.3862780000     0.6702460000    -0.9161800000
    3      C      -1.0253050000     0.1981090000    -0.4636190000
    4      C      -0.8295400000    -1.1205000000     0.0283590000
    5      C      -1.9911000000    -2.0818160000     0.1505550000
    6      C       0.4457550000    -1.6222630000     0.4324050000
    7      O       0.6378380000    -2.8206120000     0.8819800000
    8      C       1.5495020000    -0.6777310000     0.3077810000
    9      C       2.8542690000    -1.0691780000     0.6884790000
   10      C       3.9377520000    -0.2140840000     0.5853490000
   11      C       3.7493610000     1.0983560000     0.0825460000
   12      C       2.4807390000     1.5097160000    -0.2896730000
   13      C       1.3567610000     0.6593700000    -0.1900000000
   14      C       0.0415100000     1.1466050000    -0.5929060000
   15      O      -0.1247800000     2.3428500000    -1.0430340000
   16      H      -4.1830000000     1.7178750000    -0.1928060000
   17      H      -2.6496550000     2.2776400000     0.5214840000
   18      H      -3.3673850000     0.7426450000     1.0448070000
   19      H      -2.9861760000    -0.1661070000    -1.2989820000
   20      H      -2.2363530000     1.3818000000    -1.7368300000
   21      H      -1.6338640000    -2.9803390000     0.6597970000
   22      H      -2.8364860000    -1.6609380000     0.7167900000
   23      H      -2.3945140000    -2.3842450000    -0.8280740000
   24      H       2.9630990000    -2.0812250000     1.0667560000
   25      H       4.9306610000    -0.5473850000     0.8848620000
   26      H       4.5961080000     1.7775440000    -0.0068030000
   27      H       2.2983570000     2.5089920000    -0.6739010000
 ----------------------------------------------------------------

    9    -653.4856948987      7.57e-06  Convergence criterion met
 Total energy in the final basis set =     -653.4856948987

                    Orbital Energies (a.u.)
 --------------------------------------------------------------

 Alpha MOs
 -- Occupied --
-19.0143 -19.0129 -10.1638 -10.1631 -10.1470 -10.1466 -10.1430 -10.1428
-10.1410 -10.1383 -10.1328 -10.1323 -10.1318 -10.1233 -10.1201  -0.9325
 -0.9280  -0.8219  -0.7792  -0.7349  -0.7192  -0.7132  -0.6619  -0.6242
 -0.6034  -0.5631  -0.5476  -0.5149  -0.4777  -0.4579  -0.4294  -0.4265
 -0.4079  -0.3982  -0.3919  -0.3865  -0.3731  -0.3660  -0.3618  -0.3486
 -0.3479  -0.3413  -0.3297  -0.3176  -0.3107  -0.3059  -0.2973  -0.2945
 -0.2271  -0.2210  -0.1998  -0.1982  -0.1891  -0.1073

          Ground-State Mulliken Net Atomic Charges

     Atom                 Charge (a.u.)
  ----------------------------------------
      1 C                    -0.669802
      2 C                    -0.361332
      3 C                     0.704094
      4 C                     0.519992
      5 C                    -0.528099
      6 C                    -0.505427
      7 O                    -0.730906
      8 C                     0.219878
      9 C                     0.027531
     10 C                    -0.498560
     11 C                    -0.474539
     12 C                    -0.051401
     13 C                     0.011916
     14 C                    -0.710183
     15 O                    -0.713783
     16 H                     0.122391
     17 H                     0.162314
     18 H                     0.123315
     19 H                     0.138880
     20 H                     0.144217
     21 H                     0.155183
     22 H                     0.143549
     23 H                     0.147298
     24 H                     0.144991
     25 H                     0.166031
     26 H                     0.166636
     27 H                     0.145817
  ----------------------------------------
  Sum of atomic charges =    -2.000000

                    Cartesian Multipole Moments
 -----------------------------------------------------------------
    Charge (ESU x 10^10)
                -9.6064
    Dipole Moment (Debye)
         X      -4.7853      Y       1.8432      Z       0.3446
       Tot       5.1396
    Quadrupole Moments (Debye-Ang)
        XX    -112.6580     XY       7.5627     YY    -151.3111
        XZ      -2.7873     YZ      17.8886     ZZ    -108.3458

 Total job time:  51.33s(wall), 295.23s(cpu)
        *  Thank you very much for using Q-Chem.  Have a nice day.  *
