 Gaussian 16, Revision A.03,
 Gaussian 16:  ES64L-G16RevA.03 25-Dec-2016

 --------------------------------------
 #P UB3LYP/6-311++G(d,p) nosym opt freq
 --------------------------------------

 -------
 Radical
 -------
 Symbolic Z-matrix:
 Charge = -1 Multiplicity = 2

 SCF Done:  E(UB3LYP) =  -496.204646675     A.U. after   21 cycles
 SCF Done:  E(UB3LYP) =  -496.227417409     A.U. after   17 cycles
 SCF Done:  E(UB3LYP) =  -496.231760916     A.U. after   17 cycles
 SCF Done:  E(UB3LYP) =  -496.232086307     A.U. after   15 cycles
 SCF Done:  E(UB3LYP) =  -496.232130033     A.U. after   14 cycles
 SCF Done:  E(UB3LYP) =  -496.232134462     A.U. after   12 cycles
 SCF Done:  E(UB3LYP) =  -496.232134454     A.U. after   11 cycles
 SCF Done:  E(UB3LYP) =  -496.232135056     A.U. after   11 cycles
 Optimization completed.
    -- Stationary point found.
 Normal termination of Gaussian 16 at Wed Dec 20 01:35:49 2023.

 ----------------------------------------------------------------------
 #P Geom=AllCheck Guess=TCheck SCRF=Check GenChk UB3LYP/6-311++G(d,p) F
 req
 ----------------------------------------------------------------------

 Structure from the checkpoint file:  "108-rad.chk"
 -------
 Radical
 -------
 Charge = -1 Multiplicity = 2

                          Input orientation:
 ---------------------------------------------------------------------
 Center     Atomic      Atomic             Coordinates (Angstroms)
 Number     Number       Type             X           Y           Z
 ---------------------------------------------------------------------
      1          6           0       -1.775720   -3.737306    1.227929
      2          6           0       -0.371221   -3.948094    1.075277
      3          6           0        0.460510   -2.923123    0.689833
      4          6           0       -0.016956   -1.580610    0.415516
      5          6           0       -1.451888   -1.348146    0.567145
      6          6           0       -2.254109   -2.388462    0.952098
      7          8           0       -2.635819   -4.612994    1.578838
      8          8           0        0.777587   -0.662380    0.062793
      9          8           0       -3.603987   -2.245035    1.114006
     10          6           0       -2.015167    0.021433    0.298881
     11          1           0        0.012454   -4.944706    1.274521
     12          1           0        1.528587   -3.080776    0.573023
     13          1           0       -1.204192    0.690859    0.007901
     14          1           0       -2.515897    0.430965    1.184336
     15          1           0       -2.764078   -0.001280   -0.501800
     16          1           0       -3.869763   -3.151462    1.385834
 ---------------------------------------------------------------------

 SCF Done:  E(UB3LYP) =  -496.232135056     A.U. after    1 cycles

 Alpha  occ. eigenvalues --  -19.00560 -18.94399 -18.93089 -10.07995 -10.07957
 Alpha  occ. eigenvalues --  -10.07825 -10.02758 -10.02702 -10.02529 -10.02526
 Alpha  occ. eigenvalues --   -0.92343  -0.85254  -0.85135  -0.68377  -0.62679
 Alpha  occ. eigenvalues --   -0.55528  -0.52965  -0.45245  -0.44036  -0.37060
 Alpha  occ. eigenvalues --   -0.34695  -0.31932  -0.29918  -0.29263  -0.26416
 Alpha  occ. eigenvalues --   -0.26335  -0.26101  -0.25441  -0.23394  -0.22152
 Alpha  occ. eigenvalues --   -0.21388  -0.20826  -0.13879  -0.11542  -0.09502
 Alpha  occ. eigenvalues --   -0.08893  -0.01995
 Alpha virt. eigenvalues --    0.10113   0.10729   0.12216   0.13140   0.13312
 Alpha virt. eigenvalues --    0.14273   0.14682   0.16603   0.16947   0.18272
 Alpha virt. eigenvalues --    0.19010   0.19359   0.20566   0.20864   0.21562

  Beta  occ. eigenvalues --  -19.00528 -18.93716 -18.92385 -10.07905 -10.07756
  Beta  occ. eigenvalues --  -10.07743 -10.02763 -10.02640 -10.02489 -10.02270
  Beta  occ. eigenvalues --   -0.92177  -0.84102  -0.83917  -0.67811  -0.62422
  Beta  occ. eigenvalues --   -0.55126  -0.52089  -0.44929  -0.43674  -0.36717
  Beta  occ. eigenvalues --   -0.34520  -0.31589  -0.29300  -0.28970  -0.26205
  Beta  occ. eigenvalues --   -0.25701  -0.25573  -0.24984  -0.21897  -0.21462
  Beta  occ. eigenvalues --   -0.20592  -0.19215  -0.10923  -0.10802  -0.08834
  Beta  occ. eigenvalues --   -0.07977
  Beta virt. eigenvalues --    0.05390   0.10124   0.10737   0.12239   0.13157
  Beta virt. eigenvalues --    0.13535   0.14696   0.15404   0.16644   0.18240
  Beta virt. eigenvalues --    0.18301   0.19040   0.20458   0.20620   0.20970

 Mulliken charges and spin densities:
               1          2
     1  C   -0.244166   0.124879
     2  C    0.095439   0.053467
     3  C    0.340123   0.199979
     4  C   -1.534440   0.039601
     5  C    2.063509   0.038868
     6  C   -1.239867   0.046983
     7  O   -0.476509   0.243403
     8  O   -0.406951   0.252001
     9  O   -0.265475   0.011875
    10  C   -0.324167   0.013439
    11  H    0.139577  -0.005197
    12  H    0.141664  -0.015683
    13  H    0.178886  -0.002947
    14  H    0.137884   0.001654
    15  H    0.137901   0.001656
    16  H    0.256592  -0.003979
 Sum of Mulliken charges =  -1.00000   1.00000

 Dipole moment (field-independent basis, Debye):
    X=              5.3356    Y=             11.3100    Z=             -3.7222  Tot=             13.0476
 Quadrupole moment (field-independent basis, Debye-Ang):
   XX=            -85.0880   YY=           -108.2484   ZZ=            -68.0874
   XY=            -25.0604   XZ=              9.7702   YZ=             15.4692

  Exact polarizability: 129.705  16.369 134.703 -14.271 -21.251  68.826
 Approx polarizability: 210.470  52.117 211.043 -30.978 -38.511 105.295

 ******    1 imaginary frequencies (negative Signs) ******

                      1                      2                      3
                      A                      A                      A
 Frequencies --    -32.4289               129.8411               144.9638
 Red. masses --      1.0187                 6.3847                 6.1117
 Frc consts  --      0.0006                 0.0634                 0.0757
 IR Inten    --      0.0333                 8.7126                 0.3165

                      4                      5                      6
                      A                      A                      A
 Frequencies --    254.8539               274.2336               332.0187
 Red. masses --      4.3460                 2.9983                 5.8089
 Frc consts  --      0.1663                 0.1329                 0.3773
 IR Inten    --      0.6827                 6.0318                 7.8145

                      7                      8                      9
                      A                      A                      A
 Frequencies --    343.1140               390.6650               476.6460
 Red. masses --      5.5818                10.3763                 7.1382
 Frc consts  --      0.3872                 0.9330                 0.9555
 IR Inten    --      0.0007                15.6250                 4.5741

                     10                     11                     12
                      A                      A                      A
 Frequencies --    481.5797               510.6114               617.9754
 Red. masses --     11.1851                 3.9846                 4.0977
 Frc consts  --      1.5284                 0.6121                 0.9220
 IR Inten    --      0.1100                 0.0206                 0.3224

                     13                     14                     15
                      A                      A                      A
 Frequencies --    629.5092               664.1490               729.8056
 Red. masses --      2.3589                 6.2155                 2.0821
 Frc consts  --      0.5508                 1.6153                 0.6534
 IR Inten    --      6.9142                 3.3834                29.1807

                     16                     17                     18
                      A                      A                      A
 Frequencies --    737.9105               776.0750               805.2390
 Red. masses --      1.7978                 7.8898                 2.1136
 Frc consts  --      0.5768                 2.7998                 0.8075
 IR Inten    --     47.4311                29.7493                50.6763

                     19                     20                     21
                      A                      A                      A
 Frequencies --    890.8610               903.5612              1030.9753
 Red. masses --      2.1496                 1.2303                 3.0973
 Frc consts  --      1.0051                 0.5918                 1.9397
 IR Inten    --     16.2516                 0.2024                14.7616

                     22                     23                     24
                      A                      A                      A
 Frequencies --   1049.0156              1083.9311              1160.2717
 Red. masses --      1.4312                 1.7535                 1.6942
 Frc consts  --      0.9279                 1.2138                 1.3438
 IR Inten    --      0.0466                57.2557                 4.4694

                     25                     26                     27
                      A                      A                      A
 Frequencies --   1206.4216              1245.9010              1315.7560
 Red. masses --      4.3963                 4.0136                 1.9359
 Frc consts  --      3.7700                 3.6707                 1.9746
 IR Inten    --    134.2655                 0.9221                23.6825

                     28                     29                     30
                      A                      A                      A
 Frequencies --   1381.8616              1391.2953              1433.5795
 Red. masses --      1.3729                 1.8789                 2.8025
 Frc consts  --      1.5446                 2.1428                 3.3935
 IR Inten    --     32.7120                23.6846               336.0917

                     31                     32                     33
                      A                      A                      A
 Frequencies --   1469.1468              1491.4440              1492.0931
 Red. masses --      5.0344                 1.2692                 1.0468
 Frc consts  --      6.4022                 1.6634                 1.3732
 IR Inten    --      8.9562               143.0148                 4.6316

                     34                     35                     36
                      A                      A                      A
 Frequencies --   1527.9156              1579.3025              1667.4613
 Red. masses --      5.9529                 5.1551                 6.4474
 Frc consts  --      8.1881                 7.5757                10.5620
 IR Inten    --    331.1876                71.4538                 2.7470

                     37                     38                     39
                      A                      A                      A
 Frequencies --   2998.1099              3031.8766              3104.5858
 Red. masses --      1.0388                 1.0994                 1.0966
 Frc consts  --      5.5016                 5.9541                 6.2274
 IR Inten    --     87.6708                47.8139                 8.1618

                     40                     41                     42
                      A                      A                      A
 Frequencies --   3137.8737              3160.0769              3480.7135
 Red. masses --      1.0852                 1.0941                 1.0636
 Frc consts  --      6.2955                 6.4375                 7.5920
 IR Inten    --     22.3443                38.4788               110.1083

 - Thermochemistry -
 -------------------
 Temperature   298.150 Kelvin.  Pressure   1.00000 Atm.
 Atom     1 has atomic number  6 and mass  12.00000

 Molecular mass:   138.03169 amu.
 Principal axes and moments of inertia in atomic units:
                           1         2         3
     Eigenvalues --   854.425831380.580332223.87986
           X            0.62036   0.77151   0.14116
           Y            0.73288  -0.63431   0.24602
           Z           -0.27934   0.04917   0.95893
 This molecule is an asymmetric top.
 Rotational symmetry number  1.
 Warning -- assumption of classical behavior for rotation
           may cause significant error
 Rotational temperatures (Kelvin)      0.10137     0.06274     0.03895
 Rotational constants (GHZ):           2.11223     1.30723     0.81153
    1 imaginary frequencies ignored.
 Zero-point vibrational energy     302255.8 (Joules/Mol)
                                   72.24087 (Kcal/Mol)
 Warning -- explicit consideration of  11 degrees of freedom as
           vibrations may cause significant error
 Vibrational temperatures:    186.81   208.57   366.68   394.56   477.70
          (Kelvin)            493.66   562.08   685.79   692.89   734.66
                              889.13   905.72   955.56  1050.03  1061.69
                             1116.60  1158.56  1281.75  1300.02  1483.34
                             1509.30  1559.54  1669.37  1735.77  1792.57
                             1893.08  1988.19  2001.76  2062.60  2113.77
                             2145.86  2146.79  2198.33  2272.26  2399.10
                             4313.61  4362.19  4466.81  4514.70  4546.65
                             5007.97

 Zero-point correction=                           0.115123 (Hartree/Particle)
 Thermal correction to Energy=                    0.123078
 Thermal correction to Enthalpy=                  0.124022
 Thermal correction to Gibbs Free Energy=         0.081842
 Sum of electronic and zero-point Energies=           -496.117012
 Sum of electronic and thermal Energies=              -496.109057
 Sum of electronic and thermal Enthalpies=            -496.108113
 Sum of electronic and thermal Free Energies=         -496.150293

                     E (Thermal)             CV                S
                      KCal/Mol        Cal/Mol-Kelvin    Cal/Mol-Kelvin
 Total                   77.233             30.950             88.776
 Electronic               0.000              0.000              1.377
 Translational            0.889              2.981             40.679
 Rotational               0.889              2.981             29.352
 Vibrational             75.455             24.988             17.368
 Vibration     1          0.612              1.923              2.948
 Vibration     2          0.616              1.908              2.737
 Vibration     3          0.665              1.755              1.697
 Vibration     4          0.677              1.721              1.569
 Vibration     5          0.714              1.612              1.250
 Vibration     6          0.722              1.589              1.198
 Vibration     7          0.758              1.490              0.998
 Vibration     8          0.833              1.302              0.719
 Vibration     9          0.838              1.291              0.706
 Vibration    10          0.866              1.226              0.632
 Vibration    11          0.978              0.994              0.420

 Optimization completed.
    -- Stationary point found.
 Normal termination of Gaussian 16 at Wed Dec 20 01:46:54 2023.
