 Gaussian 16, Revision A.03,
 Gaussian 16:  ES64L-G16RevA.03 25-Dec-2016

 ----------------------------------------------------------------------
 #P UB3LYP/6-311++G(d,p) nosym opt freq SCRF=(PCM,Solvent=n,n-DiMethylF
 ormamide)
 ----------------------------------------------------------------------

 -------
 Reduced
 -------
 Symbolic Z-matrix:
 Charge = -2 Multiplicity = 1

 SCF Done:  E(UB3LYP) =  -1301.09227904     A.U. after   17 cycles
 SCF Done:  E(UB3LYP) =  -1301.09288497     A.U. after   12 cycles
 SCF Done:  E(UB3LYP) =  -1301.09304735     A.U. after   13 cycles
 SCF Done:  E(UB3LYP) =  -1301.09305430     A.U. after   12 cycles
 Optimization completed.
    -- Stationary point found.
 Normal termination of Gaussian 16 at Sat Feb 10 10:07:31 2024.

 ----------------------------------------------------------------------
 #P Geom=AllCheck Guess=TCheck SCRF=Check GenChk UB3LYP/6-311++G(d,p) F
 req
 ----------------------------------------------------------------------

 Structure from the checkpoint file:  "011-an.chk"
 -------
 Reduced
 -------
 Charge = -2 Multiplicity = 1

                          Input orientation:
 ---------------------------------------------------------------------
 Center     Atomic      Atomic             Coordinates (Angstroms)
 Number     Number       Type             X           Y           Z
 ---------------------------------------------------------------------
      1         17           0        3.001433   -0.836478   -0.189648
      2          6           0        1.274461   -0.357971   -0.079603
      3          6           0        0.996934    1.005283   -0.023114
      4          6           0       -0.338359    1.496304    0.061993
      5          8           0       -0.626510    2.770438    0.115676
      6          6           0       -1.331042    0.474250    0.085955
      7          6           0       -0.995266   -0.875722    0.028462
      8         17           0       -2.349005   -2.054505    0.068943
      9          6           0        0.321516   -1.421354   -0.060080
     10          8           0        0.606847   -2.682441   -0.115623
     11          1           0        1.813855    1.719094   -0.043777
     12          1           0       -2.374863    0.763103    0.150817
 ---------------------------------------------------------------------

 SCF Done:  E(UB3LYP) =  -1301.09305430     A.U. after    1 cycles

 Alpha  occ. eigenvalues -- -101.52935-101.52929 -19.02443 -19.01916 -10.19253
 Alpha  occ. eigenvalues --  -10.19248 -10.19086 -10.18161 -10.13587 -10.13580
 Alpha  occ. eigenvalues --   -9.44380  -9.44373  -7.20770  -7.20763  -7.19914
 Alpha  occ. eigenvalues --   -7.19907  -7.19866  -7.19859  -0.94251  -0.92730
 Alpha  occ. eigenvalues --   -0.84234  -0.83583  -0.77052  -0.69075  -0.66226
 Alpha  occ. eigenvalues --   -0.56151  -0.53998  -0.45571  -0.44405  -0.42098
 Alpha  occ. eigenvalues --   -0.39279  -0.38670  -0.36642  -0.34562  -0.34266
 Alpha  occ. eigenvalues --   -0.33566  -0.32507  -0.29799  -0.29796  -0.29212
 Alpha  occ. eigenvalues --   -0.23031  -0.21622  -0.20814  -0.20076  -0.13076
 Alpha virt. eigenvalues --    0.00243   0.00787   0.01374   0.02125   0.03560
 Alpha virt. eigenvalues --    0.03683   0.05190   0.05447   0.06276   0.06850
 Alpha virt. eigenvalues --    0.08037   0.08313   0.09190   0.09207   0.09527

  Beta  occ. eigenvalues -- -101.52935-101.52929 -19.02443 -19.01916 -10.19253
  Beta  occ. eigenvalues --  -10.19248 -10.19086 -10.18161 -10.13587 -10.13580
  Beta  occ. eigenvalues --   -9.44380  -9.44373  -7.20770  -7.20763  -7.19914
  Beta  occ. eigenvalues --   -7.19907  -7.19866  -7.19859  -0.94251  -0.92730
  Beta  occ. eigenvalues --   -0.84234  -0.83583  -0.77052  -0.69075  -0.66226
  Beta  occ. eigenvalues --   -0.56151  -0.53998  -0.45571  -0.44405  -0.42098
  Beta  occ. eigenvalues --   -0.39279  -0.38670  -0.36642  -0.34562  -0.34266
  Beta  occ. eigenvalues --   -0.33566  -0.32507  -0.29799  -0.29796  -0.29212
  Beta  occ. eigenvalues --   -0.23031  -0.21622  -0.20814  -0.20076  -0.13076
  Beta virt. eigenvalues --    0.00243   0.00787   0.01374   0.02125   0.03560
  Beta virt. eigenvalues --    0.03683   0.05190   0.05447   0.06276   0.06850
  Beta virt. eigenvalues --    0.08037   0.08313   0.09190   0.09207   0.09527

 Mulliken charges and spin densities:
               1          2
     1  Cl   0.120588  -0.000000
     2  C    1.074009   0.000000
     3  C   -0.591241  -0.000000
     4  C   -0.725681   0.000000
     5  O   -0.731225   0.000000
     6  C   -0.592236  -0.000000
     7  C    1.074432   0.000000
     8  Cl   0.120498  -0.000000
     9  C   -1.433846  -0.000000
    10  O   -0.619503   0.000000
    11  H    0.152010   0.000000
    12  H    0.152195  -0.000000
 Sum of Mulliken charges =  -2.00000   0.00000

 Dipole moment (field-independent basis, Debye):
    X=             -0.4574    Y=              2.0248    Z=              0.0972  Tot=              2.0781
 Quadrupole moment (field-independent basis, Debye-Ang):
   XX=            -96.5980   YY=           -140.8801   ZZ=            -79.5025
   XY=             10.5190   XZ=              1.2669   YZ=             -2.4158

  Exact polarizability: 213.235  -0.996 218.421  -6.483   3.738  95.283
 Approx polarizability: 229.404  -3.322 244.231  -7.044   4.408 102.632

                      1                      2                      3
                      A                      A                      A
 Frequencies --     92.8490               161.0768               197.9117
 Red. masses --     18.5424                12.3411                22.8490
 Frc consts  --      0.0942                 0.1887                 0.5273
 IR Inten    --     13.7295                11.5999                 4.8851

                      4                      5                      6
                      A                      A                      A
 Frequencies --    204.5211               247.3383               310.5821
 Red. masses --      5.0884                17.0233                19.5725
 Frc consts  --      0.1254                 0.6136                 1.1124
 IR Inten    --      0.0169                 0.0578                 0.6136

                      7                      8                      9
                      A                      A                      A
 Frequencies --    339.4080               354.4922               450.2042
 Red. masses --      8.9514                21.3614                 8.3951
 Frc consts  --      0.6076                 1.5816                 1.0025
 IR Inten    --      0.3341                 0.0030                17.3023

                     10                     11                     12
                      A                      A                      A
 Frequencies --    493.5375               500.5354               602.8291
 Red. masses --     13.5058                 5.5910                 2.0508
 Frc consts  --      1.9383                 0.8253                 0.4391
 IR Inten    --      0.4235                 0.0005                14.5673

                     13                     14                     15
                      A                      A                      A
 Frequencies --    624.2402               733.8067               736.6747
 Red. masses --      6.1115                10.8972                 8.5097
 Frc consts  --      1.4031                 3.4572                 2.7209
 IR Inten    --     18.5215               196.3521                 9.7448

                     16                     17                     18
                      A                      A                      A
 Frequencies --    806.9013               813.3464               818.2355
 Red. masses --      1.3292                 6.9986                 2.0710
 Frc consts  --      0.5099                 2.7278                 0.8169
 IR Inten    --      4.2353               292.9806                82.5251

                     19                     20                     21
                      A                      A                      A
 Frequencies --    912.2438              1025.5400              1131.2942
 Red. masses --      9.8207                 2.3496                 4.8131
 Frc consts  --      4.8152                 1.4559                 3.6294
 IR Inten    --    106.3269                82.0292               244.6034

                     22                     23                     24
                      A                      A                      A
 Frequencies --   1199.8101              1262.2471              1349.5435
 Red. masses --      1.8439                 2.4197                10.5446
 Frc consts  --      1.5639                 2.2715                11.3150
 IR Inten    --    148.5190               569.5465                25.3312

                     25                     26                     27
                      A                      A                      A
 Frequencies --   1390.3268              1436.1050              1446.7444
 Red. masses --      4.0838                 4.3951                 7.0716
 Frc consts  --      4.6511                 5.3406                 8.7208
 IR Inten    --     33.1278              2030.2738               127.6392

                     28                     29                     30
                      A                      A                      A
 Frequencies --   1602.2963              3158.2093              3159.7023
 Red. masses --      8.4042                 1.0902                 1.0892
 Frc consts  --     12.7125                 6.4066                 6.4067
 IR Inten    --     35.4174                25.3889                39.5557

 - Thermochemistry -
 -------------------
 Temperature   298.150 Kelvin.  Pressure   1.00000 Atm.
 Atom     1 has atomic number 17 and mass  34.96885

 Molecular mass:   175.94318 amu.
 Principal axes and moments of inertia in atomic units:
                           1         2         3
     Eigenvalues --  1545.134312156.311653701.44406
           X            0.97415  -0.21912   0.05483
           Y            0.22095   0.97484  -0.02962
           Z           -0.04696   0.04097   0.99806
 This molecule is an asymmetric top.
 Rotational symmetry number  1.
 Warning -- assumption of classical behavior for rotation
           may cause significant error
 Rotational temperatures (Kelvin)      0.05606     0.04017     0.02340
 Rotational constants (GHZ):           1.16802     0.83696     0.48758
 Zero-point vibrational energy     164860.7 (Joules/Mol)
                                   39.40265 (Kcal/Mol)
 Warning -- explicit consideration of  12 degrees of freedom as
           vibrations may cause significant error
 Vibrational temperatures:    133.59   231.75   284.75   294.26   355.86
          (Kelvin)            446.86   488.33   510.04   647.74   710.09
                              720.16   867.34   898.14  1055.78  1059.91
                             1160.95  1170.22  1177.26  1312.52  1475.52
                             1627.68  1726.26  1816.09  1941.69  2000.37
                             2066.23  2081.54  2305.35  4543.96  4546.11

 Zero-point correction=                           0.062792 (Hartree/Particle)
 Thermal correction to Energy=                    0.071356
 Thermal correction to Enthalpy=                  0.072300
 Thermal correction to Gibbs Free Energy=         0.028268
 Sum of electronic and zero-point Energies=          -1301.030262
 Sum of electronic and thermal Energies=             -1301.021698
 Sum of electronic and thermal Enthalpies=           -1301.020754
 Sum of electronic and thermal Free Energies=        -1301.064786

                     E (Thermal)             CV                S
                      KCal/Mol        Cal/Mol-Kelvin    Cal/Mol-Kelvin
 Total                   44.777             31.294             92.673
 Electronic               0.000              0.000              0.000
 Translational            0.889              2.981             41.402
 Rotational               0.889              2.981             30.890
 Vibrational             42.999             25.332             20.381
 Vibration     1          0.602              1.954              3.599
 Vibration     2          0.622              1.890              2.537
 Vibration     3          0.637              1.843              2.152
 Vibration     4          0.640              1.833              2.092
 Vibration     5          0.661              1.767              1.749
 Vibration     6          0.699              1.654              1.359
 Vibration     7          0.719              1.597              1.215
 Vibration     8          0.730              1.566              1.146
 Vibration     9          0.809              1.360              0.795
 Vibration    10          0.849              1.264              0.674
 Vibration    11          0.856              1.249              0.657
 Vibration    12          0.961              1.026              0.445

 Optimization completed.
    -- Stationary point found.
 Normal termination of Gaussian 16 at Sat Feb 10 10:13:30 2024.
