 Q-Chem 5.4, Q-Chem, Inc., Pleasanton, CA (2021)
 Q-Chem 5.4.0 for Intel X86 EM64T Linux

User input:
--------------------------------------------------------------
$molecule
0 1
C                  5.7669820000     -5.3002400000      1.2623960000
C                  6.7059600000     -5.1493690000      0.2334160000
C                  6.5885180000     -4.1631320000     -0.7403670000
C                  4.6693600000     -4.4060290000      1.2906920000
C                  4.5572550000     -3.4069450000      0.2979590000
C                  5.5109000000     -3.2873830000     -0.7100130000
C                  3.6199490000     -4.4911220000      2.3485350000
C                  2.4795820000     -3.5134170000      2.3239000000
C                  2.4068940000     -2.5764870000      1.3634200000
C                  3.4118450000     -2.4458840000      0.2966520000
O                  3.6494230000     -5.3277270000      3.2393210000
O                  3.3030670000     -1.5770520000     -0.5563120000
C                  5.9885260000     -6.4026400000      2.2681280000
H                  7.5508440000     -5.8288610000      0.2018440000
C                  1.4609280000     -3.6539220000      3.4137940000
H                  1.5929850000     -1.8594380000      1.3250020000
H                  5.3874360000     -2.5080460000     -1.4513310000
H                  7.3376660000     -4.0806310000     -1.5197670000
H                  6.9030590000     -6.9469730000      2.0243530000
H                  5.1533830000     -7.1054810000      2.2865750000
H                  6.0705760000     -6.0112170000      3.2839270000
H                  1.0113790000     -4.6503690000      3.3939290000
H                  0.6756700000     -2.9039530000      3.3128870000
H                  1.9314510000     -3.5522680000      4.3954580000
$end
$rem
MAX_SCF_CYCLES=200
BASIS  =  6-311++G(d,p)
GUI  =  2
JOB_TYPE  =  SP
METHOD  =  B3LYP
SOLVENT_METHOD = PCM
$end
$pcm
theory = CPCM
$end
$solvent
dielectric 37.219
opticaldielectric 1.43
$end

--------------------------------------------------------------

             Standard Nuclear Orientation (Angstroms)
    I     Atom           X                Y                Z
 ----------------------------------------------------------------
    1      C       5.7669820000    -5.3002400000     1.2623960000
    2      C       6.7059600000    -5.1493690000     0.2334160000
    3      C       6.5885180000    -4.1631320000    -0.7403670000
    4      C       4.6693600000    -4.4060290000     1.2906920000
    5      C       4.5572550000    -3.4069450000     0.2979590000
    6      C       5.5109000000    -3.2873830000    -0.7100130000
    7      C       3.6199490000    -4.4911220000     2.3485350000
    8      C       2.4795820000    -3.5134170000     2.3239000000
    9      C       2.4068940000    -2.5764870000     1.3634200000
   10      C       3.4118450000    -2.4458840000     0.2966520000
   11      O       3.6494230000    -5.3277270000     3.2393210000
   12      O       3.3030670000    -1.5770520000    -0.5563120000
   13      C       5.9885260000    -6.4026400000     2.2681280000
   14      H       7.5508440000    -5.8288610000     0.2018440000
   15      C       1.4609280000    -3.6539220000     3.4137940000
   16      H       1.5929850000    -1.8594380000     1.3250020000
   17      H       5.3874360000    -2.5080460000    -1.4513310000
   18      H       7.3376660000    -4.0806310000    -1.5197670000
   19      H       6.9030590000    -6.9469730000     2.0243530000
   20      H       5.1533830000    -7.1054810000     2.2865750000
   21      H       6.0705760000    -6.0112170000     3.2839270000
   22      H       1.0113790000    -4.6503690000     3.3939290000
   23      H       0.6756700000    -2.9039530000     3.3128870000
   24      H       1.9314510000    -3.5522680000     4.3954580000
 ----------------------------------------------------------------

    9    -613.9261990049      2.90e-06  Convergence criterion met
 Total energy in the final basis set =     -613.9261990049

                    Orbital Energies (a.u.)
 --------------------------------------------------------------

 Alpha MOs
 -- Occupied --
-19.1325 -19.1317 -10.2821 -10.2799 -10.2175 -10.2101 -10.2071 -10.2048
-10.1981 -10.1937 -10.1919 -10.1903 -10.1733 -10.1663  -1.0671  -1.0642
 -0.8883  -0.8449  -0.7940  -0.7820  -0.7271  -0.7087  -0.6716  -0.6392
 -0.6176  -0.5684  -0.5411  -0.5252  -0.4999  -0.4751  -0.4634  -0.4599
 -0.4594  -0.4279  -0.4256  -0.4251  -0.4240  -0.4125  -0.3968  -0.3946
 -0.3868  -0.3744  -0.3683  -0.3642  -0.2966  -0.2851  -0.2756  -0.2717
 -0.2669

          Ground-State Mulliken Net Atomic Charges

     Atom                 Charge (a.u.)
  ----------------------------------------
      1 C                     0.625395
      2 C                    -0.518085
      3 C                    -0.354613
      4 C                     0.571832
      5 C                     0.655530
      6 C                    -0.057075
      7 C                    -0.824205
      8 C                     0.577807
      9 C                    -0.482214
     10 C                    -0.756250
     11 O                    -0.251958
     12 O                    -0.314007
     13 C                    -0.489277
     14 H                     0.171410
     15 C                    -0.309090
     16 H                     0.216231
     17 H                     0.190013
     18 H                     0.234241
     19 H                     0.175639
     20 H                     0.177704
     21 H                     0.177615
     22 H                     0.198689
     23 H                     0.186001
     24 H                     0.198666
  ----------------------------------------
  Sum of atomic charges =     0.000000

                    Cartesian Multipole Moments
 -----------------------------------------------------------------
    Charge (ESU x 10^10)
                 0.0000
    Dipole Moment (Debye)
         X       1.4458      Y      -1.7250      Z       0.5591
       Tot       2.3192
    Quadrupole Moments (Debye-Ang)
        XX     -55.8980     XY     -17.0611     YY     -75.3237
        XZ      -4.8962     YZ       6.2480     ZZ     -84.6911

 Total job time:  37.73s(wall), 226.13s(cpu)
        *  Thank you very much for using Q-Chem.  Have a nice day.  *
