 Q-Chem 5.4, Q-Chem, Inc., Pleasanton, CA (2021)
 Q-Chem 5.4.0 for Intel X86 EM64T Linux

User input:
--------------------------------------------------------------
$molecule
0 1
O                  1.1984250000      1.6506640000      1.8466600000
C                  0.6527820000      0.8434890000      1.0932530000
C                 -0.7718190000      0.6431170000      1.1150990000
C                 -1.4634180000     -0.0868610000      0.1774250000
N                 -2.8158060000     -0.2180710000      0.2024960000
C                 -3.5458720000      0.2452270000      1.3928510000
C                 -4.9564810000     -0.3402140000      1.4339040000
C                 -5.7974530000      0.0997570000      0.2200020000
C                 -4.9000550000      0.2865320000     -1.0212480000
C                 -3.6457120000     -0.5901700000     -0.9672230000
C                 -0.6528090000     -0.8461980000     -0.8669150000
O                 -1.1983680000     -1.6540920000     -1.6195960000
C                  0.7717150000     -0.6454710000     -0.8890390000
C                  1.4632890000      0.0847840000      0.0484710000
N                  2.8156240000      0.2164820000      0.0229330000
C                  3.5454180000     -0.2457280000     -1.1680130000
C                  4.9550070000      0.3421240000     -1.2102870000
C                  5.7978170000     -0.0964190000      0.0028330000
C                  4.9017030000     -0.2855690000      1.2446330000
C                  3.6458100000      0.5890100000      1.1923160000
H                 -1.2775760000      1.2232710000      1.8738560000
H                 -3.5882790000      1.3445300000      1.4152320000
H                 -2.9839990000     -0.0693310000      2.2758050000
H                 -5.4337800000     -0.0391170000      2.3701430000
H                 -4.8767600000     -1.4313650000      1.4630650000
H                 -6.5706640000     -0.6486290000      0.0239110000
H                 -6.3203710000      1.0350250000      0.4410040000
H                 -5.4487420000      0.0504280000     -1.9371050000
H                 -4.5874940000      1.3323490000     -1.1085190000
H                 -3.0559030000     -0.4689700000     -1.8686950000
H                 -3.9133520000     -1.6509200000     -0.9140590000
H                  1.2775900000     -1.2257490000     -1.6476310000
H                  3.5895970000     -1.3449540000     -1.1904250000
H                  2.9822760000      0.0679250000     -2.0504670000
H                  5.4319720000      0.0419240000     -2.1469860000
H                  4.8733120000      1.4331370000     -1.2393070000
H                  6.5695330000      0.6535770000      0.1986600000
H                  6.3226040000     -1.0304860000     -0.2188130000
H                  5.4507180000     -0.0491580000      2.1602100000
H                  4.5910490000     -1.3319970000      1.3314220000
H                  3.0569580000      0.4658350000      2.0941660000
H                  3.9115100000      1.6502860000      1.1399980000
$end
$rem
MAX_SCF_CYCLES=200
BASIS  =  6-311++G(d,p)
GUI  =  2
JOB_TYPE  =  SP
METHOD  =  B3LYP
SOLVENT_METHOD = COSMO
$end
$solvent
dielectric 37.219
opticaldielectric 1.43
$end

--------------------------------------------------------------

             Standard Nuclear Orientation (Angstroms)
    I     Atom           X                Y                Z
 ----------------------------------------------------------------
    1      O       1.2349310160     2.2782546473    -0.6736610455
    2      C       0.6708002041     1.2487361879    -0.3011989123
    3      C      -0.7591875183     1.1895035327    -0.1537512886
    4      C      -1.4657197741     0.0301833272     0.0635006854
    5      N      -2.8215160254     0.0040287621     0.1525533965
    6      C      -3.5455133358     1.2814967650     0.2446936341
    7      C      -4.9729592592     1.0684345179     0.7459389621
    8      C      -5.7925850540     0.1820318235    -0.2115944686
    9      C      -4.8818899509    -0.8536502722    -0.9036252912
   10      C      -3.6542390589    -1.2033579255    -0.0577651942
   11      C      -0.6708826689    -1.2484410223     0.3036660765
   12      O      -1.2349554546    -2.2776287354     0.6770968856
   13      C       0.7590403614    -1.1892993254     0.1557748546
   14      C       1.4655568547    -0.0300029261    -0.0617987323
   15      N       2.8213175627    -0.0040497998    -0.1514973544
   16      C       3.5450788831    -1.2815624387    -0.2448823111
   17      C       4.9715842072    -1.0685166989    -0.7488587858
   18      C       5.7930943108    -0.1821938717     0.2071024002
   19      C       4.8836091863     0.8529175917     0.9015419800
   20      C       3.6543353008     1.2032242679     0.0582960668
   21      H      -1.2526868119     2.1305214094    -0.3512982317
   22      H      -3.5557419888     1.7898564624    -0.7311301928
   23      H      -2.9989837272     1.9290179517     0.9348222231
   24      H      -5.4473893040     2.0444011273     0.8779333323
   25      H      -4.9255350977     0.6096115978     1.7384352006
   26      H      -6.5861414751    -0.3203927548     0.3489644359
   27      H      -6.2892420067     0.7989656469    -0.9664029737
   28      H      -5.4312050860    -1.7751980311    -1.1148104650
   29      H      -4.5381578609    -0.4698134931    -1.8698350929
   30      H      -3.0551693700    -1.9615064929    -0.5492345430
   31      H      -3.9532836607    -1.6247047286     0.9079921981
   32      H       1.2526528652    -2.1302252422     0.3535095523
   33      H       3.5570812001    -1.7899283464     0.7309106634
   34      H       2.9972509443    -1.9290283209    -0.9340155779
   35      H       5.4457098100    -2.0444949108    -0.8818704786
   36      H       4.9221819528    -0.6096146455    -1.7412266220
   37      H       6.5852054738     0.3207195083    -0.3550593527
   38      H       6.2916589736    -0.7991848999     0.9606041277
   39      H       5.4332630481     1.7743484087     1.1123375107
   40      H       4.5417684643     0.4683641107     1.8681408309
   41      H       3.0561616327     1.9608279807     0.5517300118
   42      H       3.9514506423     1.6255764322    -0.9076136259
 ----------------------------------------------------------------

    9    -883.1154566819      6.05e-06  Convergence criterion met
 Total energy in the final basis set =     -883.1154566819
    4    -883.1350247517      8.45e-06  Convergence criterion met
 Total energy in the final basis set =     -883.1350247517

                    Orbital Energies (a.u.)
 --------------------------------------------------------------

 Alpha MOs
 -- Occupied --
-19.1094 -19.1094 -14.3607 -14.3607 -10.2659 -10.2659 -10.2406 -10.2406
-10.2071 -10.2071 -10.2027 -10.2027 -10.1699 -10.1699 -10.1678 -10.1677
-10.1660 -10.1659 -10.1649 -10.1649  -1.0470  -1.0444  -0.9682  -0.9681
 -0.8398  -0.8159  -0.7918  -0.7667  -0.7651  -0.7464  -0.7034  -0.6822
 -0.6543  -0.6470  -0.6346  -0.6014  -0.5846  -0.5508  -0.5417  -0.5305
 -0.5206  -0.5200  -0.5040  -0.4996  -0.4586  -0.4586  -0.4478  -0.4473
 -0.4417  -0.4302  -0.4295  -0.4270  -0.4251  -0.4158  -0.4124  -0.4089
 -0.3989  -0.3898  -0.3838  -0.3825  -0.3728  -0.3714  -0.3471  -0.3444
 -0.3321  -0.3319  -0.3226  -0.3220  -0.3088  -0.3081  -0.2667  -0.2623
 -0.2298  -0.2137

          Ground-State Mulliken Net Atomic Charges

     Atom                 Charge (a.u.)
  ----------------------------------------
      1 O                    -0.367949
      2 C                     0.006077
      3 C                    -0.067283
      4 C                    -0.324948
      5 N                     0.305688
      6 C                    -0.142522
      7 C                    -0.496880
      8 C                    -0.531135
      9 C                    -0.292347
     10 C                    -0.243038
     11 C                     0.005862
     12 O                    -0.367861
     13 C                    -0.067109
     14 C                    -0.323495
     15 N                     0.305738
     16 C                    -0.143211
     17 C                    -0.495747
     18 C                    -0.532291
     19 C                    -0.291584
     20 C                    -0.242935
     21 H                     0.251295
     22 H                     0.197995
     23 H                     0.206132
     24 H                     0.193111
     25 H                     0.191484
     26 H                     0.166086
     27 H                     0.165736
     28 H                     0.191940
     29 H                     0.178815
     30 H                     0.209857
     31 H                     0.201090
     32 H                     0.251075
     33 H                     0.197757
     34 H                     0.206245
     35 H                     0.193197
     36 H                     0.191414
     37 H                     0.166148
     38 H                     0.165781
     39 H                     0.191963
     40 H                     0.178707
     41 H                     0.209890
     42 H                     0.201246
  ----------------------------------------
  Sum of atomic charges =    -0.000004

                    Cartesian Multipole Moments
 -----------------------------------------------------------------
    Charge (ESU x 10^10)
                -0.0000
    Dipole Moment (Debye)
         X       0.0004      Y      -0.0010      Z      -0.0080
       Tot       0.0081
    Quadrupole Moments (Debye-Ang)
        XX     -75.2903     XY     -13.0733     YY    -134.8720
        XZ       3.7057     YZ       8.2023     ZZ    -122.9450

 Total job time:  112.42s(wall), 840.74s(cpu)
        *  Thank you very much for using Q-Chem.  Have a nice day.  *
