 Gaussian 16, Revision A.03,
 Gaussian 16:  ES64L-G16RevA.03 25-Dec-2016

 ----------------------------------------------------------------------
 #P UB3LYP/6-311++G(d,p) nosym opt freq SCRF=(PCM,Solvent=n,n-DiMethylF
 ormamide)
 ----------------------------------------------------------------------

 -------
 Reduced
 -------
 Symbolic Z-matrix:
 Charge = -2 Multiplicity = 1

 SCF Done:  E(UB3LYP) =  -1454.76993854     A.U. after   17 cycles
 SCF Done:  E(UB3LYP) =  -1454.77051960     A.U. after   13 cycles
 SCF Done:  E(UB3LYP) =  -1454.77056985     A.U. after   12 cycles
 SCF Done:  E(UB3LYP) =  -1454.77060116     A.U. after   12 cycles
 SCF Done:  E(UB3LYP) =  -1454.77062500     A.U. after   12 cycles
 Optimization completed.
    -- Stationary point found.
 Normal termination of Gaussian 16 at Sun Feb 11 01:49:10 2024.

 ----------------------------------------------------------------------
 #P Geom=AllCheck Guess=TCheck SCRF=Check GenChk UB3LYP/6-311++G(d,p) F
 req
 ----------------------------------------------------------------------

 Structure from the checkpoint file:  "231-an.chk"
 -------
 Reduced
 -------
 Charge = -2 Multiplicity = 1

                          Input orientation:
 ---------------------------------------------------------------------
 Center     Atomic      Atomic             Coordinates (Angstroms)
 Number     Number       Type             X           Y           Z
 ---------------------------------------------------------------------
      1          6           0        5.901614   -5.208093    1.072584
      2          6           0        6.775508   -5.078711    0.011570
      3          6           0        6.546077   -4.085627   -0.967197
      4          6           0        4.767845   -4.370109    1.216167
      5          6           0        4.534804   -3.363099    0.222796
      6          6           0        5.449835   -3.253871   -0.853817
      7          6           0        3.884764   -4.560637    2.363802
      8          6           0        2.797502   -3.668733    2.382427
      9          6           0        2.562090   -2.670708    1.390972
     10          6           0        3.393479   -2.453252    0.277508
     11          8           0        4.111089   -5.471197    3.256879
     12          8           0        3.200238   -1.548018   -0.628690
     13          1           0        6.061713   -5.963989    1.832247
     14          1           0        7.635193   -5.736244   -0.071520
     15          1           0        5.258030   -2.486221   -1.594432
     16         17           0        1.673303   -3.825661    3.756114
     17          1           0        7.229373   -3.978216   -1.803789
     18         17           0        1.131697   -1.615415    1.530679
 ---------------------------------------------------------------------

 SCF Done:  E(UB3LYP) =  -1454.77062500     A.U. after    1 cycles

 Alpha  occ. eigenvalues -- -101.52973-101.52953 -19.02408 -19.02397 -10.19048
 Alpha  occ. eigenvalues --  -10.19003 -10.18687 -10.18675 -10.15611 -10.15564
 Alpha  occ. eigenvalues --  -10.15266 -10.15263 -10.15164 -10.15124  -9.44420
 Alpha  occ. eigenvalues --   -9.44403  -7.20827  -7.20809  -7.19955  -7.19938
 Alpha  occ. eigenvalues --   -7.19886  -7.19867  -0.94335  -0.93814  -0.85498
 Alpha  occ. eigenvalues --   -0.83402  -0.81643  -0.76283  -0.73040  -0.69683
 Alpha  occ. eigenvalues --   -0.65190  -0.58856  -0.58178  -0.53706  -0.49344
 Alpha  occ. eigenvalues --   -0.47568  -0.44338  -0.43449  -0.40765  -0.39579
 Alpha  occ. eigenvalues --   -0.39524  -0.39312  -0.36871  -0.36274  -0.34916
 Alpha  occ. eigenvalues --   -0.34048  -0.33597  -0.31746  -0.30480  -0.30364
 Alpha  occ. eigenvalues --   -0.30265  -0.28168  -0.23483  -0.23130  -0.21579
 Alpha  occ. eigenvalues --   -0.20787  -0.20395  -0.12598
 Alpha virt. eigenvalues --   -0.01193  -0.00224   0.00075   0.00655   0.01853
 Alpha virt. eigenvalues --    0.02907   0.03260   0.04218   0.05128   0.05248
 Alpha virt. eigenvalues --    0.05855   0.07007   0.07098   0.07231   0.08240

  Beta  occ. eigenvalues -- -101.52973-101.52953 -19.02408 -19.02397 -10.19048
  Beta  occ. eigenvalues --  -10.19003 -10.18687 -10.18675 -10.15611 -10.15564
  Beta  occ. eigenvalues --  -10.15266 -10.15263 -10.15164 -10.15124  -9.44420
  Beta  occ. eigenvalues --   -9.44403  -7.20827  -7.20809  -7.19955  -7.19938
  Beta  occ. eigenvalues --   -7.19886  -7.19867  -0.94335  -0.93814  -0.85498
  Beta  occ. eigenvalues --   -0.83402  -0.81643  -0.76283  -0.73040  -0.69683
  Beta  occ. eigenvalues --   -0.65190  -0.58856  -0.58178  -0.53706  -0.49344
  Beta  occ. eigenvalues --   -0.47568  -0.44338  -0.43449  -0.40765  -0.39579
  Beta  occ. eigenvalues --   -0.39524  -0.39312  -0.36871  -0.36274  -0.34916
  Beta  occ. eigenvalues --   -0.34048  -0.33597  -0.31746  -0.30480  -0.30364
  Beta  occ. eigenvalues --   -0.30265  -0.28168  -0.23483  -0.23130  -0.21579
  Beta  occ. eigenvalues --   -0.20787  -0.20395  -0.12598
  Beta virt. eigenvalues --   -0.01193  -0.00224   0.00075   0.00655   0.01853
  Beta virt. eigenvalues --    0.02907   0.03260   0.04218   0.05128   0.05248
  Beta virt. eigenvalues --    0.05855   0.07007   0.07098   0.07231   0.08240

 Mulliken charges and spin densities:
               1          2
     1  C   -0.163477  -0.000000
     2  C   -0.423944  -0.000000
     3  C   -0.424616  -0.000000
     4  C    0.376793   0.000000
     5  C    0.379361   0.000000
     6  C   -0.163858  -0.000000
     7  C   -1.847713  -0.000000
     8  C    1.100970   0.000000
     9  C    1.106883  -0.000000
    10  C   -1.845007  -0.000000
    11  O   -0.630222   0.000000
    12  O   -0.631449  -0.000000
    13  H    0.150591   0.000000
    14  H    0.168869   0.000000
    15  H    0.151598  -0.000000
    16  Cl   0.262909  -0.000000
    17  H    0.168778   0.000000
    18  Cl   0.263535   0.000000
 Sum of Mulliken charges =  -2.00000  -0.00000

 Dipole moment (field-independent basis, Debye):
    X=            -31.7425    Y=             32.5369    Z=            -14.6018  Tot=             47.7436
 Quadrupole moment (field-independent basis, Debye-Ang):
   XX=           -220.6329   YY=           -243.9395   ZZ=           -157.7274
   XY=            117.6494   XZ=            -48.9141   YZ=             75.4709

  Exact polarizability: 297.153 -76.780 228.393 -79.044 -44.098 264.392
 Approx polarizability: 323.197 -84.680 259.292 -82.513 -57.580 297.611

                      1                      2                      3
                      A                      A                      A
 Frequencies --     63.8224                87.1040               148.1238
 Red. masses --     12.4242                 9.3181                 5.0295
 Frc consts  --      0.0298                 0.0417                 0.0650
 IR Inten    --      7.8002                10.5278                 0.0707

                      4                      5                      6
                      A                      A                      A
 Frequencies --    174.8301               210.9248               221.8848
 Red. masses --     10.0847                24.3881                 9.4161
 Frc consts  --      0.1816                 0.6393                 0.2731
 IR Inten    --      8.9164                 2.5148                 9.5822

                      7                      8                      9
                      A                      A                      A
 Frequencies --    285.7138               290.1864               335.8723
 Red. masses --      6.6980                 9.6721                18.4646
 Frc consts  --      0.3221                 0.4799                 1.2273
 IR Inten    --      0.0235                 3.6335                 3.1701

                     10                     11                     12
                      A                      A                      A
 Frequencies --    339.3118               339.6160               368.4095
 Red. masses --     11.1500                18.6032                 9.5771
 Frc consts  --      0.7564                 1.2642                 0.7659
 IR Inten    --      0.0900                 2.1342                17.5794

                     13                     14                     15
                      A                      A                      A
 Frequencies --    464.9944               492.0261               515.4850
 Red. masses --      3.3606                13.9071                 5.0260
 Frc consts  --      0.4281                 1.9836                 0.7869
 IR Inten    --      4.4673                21.8158                 0.0320

                     16                     17                     18
                      A                      A                      A
 Frequencies --    535.5699               634.7136               664.8131
 Red. masses --      7.8829                 7.4972                 5.8429
 Frc consts  --      1.3322                 1.7795                 1.5215
 IR Inten    --      4.5269                34.1350                 0.1404

                     19                     20                     21
                      A                      A                      A
 Frequencies --    689.5084               698.0635               780.3889
 Red. masses --      8.1357                 2.9049                 1.7454
 Frc consts  --      2.2789                 0.8340                 0.6263
 IR Inten    --      0.9726                82.9331                62.8590

                     22                     23                     24
                      A                      A                      A
 Frequencies --    788.7340               802.0994               822.4361
 Red. masses --      7.9783                 3.7203                11.6020
 Frc consts  --      2.9243                 1.4102                 4.6237
 IR Inten    --     86.6279                 0.2406               397.2770

                     25                     26                     27
                      A                      A                      A
 Frequencies --    872.1846               876.4824               979.4692
 Red. masses --      7.4728                 1.6523                 1.3560
 Frc consts  --      3.3493                 0.7479                 0.7665
 IR Inten    --      8.6056                 0.0147                 4.3989

                     28                     29                     30
                      A                      A                      A
 Frequencies --    993.0298              1028.5168              1097.4632
 Red. masses --      1.2633                 2.2516                 2.7144
 Frc consts  --      0.7340                 1.4033                 1.9262
 IR Inten    --      0.7394                37.7066                87.5859

                     31                     32                     33
                      A                      A                      A
 Frequencies --   1099.7562              1140.3711              1173.0711
 Red. masses --      3.1319                 1.8704                 2.0131
 Frc consts  --      2.2318                 1.4331                 1.6321
 IR Inten    --      5.0082               206.2032                32.8642

                     34                     35                     36
                      A                      A                      A
 Frequencies --   1208.5523              1242.1001              1319.5833
 Red. masses --      2.4886                 2.0756                12.1752
 Frc consts  --      2.1416                 1.8867                12.4911
 IR Inten    --    277.5486                94.4177                13.4183

                     37                     38                     39
                      A                      A                      A
 Frequencies --   1354.4841              1365.5355              1410.9738
 Red. masses --      7.8597                 8.1193                 2.7600
 Frc consts  --      8.4958                 8.9202                 3.2375
 IR Inten    --    189.4394              1138.4068               970.0585

                     40                     41                     42
                      A                      A                      A
 Frequencies --   1435.6975              1496.5235              1507.1678
 Red. masses --      3.9634                 4.7169                 3.6534
 Frc consts  --      4.8134                 6.2240                 4.8895
 IR Inten    --     37.5161               502.2642                 2.4612

                     43                     44                     45
                      A                      A                      A
 Frequencies --   1590.6010              1618.1370              3145.2498
 Red. masses --      8.1961                 5.6105                 1.0853
 Frc consts  --     12.2174                 8.6553                 6.3255
 IR Inten    --     19.5504                 0.0943                16.8873

                     46                     47                     48
                      A                      A                      A
 Frequencies --   3160.8642              3179.8218              3185.8141
 Red. masses --      1.0904                 1.0918                 1.0923
 Frc consts  --      6.4189                 6.5045                 6.5318
 IR Inten    --     37.9448                35.1276                44.4367

 - Thermochemistry -
 -------------------
 Temperature   298.150 Kelvin.  Pressure   1.00000 Atm.
 Atom     1 has atomic number  6 and mass  12.00000

 Molecular mass:   225.95883 amu.
 Principal axes and moments of inertia in atomic units:
                           1         2         3
     Eigenvalues --  2072.044363958.291116030.20191
           X            0.82278  -0.16535   0.54378
           Y           -0.29095   0.69934   0.65289
           Z           -0.48824  -0.69540   0.52729
 This molecule is an asymmetric top.
 Rotational symmetry number  1.
 Warning -- assumption of classical behavior for rotation
           may cause significant error
 Rotational temperatures (Kelvin)      0.04180     0.02188     0.01436
 Rotational constants (GHZ):           0.87100     0.45594     0.29928
 Zero-point vibrational energy     288515.8 (Joules/Mol)
                                   68.95694 (Kcal/Mol)
 Warning -- explicit consideration of  16 degrees of freedom as
           vibrations may cause significant error
 Vibrational temperatures:     91.83   125.32   213.12   251.54   303.47
          (Kelvin)            319.24   411.08   417.51   483.25   488.19
                              488.63   530.06   669.02   707.92   741.67
                              770.57   913.21   956.52   992.05  1004.36
                             1122.81  1134.81  1154.04  1183.30  1254.88
                             1261.06  1409.24  1428.75  1479.81  1579.00
                             1582.30  1640.74  1687.79  1738.84  1787.10
                             1898.59  1948.80  1964.70  2030.08  2065.65
                             2153.16  2168.48  2288.52  2328.14  4525.31
                             4547.78  4575.05  4583.68

 Zero-point correction=                           0.109890 (Hartree/Particle)
 Thermal correction to Energy=                    0.121060
 Thermal correction to Enthalpy=                  0.122004
 Thermal correction to Gibbs Free Energy=         0.072060
 Sum of electronic and zero-point Energies=          -1454.660735
 Sum of electronic and thermal Energies=             -1454.649565
 Sum of electronic and thermal Enthalpies=           -1454.648621
 Sum of electronic and thermal Free Energies=        -1454.698565

                     E (Thermal)             CV                S
                      KCal/Mol        Cal/Mol-Kelvin    Cal/Mol-Kelvin
 Total                   75.966             42.610            105.116
 Electronic               0.000              0.000              0.000
 Translational            0.889              2.981             42.148
 Rotational               0.889              2.981             32.270
 Vibrational             74.189             36.648             30.699
 Vibration     1          0.597              1.972              4.335
 Vibration     2          0.601              1.958              3.724
 Vibration     3          0.617              1.905              2.696
 Vibration     4          0.627              1.873              2.383
 Vibration     5          0.643              1.824              2.036
 Vibration     6          0.648              1.808              1.944
 Vibration     7          0.683              1.700              1.499
 Vibration     8          0.686              1.692              1.473
 Vibration     9          0.717              1.604              1.232
 Vibration    10          0.719              1.597              1.215
 Vibration    11          0.720              1.596              1.214
 Vibration    12          0.741              1.537              1.086
 Vibration    13          0.822              1.328              0.752
 Vibration    14          0.848              1.268              0.678
 Vibration    15          0.871              1.216              0.621
 Vibration    16          0.891              1.171              0.575

 Optimization completed.
    -- Stationary point found.
 Normal termination of Gaussian 16 at Sun Feb 11 02:12:38 2024.
