 Q-Chem 5.4, Q-Chem, Inc., Pleasanton, CA (2021)
 Q-Chem 5.4.0 for Intel X86 EM64T Linux

User input:
--------------------------------------------------------------
$molecule
-2 1
C                  5.7558610000     -5.2813300000      1.2502050000
C                  6.7304960000     -5.1597080000      0.2846340000
C                  6.6120560000     -4.1344540000     -0.6891050000
C                  4.6363850000     -4.4154320000      1.3045180000
C                  4.5052270000     -3.3541210000      0.3044760000
C                  5.5378630000     -3.2533990000     -0.6896360000
C                  3.6652430000     -4.6365010000      2.3710160000
C                  2.5840790000     -3.7246060000      2.3442830000
C                  2.4472340000     -2.7016880000      1.3897670000
C                  3.3594160000     -2.4429130000      0.3346810000
O                  3.7965270000     -5.5843570000      3.2518850000
O                  3.1775190000     -1.4774270000     -0.5204550000
H                  5.7980360000     -6.0482400000      2.0183560000
C                  5.5096340000     -2.1948210000     -1.7768570000
H                  7.5834850000     -5.8380130000      0.2628700000
H                  7.3778820000     -4.0295830000     -1.4580160000
H                  1.8237800000     -3.8404920000      3.1191150000
H                  1.5821270000     -2.0382670000      1.4380060000
H                  5.4839940000     -1.1873400000     -1.3562540000
H                  4.6022390000     -2.2632710000     -2.3806830000
H                  6.3952180000     -2.3064510000     -2.4221150000
$end
$rem
MAX_SCF_CYCLES=200
BASIS  =  6-311++G(d,p)
GUI  =  2
JOB_TYPE  =  SP
METHOD  =  B3LYP
SOLVENT_METHOD = PCM
$end
$pcm
theory = CPCM
$end
$solvent
dielectric 37.219
opticaldielectric 1.43
$end

--------------------------------------------------------------

             Standard Nuclear Orientation (Angstroms)
    I     Atom           X                Y                Z
 ----------------------------------------------------------------
    1      C       5.7558610000    -5.2813300000     1.2502050000
    2      C       6.7304960000    -5.1597080000     0.2846340000
    3      C       6.6120560000    -4.1344540000    -0.6891050000
    4      C       4.6363850000    -4.4154320000     1.3045180000
    5      C       4.5052270000    -3.3541210000     0.3044760000
    6      C       5.5378630000    -3.2533990000    -0.6896360000
    7      C       3.6652430000    -4.6365010000     2.3710160000
    8      C       2.5840790000    -3.7246060000     2.3442830000
    9      C       2.4472340000    -2.7016880000     1.3897670000
   10      C       3.3594160000    -2.4429130000     0.3346810000
   11      O       3.7965270000    -5.5843570000     3.2518850000
   12      O       3.1775190000    -1.4774270000    -0.5204550000
   13      H       5.7980360000    -6.0482400000     2.0183560000
   14      C       5.5096340000    -2.1948210000    -1.7768570000
   15      H       7.5834850000    -5.8380130000     0.2628700000
   16      H       7.3778820000    -4.0295830000    -1.4580160000
   17      H       1.8237800000    -3.8404920000     3.1191150000
   18      H       1.5821270000    -2.0382670000     1.4380060000
   19      H       5.4839940000    -1.1873400000    -1.3562540000
   20      H       4.6022390000    -2.2632710000    -2.3806830000
   21      H       6.3952180000    -2.3064510000    -2.4221150000
 ----------------------------------------------------------------

    9    -574.8350391377      9.78e-06  Convergence criterion met
 Total energy in the final basis set =     -574.8350391377

                    Orbital Energies (a.u.)
 --------------------------------------------------------------

 Alpha MOs
 -- Occupied --
-19.0172 -19.0126 -10.1715 -10.1686 -10.1591 -10.1472 -10.1434 -10.1426
-10.1404 -10.1393 -10.1381 -10.1201 -10.1180  -0.9290  -0.9246  -0.8244
 -0.7625  -0.7435  -0.6994  -0.6628  -0.6344  -0.5789  -0.5712  -0.5094
 -0.4705  -0.4629  -0.4367  -0.4165  -0.3961  -0.3897  -0.3771  -0.3726
 -0.3581  -0.3546  -0.3540  -0.3358  -0.3159  -0.3107  -0.3086  -0.3028
 -0.2250  -0.2198  -0.2140  -0.1980  -0.1904  -0.1131

          Ground-State Mulliken Net Atomic Charges

     Atom                 Charge (a.u.)
  ----------------------------------------
      1 C                     0.251653
      2 C                    -0.593227
      3 C                    -0.610491
      4 C                     0.183414
      5 C                     0.131168
      6 C                     0.649530
      7 C                    -0.284728
      8 C                    -0.121923
      9 C                    -0.233997
     10 C                    -0.594173
     11 O                    -0.750612
     12 O                    -0.710545
     13 H                     0.142948
     14 C                    -0.454414
     15 H                     0.179702
     16 H                     0.121521
     17 H                     0.134043
     18 H                     0.133078
     19 H                     0.145831
     20 H                     0.145814
     21 H                     0.135407
  ----------------------------------------
  Sum of atomic charges =    -2.000000

                    Cartesian Multipole Moments
 -----------------------------------------------------------------
    Charge (ESU x 10^10)
                -9.6064
    Dipole Moment (Debye)
         X     -35.3763      Y      35.0858      Z     -12.7261
       Tot      51.4243
    Quadrupole Moments (Debye-Ang)
        XX    -222.4750     XY     135.6118     YY    -247.3233
        XZ     -49.5959     YZ      74.0728     ZZ    -131.0196

 Total job time:  35.76s(wall), 183.63s(cpu)
        *  Thank you very much for using Q-Chem.  Have a nice day.  *
