 Gaussian 16, Revision A.03,
 Gaussian 16:  ES64L-G16RevA.03 25-Dec-2016

 ----------------------------------------------------------------------
 #P UB3LYP/6-311++G(d,p) nosym opt freq SCRF=(PCM,Solvent=n,n-DiMethylF
 ormamide)
 ----------------------------------------------------------------------

 --------
 Oxidized
 --------
 Symbolic Z-matrix:
 Charge =  0 Multiplicity = 1

 SCF Done:  E(UB3LYP) =  -910.494294549     A.U. after   14 cycles
 SCF Done:  E(UB3LYP) =  -910.494451666     A.U. after   12 cycles
 SCF Done:  E(UB3LYP) =  -910.494512293     A.U. after   11 cycles
 SCF Done:  E(UB3LYP) =  -910.494516278     A.U. after   10 cycles
 SCF Done:  E(UB3LYP) =  -910.494517528     A.U. after    9 cycles
 SCF Done:  E(UB3LYP) =  -910.494518586     A.U. after    9 cycles
 SCF Done:  E(UB3LYP) =  -910.494519307     A.U. after   10 cycles
 SCF Done:  E(UB3LYP) =  -910.494519823     A.U. after    9 cycles
 SCF Done:  E(UB3LYP) =  -910.494520379     A.U. after    9 cycles
 Optimization completed.
    -- Stationary point found.
 Normal termination of Gaussian 16 at Sat Feb 10 16:55:49 2024.

 ----------------------------------------------------------------------
 #P Geom=AllCheck Guess=TCheck SCRF=Check GenChk UB3LYP/6-311++G(d,p) F
 req
 ----------------------------------------------------------------------

 Structure from the checkpoint file:  "169.chk"
 --------
 Oxidized
 --------
 Charge =  0 Multiplicity = 1

                          Input orientation:
 ---------------------------------------------------------------------
 Center     Atomic      Atomic             Coordinates (Angstroms)
 Number     Number       Type             X           Y           Z
 ---------------------------------------------------------------------
      1          7           0       -3.455582    1.578354    0.423986
      2          6           0       -2.847033    0.361170    0.273903
      3          6           0       -3.677705   -0.789914    0.243568
      4          6           0       -3.158592   -2.047053    0.132656
      5          6           0       -1.759189   -2.273018    0.052116
      6          7           0       -1.333156   -3.566182   -0.091147
      7          6           0       -0.895580   -1.149358    0.085880
      8          6           0        0.555284   -1.341494    0.043009
      9          8           0        1.037107   -2.505706   -0.010744
     10          6           0        1.445568   -0.179323    0.062093
     11          6           0        2.850675   -0.364079    0.029323
     12          7           0        3.465937   -1.586811    0.053425
     13          6           0        3.679435    0.788665    0.008688
     14          6           0        3.156326    2.049020    0.019334
     15          6           0        1.755425    2.275935    0.062119
     16          7           0        1.323007    3.574728    0.035587
     17          6           0        0.894275    1.150365    0.090205
     18          6           0       -0.555041    1.341278    0.172146
     19          8           0       -1.036556    2.505387    0.230304
     20          6           0       -1.444078    0.178063    0.185883
     21          1           0       -2.877638    2.397350    0.287475
     22          1           0       -4.447839    1.638122    0.258185
     23          1           0       -4.752195   -0.655637    0.310568
     24          1           0       -3.824131   -2.903371    0.105124
     25          1           0       -1.984718   -4.307646    0.112225
     26          1           0       -0.340565   -3.733514    0.009615
     27          1           0        4.442340   -1.633232   -0.191643
     28          1           0        2.877192   -2.396864   -0.090116
     29          1           0        4.755530    0.652829   -0.016467
     30          1           0        3.819318    2.907438   -0.004782
     31          1           0        0.341757    3.732567    0.224416
     32          1           0        1.990424    4.301930    0.239075
 ---------------------------------------------------------------------

 SCF Done:  E(UB3LYP) =  -910.494520379     A.U. after    1 cycles

 Alpha  occ. eigenvalues --  -19.10551 -19.10550 -14.32379 -14.32376 -14.32375
 Alpha  occ. eigenvalues --  -14.32370 -10.26098 -10.26098 -10.23386 -10.23385
 Alpha  occ. eigenvalues --  -10.23384 -10.23378 -10.19139 -10.19137 -10.19099
 Alpha  occ. eigenvalues --  -10.19098 -10.19072 -10.19072 -10.19005 -10.19005
 Alpha  occ. eigenvalues --   -1.03748  -1.03506  -0.93990  -0.93485  -0.92946
 Alpha  occ. eigenvalues --   -0.92460  -0.85435  -0.83585  -0.79970  -0.76401
 Alpha  occ. eigenvalues --   -0.74253  -0.72766  -0.67777  -0.65828  -0.65606
 Alpha  occ. eigenvalues --   -0.60720  -0.58518  -0.58310  -0.56221  -0.54367
 Alpha  occ. eigenvalues --   -0.53356  -0.52450  -0.51019  -0.50335  -0.49812
 Alpha  occ. eigenvalues --   -0.48619  -0.46764  -0.46291  -0.45627  -0.44703
 Alpha  occ. eigenvalues --   -0.43395  -0.42897  -0.41785  -0.41359  -0.41082
 Alpha  occ. eigenvalues --   -0.40611  -0.39095  -0.38566  -0.37449  -0.37174
 Alpha  occ. eigenvalues --   -0.36426  -0.34863  -0.29359  -0.28096  -0.27457
 Alpha  occ. eigenvalues --   -0.26917  -0.26680  -0.26091  -0.20938  -0.18620
 Alpha virt. eigenvalues --   -0.10002  -0.04387  -0.03122  -0.00649  -0.00044
 Alpha virt. eigenvalues --    0.00203   0.01004   0.01246   0.01476   0.02907
 Alpha virt. eigenvalues --    0.03143   0.03675   0.03901   0.04001   0.05215

  Beta  occ. eigenvalues --  -19.10551 -19.10550 -14.32379 -14.32376 -14.32375
  Beta  occ. eigenvalues --  -14.32370 -10.26098 -10.26098 -10.23386 -10.23385
  Beta  occ. eigenvalues --  -10.23384 -10.23378 -10.19139 -10.19137 -10.19099
  Beta  occ. eigenvalues --  -10.19098 -10.19072 -10.19072 -10.19005 -10.19005
  Beta  occ. eigenvalues --   -1.03748  -1.03506  -0.93990  -0.93485  -0.92946
  Beta  occ. eigenvalues --   -0.92460  -0.85435  -0.83585  -0.79970  -0.76401
  Beta  occ. eigenvalues --   -0.74253  -0.72766  -0.67777  -0.65828  -0.65606
  Beta  occ. eigenvalues --   -0.60720  -0.58518  -0.58310  -0.56221  -0.54367
  Beta  occ. eigenvalues --   -0.53356  -0.52450  -0.51019  -0.50335  -0.49812
  Beta  occ. eigenvalues --   -0.48619  -0.46764  -0.46291  -0.45627  -0.44703
  Beta  occ. eigenvalues --   -0.43395  -0.42897  -0.41785  -0.41359  -0.41082
  Beta  occ. eigenvalues --   -0.40611  -0.39095  -0.38566  -0.37449  -0.37174
  Beta  occ. eigenvalues --   -0.36426  -0.34863  -0.29359  -0.28096  -0.27457
  Beta  occ. eigenvalues --   -0.26917  -0.26680  -0.26091  -0.20938  -0.18620
  Beta virt. eigenvalues --   -0.10002  -0.04387  -0.03122  -0.00649  -0.00044
  Beta virt. eigenvalues --    0.00203   0.01004   0.01246   0.01476   0.02907
  Beta virt. eigenvalues --    0.03143   0.03675   0.03901   0.04001   0.05215

 Mulliken charges and spin densities:
               1          2
     1  N   -0.402389   0.000000
     2  C   -0.080183  -0.000000
     3  C   -0.327835  -0.000000
     4  C   -0.327436  -0.000000
     5  C   -0.080835  -0.000000
     6  N   -0.402226  -0.000000
     7  C    0.522088   0.000000
     8  C   -0.631346  -0.000000
     9  O   -0.397079  -0.000000
    10  C    0.521868   0.000000
    11  C   -0.080032  -0.000000
    12  N   -0.402433   0.000000
    13  C   -0.328348  -0.000000
    14  C   -0.328999   0.000000
    15  C   -0.081410   0.000000
    16  N   -0.401832  -0.000000
    17  C    0.522707   0.000000
    18  C   -0.631550  -0.000000
    19  O   -0.396905  -0.000000
    20  C    0.522207   0.000000
    21  H    0.328923   0.000000
    22  H    0.281308   0.000000
    23  H    0.192875  -0.000000
    24  H    0.192696   0.000000
    25  H    0.281040   0.000000
    26  H    0.329105   0.000000
    27  H    0.281374  -0.000000
    28  H    0.328916   0.000000
    29  H    0.192866   0.000000
    30  H    0.192992   0.000000
    31  H    0.328916   0.000000
    32  H    0.280956  -0.000000
 Sum of Mulliken charges =  -0.00000  -0.00000

 Dipole moment (field-independent basis, Debye):
    X=             -0.0002    Y=             -0.0039    Z=             -0.0166  Tot=              0.0171
 Quadrupole moment (field-independent basis, Debye-Ang):
   XX=            -72.6624   YY=            -98.9240   ZZ=           -124.5198
   XY=             13.1834   XZ=             -1.5696   YZ=              0.3590

  Exact polarizability: 584.172  80.626 424.077 -14.465   5.863 144.906
 Approx polarizability: 666.171  79.779 508.062 -16.804   7.854 168.125

                      1                      2                      3
                      A                      A                      A
 Frequencies --     36.6357                53.3973               107.4720
 Red. masses --      6.3630                 5.5471                10.8253
 Frc consts  --      0.0050                 0.0093                 0.0737
 IR Inten    --     14.2281                 0.0354                12.7406

                      4                      5                      6
                      A                      A                      A
 Frequencies --    123.9146               134.7736               183.1170
 Red. masses --      4.8687                 5.3688                 5.2447
 Frc consts  --      0.0440                 0.0575                 0.1036
 IR Inten    --      1.8719                 2.3274                49.6927

                      7                      8                      9
                      A                      A                      A
 Frequencies --    216.6828               238.2132               280.4645
 Red. masses --      4.9712                 2.5866                 1.3022
 Frc consts  --      0.1375                 0.0865                 0.0604
 IR Inten    --     14.8118                76.1165               760.6875

                     10                     11                     12
                      A                      A                      A
 Frequencies --    297.6821               298.6871               316.9838
 Red. masses --      1.5100                 2.3444                 1.8467
 Frc consts  --      0.0788                 0.1232                 0.1093
 IR Inten    --    701.5221               107.9094               288.9035

                     13                     14                     15
                      A                      A                      A
 Frequencies --    320.9610               333.5369               347.0122
 Red. masses --      2.5419                 1.5243                 4.8857
 Frc consts  --      0.1543                 0.0999                 0.3466
 IR Inten    --    211.7892                50.3905                12.5052

                     16                     17                     18
                      A                      A                      A
 Frequencies --    347.2194               375.1783               417.9880
 Red. masses --      4.7022                 3.0410                 4.5770
 Frc consts  --      0.3340                 0.2522                 0.4711
 IR Inten    --      5.0110                18.9194                 0.0209

                     19                     20                     21
                      A                      A                      A
 Frequencies --    436.1874               439.4190               454.2550
 Red. masses --      7.2891                 9.3713                 5.6472
 Frc consts  --      0.8171                 1.0661                 0.6866
 IR Inten    --      0.1958                21.2825                 0.1510

                     22                     23                     24
                      A                      A                      A
 Frequencies --    465.7160               467.5351               470.7154
 Red. masses --      5.5862                 3.3383                 3.1391
 Frc consts  --      0.7138                 0.4299                 0.4098
 IR Inten    --     65.3563                18.2049                 4.3217

                     25                     26                     27
                      A                      A                      A
 Frequencies --    495.7218               501.0370               536.2596
 Red. masses --      7.5743                 5.4891                 5.2686
 Frc consts  --      1.0967                 0.8119                 0.8927
 IR Inten    --     42.6412                 0.0792                 0.1377

                     28                     29                     30
                      A                      A                      A
 Frequencies --    561.5341               563.6888               595.5323
 Red. masses --      2.5798                 1.5262                 3.0147
 Frc consts  --      0.4793                 0.2857                 0.6299
 IR Inten    --    100.1935                56.9442                 2.6112

                     31                     32                     33
                      A                      A                      A
 Frequencies --    605.5363               612.8984               616.3983
 Red. masses --      1.1278                 1.1010                 1.2175
 Frc consts  --      0.2436                 0.2437                 0.2726
 IR Inten    --      1.5979                 6.9871               114.0370

                     34                     35                     36
                      A                      A                      A
 Frequencies --    650.3772               684.2363               722.2905
 Red. masses --      2.0939                 5.9041                 5.9330
 Frc consts  --      0.5218                 1.6286                 1.8237
 IR Inten    --     21.0433                13.2381                 0.1700

                     37                     38                     39
                      A                      A                      A
 Frequencies --    740.3199               759.1256               791.6867
 Red. masses --      7.6269                 6.2017                 5.9754
 Frc consts  --      2.4628                 2.1057                 2.2066
 IR Inten    --      0.0008                 3.3389                 3.6540

                     40                     41                     42
                      A                      A                      A
 Frequencies --    797.0112               824.7965               839.5205
 Red. masses --     10.9642                 8.0132                 1.6576
 Frc consts  --      4.1035                 3.2118                 0.6883
 IR Inten    --      0.0985               102.4298                 1.3929

                     43                     44                     45
                      A                      A                      A
 Frequencies --    842.0411               865.8091               964.1994
 Red. masses --      1.7684                 6.5664                 4.5272
 Frc consts  --      0.7388                 2.9001                 2.4798
 IR Inten    --    101.9447                 6.2329                 0.1379

                     46                     47                     48
                      A                      A                      A
 Frequencies --    971.7771               972.9480               978.3038
 Red. masses --      1.3261                 1.3130                 5.2723
 Frc consts  --      0.7379                 0.7323                 2.9730
 IR Inten    --      0.0264                 0.1713               114.6599

                     49                     50                     51
                      A                      A                      A
 Frequencies --    980.6427              1033.5016              1097.6966
 Red. masses --      3.0913                 1.7552                 1.6266
 Frc consts  --      1.7515                 1.1046                 1.1547
 IR Inten    --      0.5024               356.8104               100.8645

                     52                     53                     54
                      A                      A                      A
 Frequencies --   1105.8667              1112.4203              1188.5273
 Red. masses --      1.4411                 2.0479                 1.2440
 Frc consts  --      1.0384                 1.4931                 1.0354
 IR Inten    --      1.5719                 0.6874               966.8223

                     55                     56                     57
                      A                      A                      A
 Frequencies --   1204.7585              1219.0896              1233.7803
 Red. masses --      1.1677                 3.2584                 4.0745
 Frc consts  --      0.9986                 2.8532                 3.6543
 IR Inten    --      4.6981                11.1953              3084.1354

                     58                     59                     60
                      A                      A                      A
 Frequencies --   1286.6064              1299.8773              1315.5687
 Red. masses --      5.1252                 4.7050                 2.1052
 Frc consts  --      4.9986                 4.6840                 2.1467
 IR Inten    --      0.0923               135.0584                 0.5727

                     61                     62                     63
                      A                      A                      A
 Frequencies --   1330.2979              1393.7997              1399.2885
 Red. masses --      2.6194                 5.4899                 5.6402
 Frc consts  --      2.7312                 6.2837                 6.5067
 IR Inten    --    113.3019                 0.9248                 0.1069

                     64                     65                     66
                      A                      A                      A
 Frequencies --   1424.8274              1433.6988              1439.9111
 Red. masses --      6.2996                 6.0321                 4.5802
 Frc consts  --      7.5351                 7.3052                 5.5951
 IR Inten    --    208.9226                 0.6659                58.2559

                     67                     68                     69
                      A                      A                      A
 Frequencies --   1441.1069              1474.8161              1521.8123
 Red. masses --      2.2579                 2.5168                 3.9205
 Frc consts  --      2.7627                 3.2253                 5.3495
 IR Inten    --    120.6188                 3.3764                 0.0860

                     70                     71                     72
                      A                      A                      A
 Frequencies --   1558.3140              1564.0827              1568.4457
 Red. masses --      3.7739                 1.2512                 2.2359
 Frc consts  --      5.3995                 1.8034                 3.2407
 IR Inten    --   2401.4494               138.4836                 5.1550

                     73                     74                     75
                      A                      A                      A
 Frequencies --   1574.0603              1589.7128              1606.2092
 Red. masses --      1.9051                 3.6343                 1.4513
 Frc consts  --      2.7811                 5.4113                 2.2061
 IR Inten    --      3.2587               545.1389                 0.3528

                     76                     77                     78
                      A                      A                      A
 Frequencies --   1609.9251              1642.2347              1680.1878
 Red. masses --      1.8511                 5.3618                 7.2450
 Frc consts  --      2.8268                 8.5198                12.0504
 IR Inten    --      1.5056              1011.8301                 0.0049

                     79                     80                     81
                      A                      A                      A
 Frequencies --   3159.9785              3160.8856              3175.9392
 Red. masses --      1.0873                 1.0872                 1.0963
 Frc consts  --      6.3967                 6.3998                 6.5153
 IR Inten    --     14.1438                16.7701                57.0796

                     82                     83                     84
                      A                      A                      A
 Frequencies --   3176.8989              3511.8804              3513.3364
 Red. masses --      1.0961                 1.0502                 1.0503
 Frc consts  --      6.5181                 7.6310                 7.6382
 IR Inten    --     30.4068                 4.1797                 6.8586

                     85                     86                     87
                      A                      A                      A
 Frequencies --   3516.3174              3517.1159              3671.6418
 Red. masses --      1.0506                 1.0501                 1.0999
 Frc consts  --      7.6539                 7.6534                 8.7359
 IR Inten    --      7.9582               335.2873               200.9756

                     88                     89                     90
                      A                      A                      A
 Frequencies --   3672.3592              3672.8375              3673.5823
 Red. masses --      1.0996                 1.0999                 1.0997
 Frc consts  --      8.7374                 8.7418                 8.7437
 IR Inten    --    239.2033                62.9694                66.2082

 - Thermochemistry -
 -------------------
 Temperature   298.150 Kelvin.  Pressure   1.00000 Atm.
 Atom     1 has atomic number  7 and mass  14.00307

 Molecular mass:   268.09603 amu.
 Principal axes and moments of inertia in atomic units:
                           1         2         3
     Eigenvalues --  3432.601185568.623198992.77988
           X            0.92335  -0.38200   0.03876
           Y            0.38324   0.92309  -0.03213
           Z           -0.02350   0.04452   0.99873
 This molecule is an asymmetric top.
 Rotational symmetry number  1.
 Warning -- assumption of classical behavior for rotation
           may cause significant error
 Rotational temperatures (Kelvin)      0.02523     0.01555     0.00963
 Rotational constants (GHZ):           0.52576     0.32409     0.20069
 Zero-point vibrational energy     642458.3 (Joules/Mol)
                                  153.55121 (Kcal/Mol)
 Warning -- explicit consideration of  33 degrees of freedom as
           vibrations may cause significant error
 Vibrational temperatures:     52.71    76.83   154.63   178.29   193.91
          (Kelvin)            263.46   311.76   342.74   403.53   428.30
                              429.74   456.07   461.79   479.89   499.27
                              499.57   539.80   601.39   627.58   632.23
                              653.57   670.06   672.68   677.25   713.23
                              720.88   771.56   807.92   811.02   856.84
                              871.23   881.82   886.86   935.75   984.46
                             1039.21  1065.16  1092.21  1139.06  1146.72
                             1186.70  1207.88  1211.51  1245.71  1387.27
                             1398.17  1399.86  1407.56  1410.93  1486.98
                             1579.34  1591.10  1600.52  1710.03  1733.38
                             1754.00  1775.13  1851.14  1870.23  1892.81
                             1914.00  2005.37  2013.26  2050.01  2062.77
                             2071.71  2073.43  2121.93  2189.55  2242.07
                             2250.37  2256.64  2264.72  2287.24  2310.98
                             2316.32  2362.81  2417.42  4546.50  4547.81
                             4569.47  4570.85  5052.81  5054.91  5059.20
                             5060.35  5282.67  5283.71  5284.39  5285.47

 Zero-point correction=                           0.244699 (Hartree/Particle)
 Thermal correction to Energy=                    0.261412
 Thermal correction to Enthalpy=                  0.262356
 Thermal correction to Gibbs Free Energy=         0.201824
 Sum of electronic and zero-point Energies=           -910.249821
 Sum of electronic and thermal Energies=              -910.233108
 Sum of electronic and thermal Enthalpies=            -910.232164
 Sum of electronic and thermal Free Energies=         -910.292696

                     E (Thermal)             CV                S
                      KCal/Mol        Cal/Mol-Kelvin    Cal/Mol-Kelvin
 Total                  164.039             68.781            127.400
 Electronic               0.000              0.000              0.000
 Translational            0.889              2.981             42.658
 Rotational               0.889              2.981             33.508
 Vibrational            162.261             62.820             51.235
 Vibration     1          0.594              1.982              5.433
 Vibration     2          0.596              1.976              4.687
 Vibration     3          0.606              1.943              3.314
 Vibration     4          0.610              1.929              3.038
 Vibration     5          0.613              1.919              2.877
 Vibration     6          0.631              1.863              2.296
 Vibration     7          0.646              1.816              1.987
 Vibration     8          0.656              1.782              1.816
 Vibration     9          0.680              1.710              1.531
 Vibration    10          0.691              1.678              1.430
 Vibration    11          0.692              1.676              1.424
 Vibration    12          0.704              1.641              1.326
 Vibration    13          0.706              1.633              1.305
 Vibration    14          0.715              1.609              1.243
 Vibration    15          0.725              1.581              1.180
 Vibration    16          0.725              1.581              1.179
 Vibration    17          0.746              1.523              1.059
 Vibration    18          0.781              1.431              0.899
 Vibration    19          0.797              1.391              0.839
 Vibration    20          0.799              1.384              0.828
 Vibration    21          0.813              1.351              0.783
 Vibration    22          0.823              1.326              0.750
 Vibration    23          0.825              1.322              0.744
 Vibration    24          0.828              1.315              0.736
 Vibration    25          0.851              1.260              0.669
 Vibration    26          0.856              1.248              0.656
 Vibration    27          0.891              1.170              0.573
 Vibration    28          0.917              1.115              0.521
 Vibration    29          0.919              1.110              0.517
 Vibration    30          0.953              1.041              0.457
 Vibration    31          0.964              1.020              0.440
 Vibration    32          0.972              1.005              0.428
 Vibration    33          0.976              0.997              0.422

                           ! Non-Optimized Parameters !
 Normal termination of Gaussian 16 at Sat Feb 10 19:25:00 2024.
