 Q-Chem 5.4, Q-Chem, Inc., Pleasanton, CA (2021)
 Q-Chem 5.4.0 for Intel X86 EM64T Linux

User input:
--------------------------------------------------------------
$molecule
0 1
C                 -0.5459740000     -2.1947820000      1.0014700000
C                  0.8418410000     -2.4922140000      0.8457510000
C                  1.7777510000     -1.4951110000      0.7215900000
C                  1.3428900000     -0.0203870000      0.7484740000
C                 -0.0448990000      0.2770610000      0.9043910000
C                 -0.9807760000     -0.7200350000      1.0287490000
O                 -1.4248570000     -3.0524430000      1.1163870000
O                  2.2217000000      0.8373010000      0.6331500000
N                 -2.3069080000     -0.6098890000      1.1808970000
N                  3.1039060000     -1.6052690000      0.5696370000
C                 -3.1783990000      0.5811360000      1.2621230000
C                 -4.6075060000      0.0425290000      1.4370540000
C                 -2.8075630000      1.4418050000      2.4849720000
C                 -3.1007060000      1.3993350000     -0.0410130000
C                  3.9753850000     -2.7963350000      0.4881430000
C                  3.8972390000     -3.6152240000      1.7907830000
C                  5.4045860000     -2.2577160000      0.3141110000
C                  3.6049110000     -3.6563190000     -0.7353140000
H                  1.0960560000     -3.5416390000      0.8327490000
H                 -0.2991890000      1.3264750000      0.9172470000
H                 -2.7491590000     -1.5248080000      1.2461590000
H                  3.5461230000     -0.6903980000      0.5037570000
H                 -4.8972480000     -0.5823100000      0.5874360000
H                 -5.3158900000      0.8703880000      1.5052380000
H                 -4.6926910000     -0.5525700000      2.3507350000
H                 -2.8842960000      0.8534380000      3.4025090000
H                 -3.4929160000      2.2898750000      2.5621070000
H                 -1.7929780000      1.8358240000      2.4206900000
H                 -3.3840920000      0.7813990000     -0.8964640000
H                 -2.0995870000      1.7904170000     -0.2242290000
H                 -3.7879850000      2.2476410000      0.0129600000
H                  2.8962800000     -4.0070650000      1.9732010000
H                  4.1797200000     -2.9975950000      2.6467590000
H                  4.5850870000     -4.4630720000      1.7367790000
H                  5.6940380000     -1.6334420000      1.1642410000
H                  5.4901740000     -1.6620370000     -0.5991590000
H                  6.1129570000     -3.0855610000      0.2456290000
H                  2.5900910000     -4.0498540000     -0.6717710000
H                  4.2898980000     -4.5046880000     -0.8124260000
H                  3.6824660000     -3.0675640000     -1.6525310000
$end
$rem
MAX_SCF_CYCLES=200
BASIS  =  6-311++G(d,p)
GUI  =  2
JOB_TYPE  =  SP
METHOD  =  B3LYP
SOLVENT_METHOD = COSMO
$end
$solvent
dielectric 37.219
opticaldielectric 1.43
$end

--------------------------------------------------------------

             Standard Nuclear Orientation (Angstroms)
    I     Atom           X                Y                Z
 ----------------------------------------------------------------
    1      C       0.4366993826    -1.3781347990     0.0000064387
    2      C      -0.9618931135    -1.0905870651    -0.0000734370
    3      C      -1.4267147470     0.2015037586     0.0000906562
    4      C      -0.4366760352     1.3781349897     0.0001907494
    5      C       0.9619187973     1.0906002752     0.0000707225
    6      C       1.4267326844    -0.2014829352    -0.0002929427
    7      O       0.9045842342    -2.5193216040     0.0002844484
    8      O      -0.9045238654     2.5193421296     0.0003249568
    9      N       2.6936970310    -0.6358886351    -0.0008117240
   10      N      -2.6936855495     0.6358958221     0.0004132988
   11      C       3.9730045477     0.1043859874    -0.0000783014
   12      C       5.0758662841    -0.9664734213    -0.0012139415
   13      C       4.1014369643     0.9660292003    -1.2707892171
   14      C       4.1013384584     0.9632919854     1.2725018078
   15      C      -3.9730251064    -0.1044049394    -0.0000519090
   16      C      -4.1012722367    -0.9640927231    -1.2720764958
   17      C      -5.0758786493     0.9664484922     0.0001798074
   18      C      -4.1015727147    -0.9652404143     1.2712105711
   19      H      -1.6155015261    -1.9501701951     0.0001126766
   20      H       1.6155766511     1.9501523873     0.0000384123
   21      H       2.7360570093    -1.6533007286    -0.0004704893
   22      H      -2.7360949846     1.6532877619     0.0006905557
   23      H       5.0050889239    -1.6024629636     0.8857656613
   24      H       6.0597141150    -0.4933450103    -0.0005616973
   25      H       5.0052638767    -1.6004967967    -0.8896068351
   26      H       4.0262182563     0.3412923955    -2.1640886613
   27      H       5.0733002858     1.4662666287    -1.2819904361
   28      H       3.3290647225     1.7333231152    -1.3296707778
   29      H       4.0269631504     0.3364989018     2.1644366050
   30      H       3.3282793511     1.7297319301     1.3333451586
   31      H       5.0727577185     1.4643794706     1.2845239312
   32      H      -3.3287421833    -1.7311162334    -1.3321336926
   33      H      -4.0261438595    -0.3379715607    -2.1644239766
   34      H      -5.0730291154    -1.4645330949    -1.2841403784
   35      H      -5.0050130542     1.6017745691    -0.8872661615
   36      H      -5.0053700083     1.6011381928     0.8881090755
   37      H      -6.0597385253     0.4933457334    -0.0001751729
   38      H      -3.3288655288    -1.7321396359     1.3308455451
   39      H      -5.0732203295    -1.4658983018     1.2824356810
   40      H      -4.0269153621    -0.3398414262     2.1640916598
 ----------------------------------------------------------------

    9    -806.9362951166      4.19e-06  Convergence criterion met
 Total energy in the final basis set =     -806.9362951166
    4    -806.9553955438      8.63e-06  Convergence criterion met
 Total energy in the final basis set =     -806.9553955438

                    Orbital Energies (a.u.)
 --------------------------------------------------------------

 Alpha MOs
 -- Occupied --
-19.1171 -19.1171 -14.3541 -14.3541 -10.2694 -10.2694 -10.2481 -10.2480
-10.2333 -10.2333 -10.1703 -10.1703 -10.1641 -10.1641 -10.1621 -10.1621
-10.1621 -10.1621  -1.0549  -1.0523  -0.9635  -0.9633  -0.8410  -0.8176
 -0.7949  -0.7509  -0.6989  -0.6986  -0.6958  -0.6958  -0.6823  -0.6410
 -0.6071  -0.5957  -0.5630  -0.5452  -0.5208  -0.5058  -0.4838  -0.4739
 -0.4636  -0.4587  -0.4490  -0.4456  -0.4456  -0.4419  -0.4394  -0.4275
 -0.4151  -0.4077  -0.4017  -0.3993  -0.3898  -0.3894  -0.3800  -0.3730
 -0.3728  -0.3640  -0.3628  -0.3581  -0.3421  -0.3409  -0.3334  -0.3259
 -0.2854  -0.2726  -0.2484  -0.2210

          Ground-State Mulliken Net Atomic Charges

     Atom                 Charge (a.u.)
  ----------------------------------------
      1 C                    -0.337933
      2 C                    -0.144344
      3 C                     0.114792
      4 C                    -0.339574
      5 C                    -0.144376
      6 C                     0.113395
      7 O                    -0.392187
      8 O                    -0.392020
      9 N                     0.091974
     10 N                     0.091671
     11 C                    -0.097121
     12 C                    -0.522924
     13 C                    -0.435964
     14 C                    -0.435783
     15 C                    -0.097256
     16 C                    -0.436221
     17 C                    -0.522426
     18 C                    -0.435829
     19 H                     0.265438
     20 H                     0.265401
     21 H                     0.401728
     22 H                     0.401680
     23 H                     0.169095
     24 H                     0.173296
     25 H                     0.169156
     26 H                     0.173844
     27 H                     0.184542
     28 H                     0.132815
     29 H                     0.173806
     30 H                     0.132933
     31 H                     0.184446
     32 H                     0.132938
     33 H                     0.173873
     34 H                     0.184552
     35 H                     0.169054
     36 H                     0.169086
     37 H                     0.173336
     38 H                     0.132893
     39 H                     0.184453
     40 H                     0.173754
  ----------------------------------------
  Sum of atomic charges =    -0.000007

                    Cartesian Multipole Moments
 -----------------------------------------------------------------
    Charge (ESU x 10^10)
                -0.0000
    Dipole Moment (Debye)
         X       0.0002      Y      -0.0005      Z      -0.0007
       Tot       0.0009
    Quadrupole Moments (Debye-Ang)
        XX     -67.0665     XY       6.3817     YY    -132.2601
        XZ       0.0013     YZ       0.0008     ZZ    -111.8153

 Total job time:  121.08s(wall), 884.68s(cpu)
        *  Thank you very much for using Q-Chem.  Have a nice day.  *
