 Gaussian 16, Revision A.03,
 Gaussian 16:  ES64L-G16RevA.03 25-Dec-2016

 ----------------------------------------------------------------------
 #P UB3LYP/6-311++G(d,p) nosym opt freq SCRF=(PCM,Solvent=n,n-DiMethylF
 ormamide)
 ----------------------------------------------------------------------

 -------
 Radical
 -------
 Symbolic Z-matrix:
 Charge = -1 Multiplicity = 2

 SCF Done:  E(UB3LYP) =  -724.791483928     A.U. after   20 cycles
 SCF Done:  E(UB3LYP) =  -724.791860341     A.U. after   15 cycles
 SCF Done:  E(UB3LYP) =  -724.791926059     A.U. after   15 cycles
 SCF Done:  E(UB3LYP) =  -724.791946686     A.U. after   14 cycles
 SCF Done:  E(UB3LYP) =  -724.791968137     A.U. after   13 cycles
 SCF Done:  E(UB3LYP) =  -724.791969417     A.U. after   12 cycles
 SCF Done:  E(UB3LYP) =  -724.791969975     A.U. after   12 cycles
 SCF Done:  E(UB3LYP) =  -724.791970186     A.U. after   11 cycles
 SCF Done:  E(UB3LYP) =  -724.791970324     A.U. after   10 cycles
 Optimization completed.
    -- Stationary point found.
 Normal termination of Gaussian 16 at Sun Feb 11 02:17:59 2024.

 ----------------------------------------------------------------------
 #P Geom=AllCheck Guess=TCheck SCRF=Check GenChk UB3LYP/6-311++G(d,p) F
 req
 ----------------------------------------------------------------------

 Structure from the checkpoint file:  "273-rad.chk"
 -------
 Radical
 -------
 Charge = -1 Multiplicity = 2

                          Input orientation:
 ---------------------------------------------------------------------
 Center     Atomic      Atomic             Coordinates (Angstroms)
 Number     Number       Type             X           Y           Z
 ---------------------------------------------------------------------
      1          6           0       -0.834128    3.798927   -0.139473
      2          6           0       -1.879275    3.127748    0.470117
      3          6           0       -1.706997    1.797565    0.897725
      4          6           0        0.415245    3.171861   -0.344364
      5          6           0        0.588280    1.826043    0.085042
      6          6           0       -0.488515    1.165449    0.703711
      7          6           0        1.505048    3.893653   -0.981824
      8          6           0        2.757365    3.178058   -1.142248
      9          6           0        2.925361    1.845541   -0.752779
     10          6           0        1.870723    1.115867   -0.109039
     11          8           0        1.395559    5.093128   -1.398987
     12          8           0        2.008257   -0.081947    0.282547
     13          7           0        3.801772    3.892963   -1.683605
     14          1           0       -0.953332    4.823473   -0.471489
     15          1           0       -2.831206    3.626381    0.619809
     16          1           0       -2.525135    1.270280    1.376558
     17          1           0       -0.338198    0.141850    1.026008
     18          1           0        3.529162    4.715545   -2.203314
     19          1           0        4.559223    3.332235   -2.048510
     20          7           0        4.211333    1.252924   -1.020453
     21          6           0        5.028204    1.019790    0.172170
     22          6           0        4.181878    0.096986   -1.918711
     23          1           0        5.082744    1.937360    0.762696
     24          1           0        6.045309    0.751920   -0.132093
     25          1           0        4.634238    0.216277    0.811534
     26          1           0        3.615590    0.350113   -2.818242
     27          1           0        3.730191   -0.794174   -1.462433
     28          1           0        5.205731   -0.146258   -2.221269
 ---------------------------------------------------------------------

 SCF Done:  E(UB3LYP) =  -724.791970324     A.U. after    2 cycles

 Alpha  occ. eigenvalues --  -19.07362 -19.06337 -14.30868 -14.29953 -10.21532
 Alpha  occ. eigenvalues --  -10.21419 -10.20116 -10.17678 -10.17530 -10.17470
 Alpha  occ. eigenvalues --  -10.16912 -10.16903 -10.16775 -10.16757 -10.16635
 Alpha  occ. eigenvalues --  -10.16588  -0.99548  -0.98728  -0.92205  -0.89140
 Alpha  occ. eigenvalues --   -0.85241  -0.78303  -0.74584  -0.72511  -0.69613
 Alpha  occ. eigenvalues --   -0.67161  -0.63604  -0.60637  -0.58153  -0.55813
 Alpha  occ. eigenvalues --   -0.53464  -0.50600  -0.48284  -0.47047  -0.45406
 Alpha  occ. eigenvalues --   -0.44688  -0.44357  -0.42994  -0.41821  -0.41600
 Alpha  occ. eigenvalues --   -0.41143  -0.40297  -0.38972  -0.38564  -0.36872
 Alpha  occ. eigenvalues --   -0.36463  -0.35940  -0.35127  -0.34814  -0.33267
 Alpha  occ. eigenvalues --   -0.31888  -0.25927  -0.25282  -0.24803  -0.23832
 Alpha  occ. eigenvalues --   -0.21251  -0.20454  -0.14349
 Alpha virt. eigenvalues --   -0.02834  -0.00571  -0.00446   0.00464   0.01087
 Alpha virt. eigenvalues --    0.01973   0.02283   0.02532   0.03847   0.04411
 Alpha virt. eigenvalues --    0.04507   0.04853   0.05538   0.05976   0.06017

  Beta  occ. eigenvalues --  -19.06692 -19.05869 -14.30782 -14.29956 -10.21406
  Beta  occ. eigenvalues --  -10.21132 -10.19983 -10.17676 -10.17528 -10.17451
  Beta  occ. eigenvalues --  -10.16904 -10.16892 -10.16692 -10.16649 -10.16602
  Beta  occ. eigenvalues --  -10.16583  -0.98446  -0.97870  -0.92015  -0.88965
  Beta  occ. eigenvalues --   -0.85037  -0.77875  -0.74372  -0.72362  -0.69605
  Beta  occ. eigenvalues --   -0.66345  -0.63379  -0.60402  -0.57998  -0.55558
  Beta  occ. eigenvalues --   -0.53329  -0.50379  -0.48217  -0.46711  -0.45298
  Beta  occ. eigenvalues --   -0.44527  -0.44263  -0.42891  -0.41769  -0.41381
  Beta  occ. eigenvalues --   -0.39894  -0.39684  -0.38699  -0.38201  -0.36373
  Beta  occ. eigenvalues --   -0.35949  -0.35464  -0.34875  -0.33783  -0.33119
  Beta  occ. eigenvalues --   -0.30256  -0.24592  -0.24357  -0.24141  -0.23328
  Beta  occ. eigenvalues --   -0.20596  -0.20029
  Beta virt. eigenvalues --   -0.07854  -0.02156  -0.00551   0.00463   0.00625
  Beta virt. eigenvalues --    0.01111   0.02022   0.02286   0.02544   0.03868
  Beta virt. eigenvalues --    0.04454   0.04676   0.04867   0.05594   0.06022

 Mulliken charges and spin densities:
               1          2
     1  C   -0.129531   0.075092
     2  C   -0.325050  -0.003207
     3  C   -0.357089   0.077749
     4  C    0.903922   0.003506
     5  C    0.127237   0.069643
     6  C    0.003283   0.001802
     7  C   -0.735338   0.185004
     8  C    0.150980   0.069378
     9  C   -0.229196   0.000748
    10  C   -0.875967   0.062879
    11  O   -0.519898   0.248301
    12  O   -0.447155   0.173812
    13  N   -0.436582   0.046283
    14  H    0.154984  -0.004889
    15  H    0.176988  -0.000307
    16  H    0.178056  -0.005585
    17  H    0.159433   0.000330
    18  H    0.289030  -0.001846
    19  H    0.292456  -0.001132
    20  N    0.182184  -0.005325
    21  C   -0.237583   0.003764
    22  C   -0.208337   0.002186
    23  H    0.137223   0.001095
    24  H    0.143385   0.000640
    25  H    0.161939  -0.000942
    26  H    0.141290   0.000847
    27  H    0.162364  -0.000138
    28  H    0.136971   0.000312
 Sum of Mulliken charges =  -1.00000   1.00000

 Dipole moment (field-independent basis, Debye):
    X=             -6.7792    Y=            -12.1966    Z=              1.2596  Tot=             14.0108
 Quadrupole moment (field-independent basis, Debye-Ang):
   XX=           -105.2759   YY=           -161.3666   ZZ=           -100.5834
   XY=            -14.9374   XZ=             -3.5030   YZ=             11.5830

  Exact polarizability: 328.361 -10.508 315.932 -56.672 -55.329 187.551
 Approx polarizability: 340.557  -4.548 367.442 -58.068 -70.692 208.271

                      1                      2                      3
                      A                      A                      A
 Frequencies --     52.0243                60.3845               105.4235
 Red. masses --      3.0785                 4.3700                 4.5444
 Frc consts  --      0.0049                 0.0094                 0.0298
 IR Inten    --      2.4756                 8.6904                 7.8766

                      4                      5                      6
                      A                      A                      A
 Frequencies --    133.7770               152.7529               173.2562
 Red. masses --      4.6341                 2.3186                 4.0041
 Frc consts  --      0.0489                 0.0319                 0.0708
 IR Inten    --      1.6235                 8.3212                 3.5679

                      7                      8                      9
                      A                      A                      A
 Frequencies --    203.7862               209.1851               219.4072
 Red. masses --      1.3249                 1.3044                 3.0337
 Frc consts  --      0.0324                 0.0336                 0.0860
 IR Inten    --      2.4795                 1.2248                 1.1003

                     10                     11                     12
                      A                      A                      A
 Frequencies --    260.7087               273.9182               332.5693
 Red. masses --      3.8179                 3.3818                 3.0746
 Frc consts  --      0.1529                 0.1495                 0.2004
 IR Inten    --      7.5944                 4.1121                18.0920

                     13                     14                     15
                      A                      A                      A
 Frequencies --    370.0127               378.5397               393.0668
 Red. masses --      8.3982                 4.0466                 3.9294
 Frc consts  --      0.6774                 0.3416                 0.3577
 IR Inten    --     46.3671                21.0117                 5.8801

                     16                     17                     18
                      A                      A                      A
 Frequencies --    421.8873               441.4052               457.9497
 Red. masses --      5.8249                 4.3648                 3.9773
 Frc consts  --      0.6108                 0.5011                 0.4914
 IR Inten    --     57.0528                 1.3190                 7.1441

                     19                     20                     21
                      A                      A                      A
 Frequencies --    466.3181               501.8721               516.4944
 Red. masses --      2.2865                 1.7823                 7.6431
 Frc consts  --      0.2929                 0.2645                 1.2013
 IR Inten    --    118.2822               293.0396                 8.4032

                     22                     23                     24
                      A                      A                      A
 Frequencies --    537.3435               595.1315               613.5627
 Red. masses --      1.3349                 4.7507                 4.2984
 Frc consts  --      0.2271                 0.9914                 0.9534
 IR Inten    --    162.0025                13.2802                83.9678

                     25                     26                     27
                      A                      A                      A
 Frequencies --    669.7706               711.7542               714.1603
 Red. masses --      6.0736                 5.3604                 2.6448
 Frc consts  --      1.6053                 1.6000                 0.7948
 IR Inten    --      7.8199                 7.3855                74.7093

                     28                     29                     30
                      A                      A                      A
 Frequencies --    720.3335               777.6300               793.9465
 Red. masses --      5.8215                 2.3992                 3.6000
 Frc consts  --      1.7797                 0.8548                 1.3370
 IR Inten    --      8.1146                56.3911                 2.7921

                     31                     32                     33
                      A                      A                      A
 Frequencies --    838.9832               876.6811               877.9726
 Red. masses --      4.2714                 4.7157                 1.4745
 Frc consts  --      1.7714                 2.1354                 0.6697
 IR Inten    --     17.6348                33.1918                 1.6914

                     34                     35                     36
                      A                      A                      A
 Frequencies --    976.6996               977.6953               992.5612
 Red. masses --      3.3659                 1.4257                 1.2814
 Frc consts  --      1.8918                 0.8029                 0.7438
 IR Inten    --    115.8782                 9.8365                 0.0160

                     37                     38                     39
                      A                      A                      A
 Frequencies --   1033.2710              1049.9517              1051.9036
 Red. masses --      2.4555                 2.4039                 1.6905
 Frc consts  --      1.5446                 1.5614                 1.1021
 IR Inten    --     32.6457                21.8528                24.1947

                     40                     41                     42
                      A                      A                      A
 Frequencies --   1097.2061              1105.6881              1143.4299
 Red. masses --      1.2262                 2.1441                 1.5874
 Frc consts  --      0.8697                 1.5444                 1.2228
 IR Inten    --      6.2397                 4.5137                73.1628

                     43                     44                     45
                      A                      A                      A
 Frequencies --   1157.3234              1164.6455              1189.2632
 Red. masses --      1.4708                 1.4500                 2.5919
 Frc consts  --      1.1607                 1.1588                 2.1598
 IR Inten    --      7.5159                51.5520                44.0359

                     46                     47                     48
                      A                      A                      A
 Frequencies --   1219.9302              1220.8869              1248.2077
 Red. masses --      3.2840                 1.9954                 3.3286
 Frc consts  --      2.8796                 1.7524                 3.0555
 IR Inten    --     28.9043                57.7300                11.0740

                     49                     50                     51
                      A                      A                      A
 Frequencies --   1300.6734              1316.9296              1351.7665
 Red. masses --      2.5352                 3.2697                 9.3537
 Frc consts  --      2.5270                 3.3411                10.0701
 IR Inten    --     97.4041                69.4829                65.9551

                     52                     53                     54
                      A                      A                      A
 Frequencies --   1417.6564              1422.9032              1439.0263
 Red. masses --      3.2682                 1.1533                 1.7682
 Frc consts  --      3.8699                 1.3757                 2.1573
 IR Inten    --    120.9703                 5.0616               594.0478

                     55                     56                     57
                      A                      A                      A
 Frequencies --   1450.4939              1462.6275              1466.1508
 Red. masses --      2.4010                 1.8269                 1.0571
 Frc consts  --      2.9763                 2.3026                 1.3388
 IR Inten    --    461.2458                96.5567                13.2819

                     58                     59                     60
                      A                      A                      A
 Frequencies --   1473.5243              1491.0102              1497.4955
 Red. masses --      1.2198                 4.1492                 1.0519
 Frc consts  --      1.5604                 5.4347                 1.3898
 IR Inten    --     46.4553               840.4042                11.2927

                     61                     62                     63
                      A                      A                      A
 Frequencies --   1508.2918              1520.1723              1533.0924
 Red. masses --      1.1234                 4.7658                 2.4988
 Frc consts  --      1.5057                 6.4889                 3.4603
 IR Inten    --     30.5048               251.1891                66.1115

                     64                     65                     66
                      A                      A                      A
 Frequencies --   1560.0832              1603.5652              1621.6929
 Red. masses --      1.9194                 6.7699                 5.9323
 Frc consts  --      2.7523                10.2566                 9.1921
 IR Inten    --    160.3194                52.2525                18.2291

                     67                     68                     69
                      A                      A                      A
 Frequencies --   2967.4612              2984.8353              3038.2517
 Red. masses --      1.0480                 1.0422                 1.0850
 Frc consts  --      5.4371                 5.4705                 5.9012
 IR Inten    --    130.3038               151.7558               123.2940

                     70                     71                     72
                      A                      A                      A
 Frequencies --   3041.8953              3082.9543              3085.0598
 Red. masses --      1.0940                 1.1005                 1.1004
 Frc consts  --      5.9641                 6.1628                 6.1707
 IR Inten    --     40.1093                43.2453                69.0375

                     73                     74                     75
                      A                      A                      A
 Frequencies --   3155.4640              3169.6599              3184.3941
 Red. masses --      1.0857                 1.0899                 1.0916
 Frc consts  --      6.3691                 6.4514                 6.5218
 IR Inten    --     10.3136                22.4439                21.4219

                     76                     77                     78
                      A                      A                      A
 Frequencies --   3188.2031              3538.8512              3658.7938
 Red. masses --      1.0946                 1.0443                 1.1023
 Frc consts  --      6.5556                 7.7057                 8.6942
 IR Inten    --     40.9755                60.5062               102.3187

 - Thermochemistry -
 -------------------
 Temperature   298.150 Kelvin.  Pressure   1.00000 Atm.
 Atom     1 has atomic number  6 and mass  12.00000

 Molecular mass:   216.08988 amu.
 Principal axes and moments of inertia in atomic units:
                           1         2         3
     Eigenvalues --  2013.115474096.800945746.71268
           X            0.93204   0.18843   0.30950
           Y           -0.28715   0.90506   0.31371
           Z           -0.22101  -0.38126   0.89766
 This molecule is an asymmetric top.
 Rotational symmetry number  1.
 Warning -- assumption of classical behavior for rotation
           may cause significant error
 Rotational temperatures (Kelvin)      0.04302     0.02114     0.01507
 Rotational constants (GHZ):           0.89649     0.44052     0.31405
 Zero-point vibrational energy     574289.2 (Joules/Mol)
                                  137.25841 (Kcal/Mol)
 Warning -- explicit consideration of  24 degrees of freedom as
           vibrations may cause significant error
 Vibrational temperatures:     74.85    86.88   151.68   192.48   219.78
          (Kelvin)            249.28   293.20   300.97   315.68   375.10
                              394.11   478.49   532.37   544.63   565.54
                              607.00   635.08   658.89   670.93   722.08
                              743.12   773.12   856.26   882.78   963.65
                             1024.06  1027.52  1036.40  1118.84  1142.31
                             1207.11  1261.35  1263.21  1405.25  1406.69
                             1428.07  1486.65  1510.65  1513.45  1578.63
                             1590.84  1645.14  1665.13  1675.67  1711.08
                             1755.21  1756.58  1795.89  1871.38  1894.77
                             1944.89  2039.69  2047.24  2070.44  2086.94
                             2104.39  2109.46  2120.07  2145.23  2154.56
                             2170.10  2187.19  2205.78  2244.61  2307.17
                             2333.25  4269.51  4294.51  4371.37  4376.61
                             4435.68  4438.71  4540.01  4560.43  4581.63
                             4587.11  5091.62  5264.19

 Zero-point correction=                           0.218735 (Hartree/Particle)
 Thermal correction to Energy=                    0.233077
 Thermal correction to Enthalpy=                  0.234022
 Thermal correction to Gibbs Free Energy=         0.177437
 Sum of electronic and zero-point Energies=           -724.573235
 Sum of electronic and thermal Energies=              -724.558893
 Sum of electronic and thermal Enthalpies=            -724.557949
 Sum of electronic and thermal Free Energies=         -724.614533

                     E (Thermal)             CV                S
                      KCal/Mol        Cal/Mol-Kelvin    Cal/Mol-Kelvin
 Total                  146.258             55.855            119.092
 Electronic               0.000              0.000              1.377
 Translational            0.889              2.981             42.015
 Rotational               0.889              2.981             32.227
 Vibrational            144.481             49.893             43.473
 Vibration     1          0.596              1.977              4.739
 Vibration     2          0.597              1.973              4.445
 Vibration     3          0.605              1.945              3.351
 Vibration     4          0.613              1.920              2.891
 Vibration     5          0.619              1.900              2.638
 Vibration     6          0.627              1.875              2.400
 Vibration     7          0.639              1.835              2.099
 Vibration     8          0.642              1.827              2.051
 Vibration     9          0.647              1.812              1.964
 Vibration    10          0.669              1.745              1.657
 Vibration    11          0.676              1.721              1.571
 Vibration    12          0.715              1.610              1.248
 Vibration    13          0.742              1.534              1.080
 Vibration    14          0.749              1.516              1.045
 Vibration    15          0.760              1.485              0.988
 Vibration    16          0.784              1.423              0.886
 Vibration    17          0.801              1.380              0.822
 Vibration    18          0.816              1.343              0.772
 Vibration    19          0.824              1.325              0.748
 Vibration    20          0.857              1.246              0.653
 Vibration    21          0.872              1.213              0.618
 Vibration    22          0.892              1.167              0.571
 Vibration    23          0.953              1.042              0.458
 Vibration    24          0.973              1.003              0.427

                           ! Non-Optimized Parameters !
 Normal termination of Gaussian 16 at Sun Feb 11 03:20:09 2024.
