 Gaussian 16, Revision A.03,
 Gaussian 16:  ES64L-G16RevA.03 25-Dec-2016

 ----------------------------------------------
 #P UB3LYP/6-311++G(d,p) nosym opt freq SCF=YQC
 ----------------------------------------------

 -------
 Reduced
 -------
 Symbolic Z-matrix:
 Charge = -2 Multiplicity = 1

 SCF Done:  E(UB3LYP) =  -964.358327704     a.u. after    9 cycles
 SCF Done:  E(UB3LYP) =  -964.182688086     A.U. after   33 cycles
 SCF Done:  E(UB3LYP) =  -964.397042464     a.u. after   38 cycles
 SCF Done:  E(UB3LYP) =  -964.425890389     a.u. after   65 cycles
 SCF Done:  E(UB3LYP) =  -964.426117073     A.U. after   24 cycles
 SCF Done:  E(UB3LYP) =  -964.434721110     a.u. after   36 cycles
 SCF Done:  E(UB3LYP) =  -964.434838153     A.U. after   25 cycles
 SCF Done:  E(UB3LYP) =  -964.437676668     a.u. after   36 cycles
 SCF Done:  E(UB3LYP) =  -964.437735781     A.U. after   24 cycles
 SCF Done:  E(UB3LYP) =  -964.437915314     a.u. after   12 cycles
 SCF Done:  E(UB3LYP) =  -964.444707031     a.u. after   34 cycles
 SCF Done:  E(UB3LYP) =  -964.444832519     A.U. after   20 cycles
 SCF Done:  E(UB3LYP) =  -964.444736176     a.u. after   22 cycles
 SCF Done:  E(UB3LYP) =  -964.444835250     A.U. after   24 cycles
 SCF Done:  E(UB3LYP) =  -964.444800923     a.u. after    4 cycles
 SCF Done:  E(UB3LYP) =  -964.444836232     A.U. after   22 cycles
 SCF Done:  E(UB3LYP) =  -964.444826091     a.u. after    1 cycles
 SCF Done:  E(UB3LYP) =  -964.444836333     A.U. after   21 cycles
 Optimization completed.
    -- Stationary point found.
 Normal termination of Gaussian 16 at Wed Dec 27 21:29:53 2023.

 ----------------------------------------------------------------------
 #P Geom=AllCheck Guess=TCheck SCRF=Check GenChk UB3LYP/6-311++G(d,p) F
 req
 ----------------------------------------------------------------------

 Structure from the checkpoint file:  "287-an.chk"
 -------
 Reduced
 -------
 Charge = -2 Multiplicity = 1

                          Input orientation:
 ---------------------------------------------------------------------
 Center     Atomic      Atomic             Coordinates (Angstroms)
 Number     Number       Type             X           Y           Z
 ---------------------------------------------------------------------
      1          6           0       -0.346017    3.799799   -0.149822
      2          6           0       -1.556855    3.193579   -0.421910
      3          6           0       -1.593744    1.838472   -0.834019
      4          6           0        0.878817    3.096063   -0.272548
      5          6           0        0.842615    1.717294   -0.694051
      6          6           0       -0.408084    1.131160   -0.962532
      7          6           0        2.129505    3.735016    0.015188
      8          6           0        3.298152    2.923435   -0.144342
      9          6           0        3.305990    1.591440   -0.542796
     10          6           0        2.067296    0.920625   -0.846236
     11          8           0        2.289520    4.962081    0.402375
     12          8           0        2.030260   -0.297204   -1.219249
     13          1           0       -0.294064    4.836414    0.167528
     14          1           0       -2.482706    3.756119   -0.320387
     15          1           0       -2.545460    1.358601   -1.049297
     16          1           0       -0.402669    0.092623   -1.278045
     17          8           0        4.460724    3.596765    0.149217
     18          6           0        4.595777    0.819052   -0.660699
     19          6           0        5.197309    0.815322   -2.081056
     20          6           0        6.493745    0.001725   -2.185448
     21          6           0        7.121564   -0.008334   -3.585692
     22          6           0        8.423392   -0.815322   -3.679491
     23          1           0        4.090554    4.479856    0.393662
     24          1           0        4.393807   -0.219879   -0.375598
     25          1           0        5.336667    1.231676    0.034091
     26          1           0        5.389383    1.850385   -2.389517
     27          1           0        4.448792    0.408400   -2.769592
     28          1           0        6.293386   -1.032816   -1.874516
     29          1           0        7.227084    0.397624   -1.468371
     30          1           0        7.315586    1.025958   -3.900328
     31          1           0        6.394097   -0.410657   -4.303097
     32          1           0        8.229165   -1.850322   -3.367254
     33          1           0        9.148097   -0.414575   -2.957741
     34          6           0        9.059215   -0.823024   -5.076198
     35          1           0        9.251189    0.211772   -5.390194
     36          1           0        8.338014   -1.228217   -5.798510
     37          6           0       10.363856   -1.625666   -5.161405
     38          1           0       10.173993   -2.661039   -4.848766
     39          1           0       11.086228   -1.221455   -4.439857
     40          6           0       11.001783   -1.633487   -6.556998
     41          6           0       12.303505   -2.437106   -6.636447
     42          1           0       11.193967   -0.599351   -6.870580
     43          1           0       10.281109   -2.037348   -7.279627
     44          1           0       13.064711   -2.036266   -5.957098
     45          1           0       12.730762   -2.422292   -7.644804
     46          1           0       12.143823   -3.487988   -6.368586
 ---------------------------------------------------------------------

 SCF Done:  E(UB3LYP) =  -964.444836333     a.u. after    1 cycles
 SCF Done:  E(UB3LYP) =  -964.444836333     A.U. after    6 cycles

 Alpha  occ. eigenvalues --  -18.92159 -18.84351 -18.83290 -10.02429 -10.02231
 Alpha  occ. eigenvalues --  -10.02083 -10.01567 -10.01414 -10.00580  -9.99410
 Alpha  occ. eigenvalues --   -9.99235  -9.99067  -9.98385  -9.97168  -9.96970
 Alpha  occ. eigenvalues --   -9.96562  -9.96176  -9.96027  -9.95909  -9.95210
 Alpha  occ. eigenvalues --   -9.94903  -9.94001  -0.83612  -0.75208  -0.74545
 Alpha  occ. eigenvalues --   -0.66572  -0.64003  -0.63594  -0.60482  -0.58356
 Alpha  occ. eigenvalues --   -0.55882  -0.53700  -0.52958  -0.49880  -0.46545
 Alpha  occ. eigenvalues --   -0.44500  -0.43634  -0.42629  -0.40579  -0.39542
 Alpha  occ. eigenvalues --   -0.37236  -0.34870  -0.33999  -0.31909  -0.31173
 Alpha  occ. eigenvalues --   -0.29017  -0.28644  -0.28143  -0.27211  -0.26162
 Alpha  occ. eigenvalues --   -0.25036  -0.24563  -0.24147  -0.23716  -0.22641
 Alpha  occ. eigenvalues --   -0.21479  -0.21395  -0.20875  -0.20049  -0.19095
 Alpha  occ. eigenvalues --   -0.19046  -0.18744  -0.18245  -0.17994  -0.17538
 Alpha  occ. eigenvalues --   -0.17190  -0.16436  -0.16029  -0.15732  -0.14997
 Alpha  occ. eigenvalues --   -0.14888  -0.13526  -0.12531  -0.12005  -0.11219
 Alpha  occ. eigenvalues --   -0.10833  -0.04141  -0.03365  -0.02445  -0.00484
 Alpha  occ. eigenvalues --   -0.00231   0.09241
 Alpha virt. eigenvalues --    0.09968   0.12441   0.12748   0.12844   0.14004
 Alpha virt. eigenvalues --    0.14629   0.15308   0.15465   0.15698   0.15832
 Alpha virt. eigenvalues --    0.16891   0.17614   0.18139   0.18156   0.18474

  Beta  occ. eigenvalues --  -18.92159 -18.84351 -18.83290 -10.02429 -10.02231
  Beta  occ. eigenvalues --  -10.02083 -10.01567 -10.01414 -10.00580  -9.99410
  Beta  occ. eigenvalues --   -9.99235  -9.99067  -9.98385  -9.97168  -9.96970
  Beta  occ. eigenvalues --   -9.96562  -9.96176  -9.96027  -9.95909  -9.95210
  Beta  occ. eigenvalues --   -9.94903  -9.94001  -0.83612  -0.75208  -0.74545
  Beta  occ. eigenvalues --   -0.66572  -0.64003  -0.63594  -0.60482  -0.58356
  Beta  occ. eigenvalues --   -0.55882  -0.53700  -0.52958  -0.49880  -0.46545
  Beta  occ. eigenvalues --   -0.44500  -0.43634  -0.42629  -0.40579  -0.39542
  Beta  occ. eigenvalues --   -0.37236  -0.34870  -0.33999  -0.31909  -0.31173
  Beta  occ. eigenvalues --   -0.29017  -0.28644  -0.28143  -0.27211  -0.26162
  Beta  occ. eigenvalues --   -0.25036  -0.24563  -0.24147  -0.23716  -0.22641
  Beta  occ. eigenvalues --   -0.21479  -0.21395  -0.20875  -0.20049  -0.19095
  Beta  occ. eigenvalues --   -0.19046  -0.18744  -0.18245  -0.17994  -0.17538
  Beta  occ. eigenvalues --   -0.17190  -0.16436  -0.16029  -0.15732  -0.14997
  Beta  occ. eigenvalues --   -0.14888  -0.13526  -0.12531  -0.12005  -0.11219
  Beta  occ. eigenvalues --   -0.10833  -0.04141  -0.03365  -0.02445  -0.00484
  Beta  occ. eigenvalues --   -0.00231   0.09241
  Beta virt. eigenvalues --    0.09968   0.12441   0.12748   0.12844   0.14004
  Beta virt. eigenvalues --    0.14629   0.15308   0.15465   0.15698   0.15832
  Beta virt. eigenvalues --    0.16891   0.17614   0.18139   0.18156   0.18474

 Mulliken charges and spin densities:
               1          2
     1  C   -0.070200  -0.000000
     2  C   -0.288534   0.000000
     3  C   -0.403366  -0.000000
     4  C    0.713397  -0.000000
     5  C    0.000748   0.000000
     6  C    0.037324   0.000000
     7  C   -1.330166  -0.000000
     8  C   -0.679437   0.000000
     9  C    2.337248  -0.000000
    10  C   -0.952803  -0.000000
    11  O   -0.536930  -0.000000
    12  O   -0.435867  -0.000000
    13  H    0.138816   0.000000
    14  H    0.092620   0.000000
    15  H    0.089949  -0.000000
    16  H    0.144433  -0.000000
    17  O   -0.281944  -0.000000
    18  C   -0.449725   0.000000
    19  C   -0.803791  -0.000000
    20  C   -0.195197  -0.000000
    21  C    0.125049   0.000000
    22  C    0.144015  -0.000000
    23  H    0.254939   0.000000
    24  H    0.191405   0.000000
    25  H    0.204660  -0.000000
    26  H    0.133542  -0.000000
    27  H    0.183071  -0.000000
    28  H    0.104004  -0.000000
    29  H    0.093584  -0.000000
    30  H    0.113785  -0.000000
    31  H    0.115232  -0.000000
    32  H    0.087691   0.000000
    33  H    0.075561   0.000000
    34  C   -0.386486   0.000000
    35  H    0.098250   0.000000
    36  H    0.094502   0.000000
    37  C    0.845471  -0.000000
    38  H    0.130769   0.000000
    39  H    0.118197  -0.000000
    40  C   -2.271437   0.000000
    41  C    2.241018  -0.000000
    42  H   -0.001297   0.000000
    43  H    0.008402   0.000000
    44  H   -0.376242   0.000000
    45  H   -1.079348   0.000000
    46  H   -0.374911   0.000000
 Sum of Mulliken charges =  -2.00000   0.00000

 Dipole moment (field-independent basis, Debye):
    X=            -47.3285    Y=             -9.2499    Z=             22.1834  Tot=             53.0815
 Quadrupole moment (field-independent basis, Debye-Ang):
   XX=           -647.6080   YY=           -246.9507   ZZ=           -303.2812
   XY=             59.3501   XZ=            253.4547   YZ=            -53.6391

  Exact polarizability:3266.051********1298.149******** 619.3661655.716
 Approx polarizability:************************************************

                      1                      2                      3
                      A                      A                      A
 Frequencies --     11.6472                23.6168                26.3905
 Red. masses --      5.4733                 5.0906                 1.8038
 Frc consts  --      0.0004                 0.0017                 0.0007
 IR Inten    --      0.6717                 1.5087                 2.5047

                      4                      5                      6
                      A                      A                      A
 Frequencies --     38.9431                56.9361                76.1896
 Red. masses --      2.8698                 4.6059                 2.1331
 Frc consts  --      0.0026                 0.0088                 0.0073
 IR Inten    --      6.1491                 9.4438                 0.5196

                      7                      8                      9
                      A                      A                      A
 Frequencies --     94.1578                97.4897               118.1279
 Red. masses --      5.7381                 2.0800                 4.8710
 Frc consts  --      0.0300                 0.0116                 0.0400
 IR Inten    --      0.9188                 0.3779                 0.3498

                     10                     11                     12
                      A                      A                      A
 Frequencies --    124.8781               142.9289               151.6746
 Red. masses --      1.9153                 4.1024                 2.0615
 Frc consts  --      0.0176                 0.0494                 0.0279
 IR Inten    --      0.3817                 1.5406                 1.1378

                     13                     14                     15
                      A                      A                      A
 Frequencies --    156.5420               162.6417               180.5917
 Red. masses --      5.6663                 1.9573                 7.3574
 Frc consts  --      0.0818                 0.0305                 0.1414
 IR Inten    --      0.7485                 0.3865                 2.6414

                     16                     17                     18
                      A                      A                      A
 Frequencies --    223.7018               251.2152               260.1829
 Red. masses --      4.0273                 4.4996                 1.1151
 Frc consts  --      0.1187                 0.1673                 0.0445
 IR Inten    --      1.1034                 3.0580                 4.6530

                     19                     20                     21
                      A                      A                      A
 Frequencies --    289.4779               294.9509               321.3852
 Red. masses --      3.9977                 2.8433                 4.7150
 Frc consts  --      0.1974                 0.1457                 0.2869
 IR Inten    --      0.6955                 3.9473                 1.8543

                     22                     23                     24
                      A                      A                      A
 Frequencies --    352.7043               366.0784               370.8929
 Red. masses --      5.9176                 4.0012                 8.7421
 Frc consts  --      0.4337                 0.3159                 0.7085
 IR Inten    --     19.5708                 0.6580                 3.2780

                     25                     26                     27
                      A                      A                      A
 Frequencies --    406.4611               431.8892               449.1480
 Red. masses --      5.3199                 9.0140                 3.9923
 Frc consts  --      0.5178                 0.9906                 0.4745
 IR Inten    --     24.2942               215.4709               164.3440

                     28                     29                     30
                      A                      A                      A
 Frequencies --    453.0323               480.8022               491.3511
 Red. masses --      3.8490                 3.1409                 5.0364
 Frc consts  --      0.4654                 0.4278                 0.7164
 IR Inten    --    113.7806                 1.6583               416.1952

                     31                     32                     33
                      A                      A                      A
 Frequencies --    528.1212               561.9716               642.0541
 Red. masses --      5.7986                 5.6920                 6.1591
 Frc consts  --      0.9529                 1.0591                 1.4959
 IR Inten    --    174.2497                 9.2429                 3.3988

                     34                     35                     36
                      A                      A                      A
 Frequencies --    671.6191               695.5520               697.0900
 Red. masses --      5.5367                 2.7389                 2.5554
 Frc consts  --      1.4714                 0.7807                 0.7316
 IR Inten    --      5.4176                30.8494                30.8739

                     37                     38                     39
                      A                      A                      A
 Frequencies --    705.0271               724.3082               729.2379
 Red. masses --      4.2403                 1.0635                 1.0966
 Frc consts  --      1.2418                 0.3287                 0.3436
 IR Inten    --     10.6422                17.5888                 7.5440

                     40                     41                     42
                      A                      A                      A
 Frequencies --    739.2859               743.1894               766.6360
 Red. masses --      1.2133                 2.6158                 1.3395
 Frc consts  --      0.3907                 0.8512                 0.4638
 IR Inten    --      4.8219                33.2890                 4.6947

                     43                     44                     45
                      A                      A                      A
 Frequencies --    771.7763               774.1472               813.3602
 Red. masses --      1.6352                 1.8208                 1.3833
 Frc consts  --      0.5739                 0.6429                 0.5392
 IR Inten    --     35.0300                18.6699                13.6569

                     46                     47                     48
                      A                      A                      A
 Frequencies --    815.4132               866.1306               888.5340
 Red. masses --      1.4773                 1.8372                 1.9601
 Frc consts  --      0.5787                 0.8121                 0.9118
 IR Inten    --      0.5529                12.2400                13.8665

                     49                     50                     51
                      A                      A                      A
 Frequencies --    909.6093               939.8948               946.8170
 Red. masses --      1.6962                 6.0601                 1.2593
 Frc consts  --      0.8269                 3.1542                 0.6651
 IR Inten    --     36.8949               108.6989                 0.9782

                     52                     53                     54
                      A                      A                      A
 Frequencies --    960.6067               968.4362               985.3003
 Red. masses --      1.3208                 1.3840                 4.5115
 Frc consts  --      0.7181                 0.7648                 2.5805
 IR Inten    --      1.5814                 8.1033                41.7475

                     55                     56                     57
                      A                      A                      A
 Frequencies --    992.7924              1017.2399              1023.6163
 Red. masses --      4.0947                 3.2679                 2.0086
 Frc consts  --      2.3779                 1.9923                 1.2400
 IR Inten    --      1.9942                52.5921               331.7242

                     58                     59                     60
                      A                      A                      A
 Frequencies --   1028.8048              1047.5036              1055.7503
 Red. masses --      1.4905                 2.7070                 2.1093
 Frc consts  --      0.9295                 1.7500                 1.3852
 IR Inten    --      4.3228                16.8425               108.0838

                     61                     62                     63
                      A                      A                      A
 Frequencies --   1058.0644              1060.7685              1068.9672
 Red. masses --      2.4922                 2.2181                 2.6729
 Frc consts  --      1.6438                 1.4705                 1.7995
 IR Inten    --     32.4196                12.1879                27.7340

                     64                     65                     66
                      A                      A                      A
 Frequencies --   1098.6330              1128.6914              1133.1071
 Red. masses --      2.0618                 2.0083                 2.6877
 Frc consts  --      1.4662                 1.5074                 2.0332
 IR Inten    --     60.6864                53.2458                 8.4429

                     67                     68                     69
                      A                      A                      A
 Frequencies --   1136.9749              1185.4505              1192.2838
 Red. masses --      1.3200                 3.4614                 2.0045
 Frc consts  --      1.0054                 2.8660                 1.6789
 IR Inten    --    156.0375               350.0761               222.1456

                     70                     71                     72
                      A                      A                      A
 Frequencies --   1205.5552              1224.8293              1238.1864
 Red. masses --      1.7844                 1.2625                 2.0769
 Frc consts  --      1.5280                 1.1159                 1.8760
 IR Inten    --     42.7169                 4.7824                66.9782

                     73                     74                     75
                      A                      A                      A
 Frequencies --   1248.8338              1266.6374              1279.6457
 Red. masses --      1.7568                 1.3078                 1.7371
 Frc consts  --      1.6143                 1.2362                 1.6760
 IR Inten    --     80.4546                 1.8335                16.7292

                     76                     77                     78
                      A                      A                      A
 Frequencies --   1289.2709              1308.0142              1314.3250
 Red. masses --      1.6348                 1.3620                 1.2431
 Frc consts  --      1.6011                 1.3729                 1.2652
 IR Inten    --     64.9292                 5.8819                91.4464

                     79                     80                     81
                      A                      A                      A
 Frequencies --   1318.3859              1326.9707              1331.5877
 Red. masses --      1.0239                 1.0785                 1.1522
 Frc consts  --      1.0486                 1.1189                 1.2037
 IR Inten    --     25.8554               126.2587                75.2431

                     82                     83                     84
                      A                      A                      A
 Frequencies --   1334.0254              1339.6341              1343.1800
 Red. masses --      1.1411                 3.1950                 1.7423
 Frc consts  --      1.1965                 3.3783                 1.8520
 IR Inten    --    223.3482               492.1583               491.2955

                     85                     86                     87
                      A                      A                      A
 Frequencies --   1358.4747              1368.2930              1379.1609
 Red. masses --      1.7048                 1.6127                 1.5275
 Frc consts  --      1.8536                 1.7790                 1.7118
 IR Inten    --    615.5332               137.7887                21.2583

                     88                     89                     90
                      A                      A                      A
 Frequencies --   1389.4404              1390.8051              1402.7002
 Red. masses --      1.5901                 1.5664                 1.2677
 Frc consts  --      1.8087                 1.7852                 1.4696
 IR Inten    --     38.0128               222.0138               531.5090

                     91                     92                     93
                      A                      A                      A
 Frequencies --   1426.2753              1441.2135              1447.9078
 Red. masses --      3.5743                 2.3364                 2.7480
 Frc consts  --      4.2840                 2.8593                 3.3943
 IR Inten    --   3301.0742              1371.7833                83.2591

                     94                     95                     96
                      A                      A                      A
 Frequencies --   1470.2332              1479.7271              1480.8464
 Red. masses --      1.5468                 1.0669                 1.0907
 Frc consts  --      1.9700                 1.3764                 1.4092
 IR Inten    --    905.8574                20.7441                68.0977

                     97                     98                     99
                      A                      A                      A
 Frequencies --   1483.6288              1484.6198              1485.8251
 Red. masses --      1.0728                 1.0907                 1.0402
 Frc consts  --      1.3913                 1.4164                 1.3531
 IR Inten    --     33.5356                10.5791               453.4240

                    100                    101                    102
                      A                      A                      A
 Frequencies --   1491.3311              1493.0994              1498.0772
 Red. masses --      1.1244                 3.0711                 1.0899
 Frc consts  --      1.4734                 4.0338                 1.4411
 IR Inten    --    165.9954               931.3362               101.4813

                    103                    104                    105
                      A                      A                      A
 Frequencies --   1505.4925              1511.8373              1515.0516
 Red. masses --      1.0983                 1.1002                 4.5090
 Frc consts  --      1.4667                 1.4816                 6.0980
 IR Inten    --     75.8912                10.0725              1327.4146

                    106                    107                    108
                      A                      A                      A
 Frequencies --   1548.7609              1595.2618              1609.1096
 Red. masses --      4.2377                 5.0858                 5.0975
 Frc consts  --      5.9889                 7.6257                 7.7765
 IR Inten    --   1970.9392                36.0269              4141.7169

                    109                    110                    111
                      A                      A                      A
 Frequencies --   2976.4964              2983.3592              2985.2004
 Red. masses --      1.0586                 1.0564                 1.0573
 Frc consts  --      5.5255                 5.5397                 5.5513
 IR Inten    --      8.9873                 3.3181                 4.9954

                    112                    113                    114
                      A                      A                      A
 Frequencies --   2986.8508              2990.7114              2992.6088
 Red. masses --      1.0495                 1.0473                 1.0632
 Frc consts  --      5.5163                 5.5190                 5.6098
 IR Inten    --     10.4895                13.4153                 7.5962

                    115                    116                    117
                      A                      A                      A
 Frequencies --   2996.3133              2998.4117              2999.7581
 Red. masses --      1.0894                 1.0653                 1.0810
 Frc consts  --      5.7625                 5.6430                 5.7312
 IR Inten    --      2.1937               108.9713                22.3496

                    118                    119                    120
                      A                      A                      A
 Frequencies --   3000.2298              3005.5323              3011.0727
 Red. masses --      1.0703                 1.0984                 1.0696
 Frc consts  --      5.6763                 5.8460                 5.7139
 IR Inten    --     30.9018                10.5045                84.4950

                    121                    122                    123
                      A                      A                      A
 Frequencies --   3016.8410              3029.1884              3035.8264
 Red. masses --      1.0998                 1.1033                 1.1007
 Frc consts  --      5.8978                 5.9649                 5.9770
 IR Inten    --     17.9139                 3.2684                 7.0256

                    124                    125                    126
                      A                      A                      A
 Frequencies --   3041.9238              3052.2164              3052.4869
 Red. masses --      1.1052                 1.1023                 1.1006
 Frc consts  --      6.0255                 6.0501                 6.0421
 IR Inten    --     43.2886                 6.4225                58.0077

                    127                    128                    129
                      A                      A                      A
 Frequencies --   3060.8552              3106.2741              3129.3517
 Red. masses --      1.1055                 1.0833                 1.0902
 Frc consts  --      6.1022                 6.1586                 6.2903
 IR Inten    --     57.1129                67.6147               299.5231

                    130                    131                    132
                      A                      A                      A
 Frequencies --   3162.6952              3165.4072              3383.3149
 Red. masses --      1.0907                 1.0921                 1.0636
 Frc consts  --      6.4278                 6.4472                 7.1731
 IR Inten    --     33.8364               298.0402                48.5680

 - Thermochemistry -
 -------------------
 Temperature   298.150 Kelvin.  Pressure   1.00000 Atm.
 Atom     1 has atomic number  6 and mass  12.00000

 Molecular mass:   300.17254 amu.
 Principal axes and moments of inertia in atomic units:
                           1         2         3
     Eigenvalues --  2492.97291********************
           X            0.82563   0.53443   0.18087
           Y           -0.36321   0.74876  -0.55447
           Z           -0.43175   0.39209   0.81231
 This molecule is an asymmetric top.
 Rotational symmetry number  1.
 Warning -- assumption of classical behavior for rotation
           may cause significant error
 Rotational temperatures (Kelvin)      0.03474     0.00340     0.00321
 Rotational constants (GHZ):           0.72393     0.07079     0.06686
 Zero-point vibrational energy    1015438.0 (Joules/Mol)
                                  242.69551 (Kcal/Mol)
 Warning -- explicit consideration of  32 degrees of freedom as
           vibrations may cause significant error
 Vibrational temperatures:     16.76    33.98    37.97    56.03    81.92
          (Kelvin)            109.62   135.47   140.27   169.96   179.67
                              205.64   218.23   225.23   234.01   259.83
                              321.86   361.44   374.35   416.49   424.37
                              462.40   507.46   526.71   533.63   584.81
                              621.39   646.22   651.81   691.77   706.94
                              759.85   808.55   923.77   966.31  1000.74
                             1002.96  1014.38  1042.12  1049.21  1063.67
                             1069.28  1103.02  1110.41  1113.83  1170.24
                             1173.20  1246.17  1278.40  1308.72  1352.30
                             1362.26  1382.10  1393.36  1417.63  1428.41
                             1463.58  1472.76  1480.22  1507.12  1518.99
                             1522.32  1526.21  1538.01  1580.69  1623.94
                             1630.29  1635.85  1705.60  1715.43  1734.53
                             1762.26  1781.47  1796.79  1822.41  1841.12
                             1854.97  1881.94  1891.02  1896.86  1909.21
                             1915.86  1919.36  1927.43  1932.54  1954.54
                             1968.67  1984.30  1999.09  2001.06  2018.17
                             2052.09  2073.58  2083.22  2115.34  2129.00
                             2130.61  2134.61  2136.04  2137.77  2145.69
                             2148.24  2155.40  2166.07  2175.20  2179.82
                             2228.32  2295.23  2315.15  4282.51  4292.39
                             4295.04  4297.41  4302.97  4305.70  4311.03
                             4314.05  4315.98  4316.66  4324.29  4332.26
                             4340.56  4358.33  4367.88  4376.65  4391.46
                             4391.85  4403.89  4469.24  4502.44  4550.41
                             4554.31  4867.84

 Zero-point correction=                           0.386760 (Hartree/Particle)
 Thermal correction to Energy=                    0.409027
 Thermal correction to Enthalpy=                  0.409971
 Thermal correction to Gibbs Free Energy=         0.331973
 Sum of electronic and zero-point Energies=           -964.058076
 Sum of electronic and thermal Energies=              -964.035810
 Sum of electronic and thermal Enthalpies=            -964.034866
 Sum of electronic and thermal Free Energies=         -964.112863

                     E (Thermal)             CV                S
                      KCal/Mol        Cal/Mol-Kelvin    Cal/Mol-Kelvin
 Total                  256.668             83.729            164.159
 Electronic               0.000              0.000              0.000
 Translational            0.889              2.981             42.994
 Rotational               0.889              2.981             35.793
 Vibrational            254.891             77.767             85.371
 Vibration     1          0.593              1.987              7.708
 Vibration     2          0.593              1.985              6.304
 Vibration     3          0.593              1.985              6.084
 Vibration     4          0.594              1.981              5.312
 Vibration     5          0.596              1.975              4.561
 Vibration     6          0.599              1.965              3.987
 Vibration     7          0.603              1.953              3.572
 Vibration     8          0.603              1.951              3.504
 Vibration     9          0.608              1.934              3.131
 Vibration    10          0.610              1.928              3.023
 Vibration    11          0.616              1.910              2.764
 Vibration    12          0.619              1.901              2.651
 Vibration    13          0.620              1.895              2.591
 Vibration    14          0.623              1.888              2.519
 Vibration    15          0.630              1.866              2.322
 Vibration    16          0.649              1.805              1.929
 Vibration    17          0.663              1.761              1.722
 Vibration    18          0.668              1.746              1.661
 Vibration    19          0.686              1.693              1.477
 Vibration    20          0.689              1.683              1.445
 Vibration    21          0.707              1.633              1.303
 Vibration    22          0.729              1.570              1.154
 Vibration    23          0.739              1.542              1.096
 Vibration    24          0.743              1.532              1.076
 Vibration    25          0.771              1.456              0.939
 Vibration    26          0.793              1.401              0.853
 Vibration    27          0.808              1.363              0.798
 Vibration    28          0.812              1.354              0.787
 Vibration    29          0.837              1.293              0.708
 Vibration    30          0.847              1.269              0.680
 Vibration    31          0.883              1.188              0.591
 Vibration    32          0.918              1.114              0.520

 Optimization completed.
    -- Stationary point found.
 Normal termination of Gaussian 16 at Wed Dec 27 23:05:14 2023.
