 Q-Chem 5.4, Q-Chem, Inc., Pleasanton, CA (2021)
 Q-Chem 5.4.0 for Intel X86 EM64T Linux

User input:
--------------------------------------------------------------
$molecule
0 1
C                 -0.5325920000      2.9616560000      0.7127610000
C                 -1.6667400000      2.6000720000     -0.0075270000
C                 -1.6377870000      1.4779850000     -0.8375920000
C                  0.6309070000      2.1962570000      0.6026220000
C                  0.6630300000      1.0678920000     -0.2317270000
C                 -0.4768590000      0.7155810000     -0.9524090000
C                  1.8352030000      2.5590860000      1.3690810000
C                  3.0356520000      1.6835730000      1.2619470000
C                  3.0690720000      0.5592330000      0.4940280000
C                  1.9133780000      0.2460090000     -0.3881690000
O                  1.9064260000      3.5272650000      2.1192620000
O                  1.9633340000     -0.6351950000     -1.2258810000
O                  4.0708070000      2.0866360000      2.0062080000
H                 -0.5296330000      3.8287730000      1.3617280000
H                 -2.5715470000      3.1909010000      0.0755880000
H                 -2.5217830000      1.1986100000     -1.3995120000
H                 -0.4351610000     -0.1531140000     -1.5974840000
H                  3.7696360000      2.8922740000      2.4697720000
S                  4.5644820000     -0.3877740000      0.4018320000
C                  3.9753550000     -2.0860150000      0.4612500000
C                  4.3295140000     -2.9662330000     -0.5606790000
C                  3.2571810000     -2.5586540000      1.5608840000
C                  3.9650010000     -4.3073290000     -0.4787440000
C                  2.8784140000     -3.8968920000      1.6194580000
C                  3.2309910000     -4.7961410000      0.6069910000
C                  2.8547100000     -6.2549230000      0.6971050000
H                  4.8683880000     -2.5985070000     -1.4252990000
H                  2.9967010000     -1.8847630000      2.3687770000
H                  4.2421420000     -4.9805910000     -1.2836980000
H                  2.3099730000     -4.2492810000      2.4744330000
H                  1.9341880000     -6.3949850000      1.2683820000
H                  3.6410170000     -6.8324780000      1.1957380000
H                  2.7088630000     -6.6904680000     -0.2941270000
$end
$rem
MAX_SCF_CYCLES=200
BASIS  =  6-311++G(d,p)
GUI  =  2
JOB_TYPE  =  SP
METHOD  =  B3LYP
SOLVENT_METHOD = PCM
$end
$pcm
theory = CPCM
$end
$solvent
dielectric 37.219
opticaldielectric 1.43
$end

--------------------------------------------------------------

             Standard Nuclear Orientation (Angstroms)
    I     Atom           X                Y                Z
 ----------------------------------------------------------------
    1      C      -0.5325920000     2.9616560000     0.7127610000
    2      C      -1.6667400000     2.6000720000    -0.0075270000
    3      C      -1.6377870000     1.4779850000    -0.8375920000
    4      C       0.6309070000     2.1962570000     0.6026220000
    5      C       0.6630300000     1.0678920000    -0.2317270000
    6      C      -0.4768590000     0.7155810000    -0.9524090000
    7      C       1.8352030000     2.5590860000     1.3690810000
    8      C       3.0356520000     1.6835730000     1.2619470000
    9      C       3.0690720000     0.5592330000     0.4940280000
   10      C       1.9133780000     0.2460090000    -0.3881690000
   11      O       1.9064260000     3.5272650000     2.1192620000
   12      O       1.9633340000    -0.6351950000    -1.2258810000
   13      O       4.0708070000     2.0866360000     2.0062080000
   14      H      -0.5296330000     3.8287730000     1.3617280000
   15      H      -2.5715470000     3.1909010000     0.0755880000
   16      H      -2.5217830000     1.1986100000    -1.3995120000
   17      H      -0.4351610000    -0.1531140000    -1.5974840000
   18      H       3.7696360000     2.8922740000     2.4697720000
   19      S       4.5644820000    -0.3877740000     0.4018320000
   20      C       3.9753550000    -2.0860150000     0.4612500000
   21      C       4.3295140000    -2.9662330000    -0.5606790000
   22      C       3.2571810000    -2.5586540000     1.5608840000
   23      C       3.9650010000    -4.3073290000    -0.4787440000
   24      C       2.8784140000    -3.8968920000     1.6194580000
   25      C       3.2309910000    -4.7961410000     0.6069910000
   26      C       2.8547100000    -6.2549230000     0.6971050000
   27      H       4.8683880000    -2.5985070000    -1.4252990000
   28      H       2.9967010000    -1.8847630000     2.3687770000
   29      H       4.2421420000    -4.9805910000    -1.2836980000
   30      H       2.3099730000    -4.2492810000     2.4744330000
   31      H       1.9341880000    -6.3949850000     1.2683820000
   32      H       3.6410170000    -6.8324780000     1.1957380000
   33      H       2.7088630000    -6.6904680000    -0.2941270000
 ----------------------------------------------------------------

    8   -1279.1791097865      7.84e-06  Convergence criterion met
 Total energy in the final basis set =    -1279.1791097865

                    Orbital Energies (a.u.)
 --------------------------------------------------------------

 Alpha MOs
 -- Occupied --
-88.8715 -19.1847 -19.1517 -19.1346 -10.2969 -10.2906 -10.2777 -10.2326
-10.2131 -10.2131 -10.2125 -10.2020 -10.2000 -10.1988 -10.1982 -10.1911
-10.1849 -10.1842 -10.1792 -10.1787 -10.1654  -7.9573  -5.9213  -5.9172
 -5.9115  -1.1152  -1.0716  -1.0708  -0.8954  -0.8775  -0.8508  -0.8078
 -0.7827  -0.7795  -0.7570  -0.7396  -0.7003  -0.6769  -0.6574  -0.6319
 -0.6189  -0.6087  -0.5851  -0.5772  -0.5492  -0.5239  -0.5054  -0.4979
 -0.4815  -0.4758  -0.4741  -0.4710  -0.4602  -0.4540  -0.4499  -0.4322
 -0.4301  -0.4295  -0.4218  -0.4150  -0.4102  -0.3904  -0.3887  -0.3816
 -0.3773  -0.3728  -0.3634  -0.3501  -0.3438  -0.3087  -0.3032  -0.2903
 -0.2862  -0.2815  -0.2666  -0.2599  -0.2310

          Ground-State Mulliken Net Atomic Charges

     Atom                 Charge (a.u.)
  ----------------------------------------
      1 C                    -0.045920
      2 C                    -0.496995
      3 C                    -0.446401
      4 C                     0.638732
      5 C                     0.361700
      6 C                     0.082636
      7 C                    -0.576850
      8 C                    -0.648756
      9 C                     1.343794
     10 C                    -0.790286
     11 O                    -0.314154
     12 O                    -0.233864
     13 O                    -0.182246
     14 H                     0.214557
     15 H                     0.227712
     16 H                     0.226674
     17 H                     0.220121
     18 H                     0.318061
     19 S                    -0.203517
     20 C                     0.879800
     21 C                    -0.413140
     22 C                    -0.405596
     23 C                    -0.422967
     24 C                    -0.523118
     25 C                     0.456647
     26 C                    -0.671932
     27 H                     0.228616
     28 H                     0.235407
     29 H                     0.214282
     30 H                     0.218080
     31 H                     0.163523
     32 H                     0.183574
     33 H                     0.161825
  ----------------------------------------
  Sum of atomic charges =     0.000000

                    Cartesian Multipole Moments
 -----------------------------------------------------------------
    Charge (ESU x 10^10)
                -0.0000
    Dipole Moment (Debye)
         X      -5.0679      Y      -0.5305      Z       0.5220
       Tot       5.1222
    Quadrupole Moments (Debye-Ang)
        XX    -139.1086     XY      -9.8089     YY    -110.8475
        XZ       0.1478     YZ      -4.2569     ZZ    -128.7868

 Total job time:  80.65s(wall), 556.13s(cpu)
        *  Thank you very much for using Q-Chem.  Have a nice day.  *
