 Gaussian 16, Revision A.03,
 Gaussian 16:  ES64L-G16RevA.03 25-Dec-2016

 ----------------------------------------------
 #P UB3LYP/6-311++G(d,p) nosym opt freq SCF=YQC
 ----------------------------------------------

 -------
 Reduced
 -------
 Symbolic Z-matrix:
 Charge = -4 Multiplicity = 1

 SCF Done:  E(UB3LYP) =  -1935.12167233     a.u. after    9 cycles
 SCF Done:  E(UB3LYP) =  -1935.16437199     A.U. after   33 cycles
 SCF Done:  E(UB3LYP) =  -1935.16438641     a.u. after    2 cycles
 SCF Done:  E(UB3LYP) =  -1935.21782855     a.u. after  137 cycles
 SCF Done:  E(UB3LYP) =  -1935.21801853     A.U. after   27 cycles
 SCF Done:  E(UB3LYP) =  -1935.24369935     a.u. after   56 cycles
 SCF Done:  E(UB3LYP) =  -1935.24383454     A.U. after   26 cycles
 SCF Done:  E(UB3LYP) =  -1935.24577391     a.u. after   36 cycles
 SCF Done:  E(UB3LYP) =  -1935.24589541     A.U. after   26 cycles
 SCF Done:  E(UB3LYP) =  -1935.24634595     a.u. after   18 cycles
 SCF Done:  E(UB3LYP) =  -1935.24687845     a.u. after    5 cycles
 SCF Done:  E(UB3LYP) =  -1935.24693789     A.U. after   28 cycles
 SCF Done:  E(UB3LYP) =  -1935.24684229     a.u. after   10 cycles
 SCF Done:  E(UB3LYP) =  -1935.24693733     A.U. after   29 cycles
 SCF Done:  E(UB3LYP) =  -1935.24685114     a.u. after   10 cycles
 SCF Done:  E(UB3LYP) =  -1935.24693821     A.U. after   28 cycles
 SCF Done:  E(UB3LYP) =  -1935.24690940     a.u. after    1 cycles
 SCF Done:  E(UB3LYP) =  -1935.24693832     A.U. after   28 cycles
 Optimization completed.
    -- Stationary point found.
 Normal termination of Gaussian 16 at Tue Jan  9 22:56:58 2024.

 ----------------------------------------------------------------------
 #P Geom=AllCheck Guess=TCheck SCRF=Check GenChk UB3LYP/6-311++G(d,p) F
 req
 ----------------------------------------------------------------------

 Structure from the checkpoint file:  "224-an.chk"
 -------
 Reduced
 -------
 Charge = -4 Multiplicity = 1

                          Input orientation:
 ---------------------------------------------------------------------
 Center     Atomic      Atomic             Coordinates (Angstroms)
 Number     Number       Type             X           Y           Z
 ---------------------------------------------------------------------
      1          6           0        5.586465   -4.796938    0.798303
      2          6           0        6.636003   -4.662127   -0.087351
      3          6           0        6.596900   -3.626675   -1.039276
      4          6           0        4.478853   -3.927777    0.762077
      5          6           0        4.403109   -2.904430   -0.239503
      6          6           0        5.518456   -2.757280   -1.135894
      7          6           0        3.435390   -4.172282    1.803193
      8          6           0        2.274482   -3.269158    1.833926
      9          6           0        2.161982   -2.297307    0.785628
     10          6           0        3.179401   -2.089253   -0.288669
     11          6           0        1.238038   -3.305817    2.830704
     12          6           0        0.151352   -2.447992    2.723836
     13          6           0        0.024161   -1.535995    1.659908
     14          6           0        1.025563   -1.468553    0.712927
     15          8           0        3.567236   -5.121922    2.592770
     16          8           0        2.963452   -1.257327   -1.185272
     17         16           0        1.145148   -4.389009    4.367571
     18          8           0       -0.069853   -3.866981    5.088228
     19          8           0        2.380540   -4.145249    5.158410
     20          8           0        0.931796   -5.790909    3.915951
     21         16           0        5.760793   -1.465106   -2.483337
     22          8           0        7.164269   -1.723246   -2.964725
     23          8           0        4.771417   -1.747648   -3.558539
     24          8           0        5.654227   -0.128073   -1.841438
     25          1           0        5.577757   -5.566014    1.560598
     26          1           0        7.489123   -5.345119   -0.053758
     27          1           0        7.421096   -3.482866   -1.724524
     28          1           0       -0.605716   -2.497722    3.494518
     29          1           0       -0.856356   -0.891436    1.591518
     30          1           0        0.983214   -0.770859   -0.114160
 ---------------------------------------------------------------------

 SCF Done:  E(UB3LYP) =  -1935.24693832     a.u. after    1 cycles
 SCF Done:  E(UB3LYP) =  -1935.24693832     A.U. after    5 cycles

 Alpha  occ. eigenvalues --  -88.65150 -88.65149 -18.69528 -18.69527 -18.69255
 Alpha  occ. eigenvalues --  -18.69254 -18.69237 -18.69237 -18.69234 -18.69234
 Alpha  occ. eigenvalues --   -9.85505  -9.85504  -9.82743  -9.82742  -9.81340
 Alpha  occ. eigenvalues --   -9.81338  -9.80826  -9.80825  -9.80594  -9.80594
 Alpha  occ. eigenvalues --   -9.80321  -9.80321  -9.80242  -9.80241  -7.70947
 Alpha  occ. eigenvalues --   -7.70946  -5.67216  -5.67216  -5.67193  -5.67193
 Alpha  occ. eigenvalues --   -5.67159  -5.67159  -0.70682  -0.70681  -0.62765
 Alpha  occ. eigenvalues --   -0.62515  -0.57346  -0.57346  -0.56699  -0.56698
 Alpha  occ. eigenvalues --   -0.48962  -0.48236  -0.41176  -0.38445  -0.38425
 Alpha  occ. eigenvalues --   -0.36983  -0.29186  -0.27571  -0.24602  -0.24471
 Alpha  occ. eigenvalues --   -0.22081  -0.18026  -0.16494  -0.15527  -0.14299
 Alpha  occ. eigenvalues --   -0.10438  -0.09634  -0.09520  -0.08717  -0.07992
 Alpha  occ. eigenvalues --   -0.07694  -0.05403  -0.05331  -0.05229  -0.05086
 Alpha  occ. eigenvalues --   -0.04074  -0.04042  -0.03041  -0.02762  -0.00618
 Alpha  occ. eigenvalues --    0.00188   0.00271   0.00645   0.01587   0.02483
 Alpha  occ. eigenvalues --    0.03497   0.06314   0.06353   0.06930   0.07020
 Alpha  occ. eigenvalues --    0.08593   0.09261   0.09619   0.09875   0.10782
 Alpha  occ. eigenvalues --    0.10878   0.11584   0.12146   0.12672   0.12787
 Alpha  occ. eigenvalues --    0.14376   0.14600   0.14676   0.14834   0.26074
 Alpha virt. eigenvalues --    0.27207   0.27615   0.31586   0.31613   0.31696
 Alpha virt. eigenvalues --    0.33542   0.33917   0.35009   0.35575   0.36883
 Alpha virt. eigenvalues --    0.37179   0.37812   0.38062   0.39134   0.39637

  Beta  occ. eigenvalues --  -88.65150 -88.65149 -18.69528 -18.69527 -18.69255
  Beta  occ. eigenvalues --  -18.69254 -18.69237 -18.69237 -18.69234 -18.69234
  Beta  occ. eigenvalues --   -9.85505  -9.85504  -9.82743  -9.82742  -9.81340
  Beta  occ. eigenvalues --   -9.81338  -9.80826  -9.80825  -9.80594  -9.80594
  Beta  occ. eigenvalues --   -9.80321  -9.80321  -9.80242  -9.80241  -7.70947
  Beta  occ. eigenvalues --   -7.70946  -5.67216  -5.67216  -5.67193  -5.67193
  Beta  occ. eigenvalues --   -5.67159  -5.67159  -0.70682  -0.70681  -0.62765
  Beta  occ. eigenvalues --   -0.62515  -0.57346  -0.57346  -0.56699  -0.56698
  Beta  occ. eigenvalues --   -0.48962  -0.48236  -0.41176  -0.38445  -0.38425
  Beta  occ. eigenvalues --   -0.36983  -0.29186  -0.27571  -0.24602  -0.24471
  Beta  occ. eigenvalues --   -0.22081  -0.18026  -0.16494  -0.15527  -0.14299
  Beta  occ. eigenvalues --   -0.10438  -0.09634  -0.09520  -0.08717  -0.07992
  Beta  occ. eigenvalues --   -0.07694  -0.05403  -0.05331  -0.05229  -0.05086
  Beta  occ. eigenvalues --   -0.04074  -0.04042  -0.03041  -0.02762  -0.00618
  Beta  occ. eigenvalues --    0.00188   0.00271   0.00645   0.01587   0.02483
  Beta  occ. eigenvalues --    0.03497   0.06314   0.06353   0.06930   0.07020
  Beta  occ. eigenvalues --    0.08593   0.09261   0.09619   0.09875   0.10782
  Beta  occ. eigenvalues --    0.10878   0.11584   0.12146   0.12672   0.12787
  Beta  occ. eigenvalues --    0.14376   0.14600   0.14676   0.14834   0.26074
  Beta virt. eigenvalues --    0.27207   0.27615   0.31586   0.31613   0.31696
  Beta virt. eigenvalues --    0.33542   0.33917   0.35009   0.35575   0.36883
  Beta virt. eigenvalues --    0.37179   0.37812   0.38062   0.39134   0.39637

 Mulliken charges and spin densities:
               1          2
     1  C   -1.072525  -0.000000
     2  C    2.206637   0.000000
     3  C    1.576353   0.000000
     4  C    2.205291  -0.000000
     5  C    0.099096   0.000000
     6  C   -1.385910   0.000000
     7  C   -1.705005  -0.000000
     8  C    0.095436   0.000000
     9  C    2.206574  -0.000000
    10  C   -1.694496   0.000000
    11  C   -1.388195   0.000000
    12  C    1.586082  -0.000000
    13  C    2.199603  -0.000000
    14  C   -1.062776  -0.000000
    15  O   -0.222016  -0.000000
    16  O   -0.222051  -0.000000
    17  S    0.583602  -0.000000
    18  O   -0.381524  -0.000000
    19  O   -0.357215  -0.000000
    20  O   -0.347555  -0.000000
    21  S    0.583205  -0.000000
    22  O   -0.381363  -0.000000
    23  O   -0.347714  -0.000000
    24  O   -0.357005  -0.000000
    25  H    0.392188  -0.000000
    26  H   -3.896149   0.000000
    27  H    0.296794  -0.000000
    28  H    0.296159  -0.000000
    29  H   -3.897646   0.000000
    30  H    0.392126  -0.000000
 Sum of Mulliken charges =  -4.00000  -0.00000

 Dipole moment (field-independent basis, Debye):
    X=            -64.6080    Y=             58.6552    Z=            -15.9068  Tot=             88.6998
 Quadrupole moment (field-independent basis, Debye-Ang):
   XX=           -669.5713   YY=           -481.9507   ZZ=           -377.3261
   XY=            261.9780   XZ=             69.1345   YZ=            105.2081

  Exact polarizability:3253.883********1362.510-567.929  55.510 646.910
 Approx polarizability:****************9378.796********1951.8861263.584

                      1                      2                      3
                      A                      A                      A
 Frequencies --     11.2691                33.8653                35.7837
 Red. masses --     14.5669                11.3186                 8.6483
 Frc consts  --      0.0011                 0.0076                 0.0065
 IR Inten    --      0.1771                 1.2920                12.6386

                      4                      5                      6
                      A                      A                      A
 Frequencies --     83.5927                91.7514               104.0359
 Red. masses --     12.6801                 9.9531                11.4850
 Frc consts  --      0.0522                 0.0494                 0.0732
 IR Inten    --      1.3559                32.7156                19.2019

                      7                      8                      9
                      A                      A                      A
 Frequencies --    120.7863               155.6148               173.8270
 Red. masses --     15.7194                 6.6045                 7.8643
 Frc consts  --      0.1351                 0.0942                 0.1400
 IR Inten    --      0.9241                 0.9310                 2.1953

                     10                     11                     12
                      A                      A                      A
 Frequencies --    180.3475               209.6862               237.5703
 Red. masses --      8.6174                13.2897                13.5630
 Frc consts  --      0.1651                 0.3443                 0.4510
 IR Inten    --     72.6773                 7.9284                 0.0068

                     13                     14                     15
                      A                      A                      A
 Frequencies --    252.3565               265.4598               286.8256
 Red. masses --      5.4788                11.9772                 6.8534
 Frc consts  --      0.2056                 0.4973                 0.3322
 IR Inten    --      1.1743                 0.0973                 4.2549

                     16                     17                     18
                      A                      A                      A
 Frequencies --    296.2321               328.1511               346.2473
 Red. masses --     12.3364                 8.5558                 6.3094
 Frc consts  --      0.6378                 0.5428                 0.4457
 IR Inten    --      6.1383                 0.1997                 0.4057

                     19                     20                     21
                      A                      A                      A
 Frequencies --    358.2375               391.1148               394.1514
 Red. masses --      6.7595                10.0129                11.9622
 Frc consts  --      0.5111                 0.9024                 1.0949
 IR Inten    --     23.5781                 0.3292                52.3893

                     22                     23                     24
                      A                      A                      A
 Frequencies --    425.7622               457.8109               476.0210
 Red. masses --      6.2737                 9.3856                 9.5044
 Frc consts  --      0.6701                 1.1590                 1.2689
 IR Inten    --     11.9259                 5.2104                89.2787

                     25                     26                     27
                      A                      A                      A
 Frequencies --    482.8326               496.8506               504.7387
 Red. masses --     11.7716                11.5853                15.1716
 Frc consts  --      1.6169                 1.6850                 2.2773
 IR Inten    --     11.5929                 1.2264                27.8321

                     28                     29                     30
                      A                      A                      A
 Frequencies --    506.5922               520.5570               556.2288
 Red. masses --      4.3089                12.1409                 9.5820
 Frc consts  --      0.6515                 1.9384                 1.7467
 IR Inten    --    232.0544                 0.1102                 1.6576

                     31                     32                     33
                      A                      A                      A
 Frequencies --    568.6364               594.3216               604.8954
 Red. masses --      5.6734                15.6505                17.7247
 Frc consts  --      1.0808                 3.2570                 3.8211
 IR Inten    --      0.7949               389.4545                 1.9843

                     34                     35                     36
                      A                      A                      A
 Frequencies --    620.7452               647.2892               696.0825
 Red. masses --      6.4862                 6.2136                 6.7764
 Frc consts  --      1.4726                 1.5339                 1.9345
 IR Inten    --     49.8548                 0.1196                 7.1445

                     37                     38                     39
                      A                      A                      A
 Frequencies --    697.9695               714.7660               756.2289
 Red. masses --      9.5135                 5.3131                 9.8282
 Frc consts  --      2.7306                 1.5993                 3.3115
 IR Inten    --    121.4882                31.9040                 0.5388

                     40                     41                     42
                      A                      A                      A
 Frequencies --    762.5095               810.9266               812.3133
 Red. masses --      8.9503                 6.3580                 6.7014
 Frc consts  --      3.0660                 2.4634                 2.6053
 IR Inten    --      0.6610               121.8833                73.0540

                     43                     44                     45
                      A                      A                      A
 Frequencies --    887.3624               889.6683               920.6095
 Red. masses --      1.2827                 1.3207                 7.7426
 Frc consts  --      0.5951                 0.6159                 3.8662
 IR Inten    --     11.0706                 1.2040                 2.4999

                     46                     47                     48
                      A                      A                      A
 Frequencies --    939.1344               949.2203               949.7601
 Red. masses --     10.1689                 1.3441                 1.3494
 Frc consts  --      5.2842                 0.7135                 0.7172
 IR Inten    --     50.7188                 2.5292                 2.0896

                     49                     50                     51
                      A                      A                      A
 Frequencies --    958.0495               962.4637              1062.8419
 Red. masses --     10.9273                11.3146                 3.5881
 Frc consts  --      5.9093                 6.1753                 2.3881
 IR Inten    --      1.4285               500.6747                 0.2326

                     52                     53                     54
                      A                      A                      A
 Frequencies --   1073.8753              1098.7703              1104.2529
 Red. masses --      3.2508                 9.7442                 3.6669
 Frc consts  --      2.2088                 6.9313                 2.6344
 IR Inten    --     68.3826                 6.0078                47.6807

                     55                     56                     57
                      A                      A                      A
 Frequencies --   1112.9382              1116.0181              1156.4078
 Red. masses --      2.9012                 3.4265                20.5160
 Frc consts  --      2.1173                 2.5144                16.1646
 IR Inten    --     13.9436               139.4849                 7.4007

                     58                     59                     60
                      A                      A                      A
 Frequencies --   1157.1417              1164.5142              1173.7641
 Red. masses --     20.2108                 1.9535                 2.3477
 Frc consts  --     15.9444                 1.5608                 1.9057
 IR Inten    --    473.5310               125.6240                 0.8866

                     61                     62                     63
                      A                      A                      A
 Frequencies --   1183.2820              1198.2985              1226.1232
 Red. masses --      1.3012                 2.9127                 2.2371
 Frc consts  --      1.0734                 2.4642                 1.9815
 IR Inten    --     12.7907                45.8470               278.0578

                     64                     65                     66
                      A                      A                      A
 Frequencies --   1296.9304              1304.1523              1330.0849
 Red. masses --      3.2977                 9.4142                 6.1078
 Frc consts  --      3.2681                 9.4339                 6.3664
 IR Inten    --      6.7793                13.9702                 0.5560

                     67                     68                     69
                      A                      A                      A
 Frequencies --   1374.3649              1407.9688              1417.8351
 Red. masses --      3.4275                 1.8528                 2.0428
 Frc consts  --      3.8145                 2.1640                 2.4195
 IR Inten    --    248.9011              3516.5474              2666.7355

                     70                     71                     72
                      A                      A                      A
 Frequencies --   1429.0535              1439.1994              1457.3275
 Red. masses --      2.1347                 1.2908                 2.3067
 Frc consts  --      2.5686                 1.5752                 2.8864
 IR Inten    --    275.5271                85.5957                 7.2998

                     73                     74                     75
                      A                      A                      A
 Frequencies --   1540.4123              1552.1928              1554.6315
 Red. masses --      5.2500                 7.1103                 4.8144
 Frc consts  --      7.3398                10.0933                 6.8557
 IR Inten    --    494.8027                 0.7798                49.0804

                     76                     77                     78
                      A                      A                      A
 Frequencies --   1571.8818              1596.6020              1626.6877
 Red. masses --      6.9347                 5.7349                 8.8378
 Frc consts  --     10.0953                 8.6133                13.7785
 IR Inten    --      9.3336                 2.7581               192.7081

                     79                     80                     81
                      A                      A                      A
 Frequencies --   3074.3269              3101.2293              3185.4883
 Red. masses --      1.0889                 1.0894                 1.0903
 Frc consts  --      6.0636                 6.1728                 6.5183
 IR Inten    --    240.2416               754.2093                79.5620

                     82                     83                     84
                      A                      A                      A
 Frequencies --   3186.0242              3195.4001              3196.1138
 Red. masses --      1.0901                 1.0893                 1.0894
 Frc consts  --      6.5195                 6.5530                 6.5566
 IR Inten    --      1.8286               100.7073                 1.2339

 - Thermochemistry -
 -------------------
 Temperature   298.150 Kelvin.  Pressure   1.00000 Atm.
 Atom     1 has atomic number  6 and mass  12.00000

 Molecular mass:   365.95041 amu.
 Principal axes and moments of inertia in atomic units:
                           1         2         3
     Eigenvalues --  3603.58436********************
           X           -0.59020  -0.65852   0.46692
           Y           -0.26958   0.70598   0.65492
           Z            0.76091  -0.26066   0.59419
 This molecule is an asymmetric top.
 Rotational symmetry number  1.
 Warning -- assumption of classical behavior for rotation
           may cause significant error
 Rotational temperatures (Kelvin)      0.02404     0.00564     0.00476
 Rotational constants (GHZ):           0.50082     0.11749     0.09927
 Zero-point vibrational energy     479663.0 (Joules/Mol)
                                  114.64220 (Kcal/Mol)
 Warning -- explicit consideration of  34 degrees of freedom as
           vibrations may cause significant error
 Vibrational temperatures:     16.21    48.72    51.48   120.27   132.01
          (Kelvin)            149.68   173.78   223.90   250.10   259.48
                              301.69   341.81   363.08   381.94   412.68
                              426.21   472.14   498.17   515.42   562.73
                              567.10   612.58   658.69   684.89   694.69
                              714.86   726.21   728.87   748.97   800.29
                              818.14   855.10   870.31   893.11   931.30
                             1001.51  1004.22  1028.39  1088.04  1097.08
                             1166.74  1168.74  1276.72  1280.03  1324.55
                             1351.20  1365.72  1366.49  1378.42  1384.77
                             1529.19  1545.07  1580.89  1588.77  1601.27
                             1605.70  1663.81  1664.87  1675.48  1688.78
                             1702.48  1724.08  1764.12  1865.99  1876.38
                             1913.70  1977.40  2025.75  2039.95  2056.09
                             2070.69  2096.77  2216.31  2233.26  2236.77
                             2261.59  2297.15  2340.44  4423.27  4461.98
                             4583.21  4583.98  4597.47  4598.49

 Zero-point correction=                           0.182694 (Hartree/Particle)
 Thermal correction to Energy=                    0.201839
 Thermal correction to Enthalpy=                  0.202783
 Thermal correction to Gibbs Free Energy=         0.133093
 Sum of electronic and zero-point Energies=          -1935.064244
 Sum of electronic and thermal Energies=             -1935.045100
 Sum of electronic and thermal Enthalpies=           -1935.044156
 Sum of electronic and thermal Free Energies=        -1935.113845

                     E (Thermal)             CV                S
                      KCal/Mol        Cal/Mol-Kelvin    Cal/Mol-Kelvin
 Total                  126.656             73.516            146.674
 Electronic               0.000              0.000              0.000
 Translational            0.889              2.981             43.585
 Rotational               0.889              2.981             35.263
 Vibrational            124.878             67.554             67.825
 Vibration     1          0.593              1.987              7.774
 Vibration     2          0.594              1.983              5.589
 Vibration     3          0.594              1.982              5.480
 Vibration     4          0.600              1.960              3.805
 Vibration     5          0.602              1.955              3.622
 Vibration     6          0.605              1.946              3.377
 Vibration     7          0.609              1.932              3.088
 Vibration     8          0.620              1.896              2.602
 Vibration     9          0.627              1.875              2.394
 Vibration    10          0.629              1.866              2.325
 Vibration    11          0.642              1.826              2.046
 Vibration    12          0.656              1.783              1.821
 Vibration    13          0.664              1.759              1.714
 Vibration    14          0.671              1.736              1.626
 Vibration    15          0.684              1.698              1.493
 Vibration    16          0.690              1.681              1.438
 Vibration    17          0.711              1.619              1.269
 Vibration    18          0.724              1.583              1.183
 Vibration    19          0.733              1.558              1.130
 Vibration    20          0.759              1.489              0.996
 Vibration    21          0.761              1.483              0.984
 Vibration    22          0.788              1.414              0.873
 Vibration    23          0.816              1.344              0.773
 Vibration    24          0.833              1.303              0.721
 Vibration    25          0.839              1.288              0.702
 Vibration    26          0.852              1.257              0.666
 Vibration    27          0.860              1.240              0.646
 Vibration    28          0.862              1.235              0.642
 Vibration    29          0.876              1.204              0.609
 Vibration    30          0.912              1.126              0.531
 Vibration    31          0.925              1.099              0.507
 Vibration    32          0.952              1.044              0.460
 Vibration    33          0.963              1.021              0.441
 Vibration    34          0.981              0.988              0.415

                           ! Non-Optimized Parameters !
 Normal termination of Gaussian 16 at Wed Jan 10 00:47:53 2024.
