 Gaussian 16, Revision A.03,
 Gaussian 16:  ES64L-G16RevA.03 25-Dec-2016

 ----------------------------------------------------------------
 #P UB3LYP/6-311++G(d,p) SCRF=(PCM,Solvent=n,n-DiMethylFormamide)
 ----------------------------------------------------------------

 -------
 Reduced
 -------
 Symbolic Z-matrix:
 Charge = -2 Multiplicity = 1

                         Standard orientation:
 ---------------------------------------------------------------------
 Center     Atomic      Atomic             Coordinates (Angstroms)
 Number     Number       Type             X           Y           Z
 ---------------------------------------------------------------------
      1          6           0        0.636197    1.326083   -0.002101
      2          6           0        1.457970    0.124304   -0.000554
      3          6           0        0.781659   -1.107932   -0.001011
      4          6           0       -0.636218   -1.326023   -0.000670
      5          6           0       -1.457993   -0.124243    0.000314
      6          6           0       -0.781689    1.107993   -0.001121
      7          8           0       -1.139116   -2.517153   -0.001363
      8          8           0        1.139057    2.517227   -0.003901
      9         17           0       -1.655724    2.701051   -0.003083
     10         17           0        1.655741   -2.700959   -0.004317
     11          6           0       -2.996424   -0.394111    0.001938
     12          6           0       -3.352542   -1.214824    1.271540
     13          6           0       -3.963933    0.810581    0.004653
     14          6           0       -3.355407   -1.212353   -1.268316
     15          6           0        2.996421    0.394079    0.002285
     16          6           0        3.351012    1.215109    1.272078
     17          6           0        3.963800   -0.810712    0.006528
     18          6           0        3.357134    1.211881   -1.267798
     19          1           0       -2.725352   -2.105861    1.319459
     20          1           0       -4.413111   -1.509988    1.248322
     21          1           0       -3.192049   -0.600829    2.165709
     22          1           0       -3.847310    1.443024    0.885622
     23          1           0       -4.986768    0.405814    0.007172
     24          1           0       -3.851828    1.443525   -0.876494
     25          1           0       -3.196087   -0.596958   -2.161719
     26          1           0       -4.416070   -1.507116   -1.243848
     27          1           0       -2.728608   -2.103569   -1.318710
     28          1           0        2.724017    2.106370    1.318652
     29          1           0        4.411705    1.509944    1.250417
     30          1           0        3.188922    0.601480    2.166203
     31          1           0        3.846138   -1.442803    0.887611
     32          1           0        4.986675   -0.406054    0.009984
     33          1           0        3.852604   -1.443988   -0.874497
     34          1           0        2.730555    2.103158   -1.319435
     35          1           0        3.199030    0.596212   -2.161239
     36          1           0        4.417805    1.506496   -1.241890
 ---------------------------------------------------------------------

 SCF Done:  E(UB3LYP) =  -1615.62774471     A.U. after   16 cycles

 The electronic state is 1-A.
 Alpha  occ. eigenvalues -- -101.51158-101.51158 -19.00827 -19.00827 -10.18128
 Alpha  occ. eigenvalues --  -10.18127 -10.17635 -10.17634 -10.16888 -10.16888
 Alpha  occ. eigenvalues --  -10.14527 -10.14526 -10.13567 -10.13567 -10.12896
 Alpha  occ. eigenvalues --  -10.12895 -10.12893 -10.12893  -9.42663  -9.42663
 Alpha  occ. eigenvalues --   -7.19049  -7.19049  -7.18224  -7.18224  -7.18110
 Alpha  occ. eigenvalues --   -7.18110  -0.93597  -0.93130  -0.82628  -0.82159
 Alpha  occ. eigenvalues --   -0.78942  -0.78533  -0.75047  -0.68199  -0.65931
 Alpha  occ. eigenvalues --   -0.65926  -0.65791  -0.65655  -0.63451  -0.58286
 Alpha  occ. eigenvalues --   -0.52254  -0.51737  -0.49915  -0.46015  -0.44004
 Alpha  occ. eigenvalues --   -0.43648  -0.41524  -0.41440  -0.40995  -0.40087
 Alpha  occ. eigenvalues --   -0.38992  -0.38740  -0.38727  -0.37598  -0.36730
 Alpha  occ. eigenvalues --   -0.35961  -0.35371  -0.35043  -0.34627  -0.33890
 Alpha  occ. eigenvalues --   -0.33079  -0.32264  -0.31920  -0.31911  -0.31060
 Alpha  occ. eigenvalues --   -0.31009  -0.30325  -0.29967  -0.28577  -0.28444
 Alpha  occ. eigenvalues --   -0.26858  -0.26350  -0.21917  -0.20111  -0.19010
 Alpha  occ. eigenvalues --   -0.18631  -0.11753
 Alpha virt. eigenvalues --   -0.00288   0.00636   0.01449   0.01463   0.01731
 Alpha virt. eigenvalues --    0.02751   0.02953   0.02970   0.03587   0.03836
 Alpha virt. eigenvalues --    0.04422   0.04593   0.04739   0.05080   0.05835

  Beta  occ. eigenvalues -- -101.51158-101.51158 -19.00827 -19.00827 -10.18128
  Beta  occ. eigenvalues --  -10.18127 -10.17635 -10.17634 -10.16888 -10.16888
  Beta  occ. eigenvalues --  -10.14527 -10.14526 -10.13567 -10.13567 -10.12896
  Beta  occ. eigenvalues --  -10.12895 -10.12893 -10.12893  -9.42663  -9.42663
  Beta  occ. eigenvalues --   -7.19049  -7.19049  -7.18224  -7.18224  -7.18110
  Beta  occ. eigenvalues --   -7.18110  -0.93597  -0.93130  -0.82628  -0.82159
  Beta  occ. eigenvalues --   -0.78942  -0.78533  -0.75047  -0.68199  -0.65931
  Beta  occ. eigenvalues --   -0.65926  -0.65791  -0.65655  -0.63451  -0.58286
  Beta  occ. eigenvalues --   -0.52254  -0.51737  -0.49915  -0.46015  -0.44004
  Beta  occ. eigenvalues --   -0.43648  -0.41524  -0.41440  -0.40995  -0.40087
  Beta  occ. eigenvalues --   -0.38992  -0.38740  -0.38727  -0.37598  -0.36730
  Beta  occ. eigenvalues --   -0.35961  -0.35371  -0.35043  -0.34627  -0.33890
  Beta  occ. eigenvalues --   -0.33079  -0.32264  -0.31920  -0.31911  -0.31060
  Beta  occ. eigenvalues --   -0.31009  -0.30325  -0.29967  -0.28577  -0.28444
  Beta  occ. eigenvalues --   -0.26858  -0.26350  -0.21917  -0.20111  -0.19010
  Beta  occ. eigenvalues --   -0.18631  -0.11753
  Beta virt. eigenvalues --   -0.00288   0.00636   0.01449   0.01463   0.01731
  Beta virt. eigenvalues --    0.02751   0.02953   0.02970   0.03587   0.03836
  Beta virt. eigenvalues --    0.04422   0.04593   0.04739   0.05080   0.05835

 Mulliken charges and spin densities:
               1          2
     1  C   -0.952672   0.000000
     2  C    0.176156   0.000000
     3  C   -0.135937   0.000000
     4  C   -0.952668   0.000000
     5  C    0.175867  -0.000000
     6  C   -0.135956  -0.000000
     7  O   -0.534687  -0.000000
     8  O   -0.534697  -0.000000
     9  Cl   0.425081   0.000000
    10  Cl   0.425193   0.000000
    11  C    0.704173  -0.000000
    12  C   -0.655007  -0.000000
    13  C   -0.608882   0.000000
    14  C   -0.655152  -0.000000
    15  C    0.704128  -0.000000
    16  C   -0.655416  -0.000000
    17  C   -0.608901   0.000000
    18  C   -0.654708   0.000000
    19  H    0.187405  -0.000000
    20  H    0.127918   0.000000
    21  H    0.119067  -0.000000
    22  H    0.123535  -0.000000
    23  H    0.121039   0.000000
    24  H    0.123505  -0.000000
    25  H    0.119207  -0.000000
    26  H    0.127893   0.000000
    27  H    0.187478  -0.000000
    28  H    0.187298   0.000000
    29  H    0.127936  -0.000000
    30  H    0.119040   0.000000
    31  H    0.123630  -0.000000
    32  H    0.121035  -0.000000
    33  H    0.123406  -0.000000
    34  H    0.187542   0.000000
    35  H    0.119256  -0.000000
    36  H    0.127898  -0.000000
 Sum of Mulliken charges =  -2.00000   0.00000

 Dipole moment (field-independent basis, Debye):
    X=              0.0006    Y=             -0.0005    Z=              0.0227  Tot=              0.0227
 Quadrupole moment (field-independent basis, Debye-Ang):
   XX=           -160.9408   YY=           -197.5940   ZZ=           -137.7616
   XY=             -8.8250   XZ=              0.0123   YZ=              0.0181

 Normal termination of Gaussian 16 at Sun Jan 21 07:36:36 2024.
