 Q-Chem 5.4, Q-Chem, Inc., Pleasanton, CA (2021)
 Q-Chem 5.4.0 for Intel X86 EM64T Linux

User input:
--------------------------------------------------------------
$molecule
-1 2
C                  5.6730680000     -5.1030470000      1.2822580000
C                  6.6816350000     -5.0195950000      0.3482890000
C                  6.5914370000     -4.0630490000     -0.6985630000
C                  4.5454710000     -4.2570650000      1.2250450000
C                  4.4553180000     -3.2977820000      0.1750560000
C                  5.4854130000     -3.2188030000     -0.7715260000
C                  3.4904840000     -4.3782800000      2.2415790000
C                  2.3825520000     -3.4684100000      2.0920660000
C                  2.2918970000     -2.5422720000      1.0814630000
C                  3.2991840000     -2.3845040000      0.0627130000
O                  3.5576080000     -5.2221840000      3.1744410000
O                  3.2103740000     -1.5364410000     -0.8588220000
C                  7.6353260000     -3.9743200000     -1.6681400000
N                  8.4925410000     -3.9168470000     -2.4463100000
H                  5.7151030000     -5.8229430000      2.0915080000
H                  7.5446420000     -5.6736020000      0.3997200000
H                  5.3941670000     -2.4815060000     -1.5603560000
H                  1.5967130000     -3.5496870000      2.8379170000
H                  1.4347960000     -1.8785540000      1.0129520000
$end
$rem
MAX_SCF_CYCLES=200
BASIS  =  6-311++G(d,p)
GUI  =  2
JOB_TYPE  =  SP
METHOD  =  B3LYP
SOLVENT_METHOD = PCM
$end
$pcm
theory = CPCM
$end
$solvent
dielectric 37.219
opticaldielectric 1.43
$end

--------------------------------------------------------------

             Standard Nuclear Orientation (Angstroms)
    I     Atom           X                Y                Z
 ----------------------------------------------------------------
    1      C       5.6730680000    -5.1030470000     1.2822580000
    2      C       6.6816350000    -5.0195950000     0.3482890000
    3      C       6.5914370000    -4.0630490000    -0.6985630000
    4      C       4.5454710000    -4.2570650000     1.2250450000
    5      C       4.4553180000    -3.2977820000     0.1750560000
    6      C       5.4854130000    -3.2188030000    -0.7715260000
    7      C       3.4904840000    -4.3782800000     2.2415790000
    8      C       2.3825520000    -3.4684100000     2.0920660000
    9      C       2.2918970000    -2.5422720000     1.0814630000
   10      C       3.2991840000    -2.3845040000     0.0627130000
   11      O       3.5576080000    -5.2221840000     3.1744410000
   12      O       3.2103740000    -1.5364410000    -0.8588220000
   13      C       7.6353260000    -3.9743200000    -1.6681400000
   14      N       8.4925410000    -3.9168470000    -2.4463100000
   15      H       5.7151030000    -5.8229430000     2.0915080000
   16      H       7.5446420000    -5.6736020000     0.3997200000
   17      H       5.3941670000    -2.4815060000    -1.5603560000
   18      H       1.5967130000    -3.5496870000     2.8379170000
   19      H       1.4347960000    -1.8785540000     1.0129520000
 ----------------------------------------------------------------

    9    -627.6906632186      5.04e-06  Convergence criterion met
 Total energy in the final basis set =     -627.6906632186

                    Orbital Energies (a.u.)
 --------------------------------------------------------------

 Alpha MOs
 -- Occupied --
-19.0876 -19.0858 -14.3238 -10.2337 -10.2303 -10.2265 -10.2186 -10.1951
-10.1929 -10.1884 -10.1872 -10.1828 -10.1719 -10.1705  -1.0131  -1.0090
 -0.9255  -0.8771  -0.8189  -0.7745  -0.7611  -0.6909  -0.6542  -0.6299
 -0.5769  -0.5543  -0.5171  -0.4876  -0.4748  -0.4412  -0.4384  -0.4318
 -0.4290  -0.4150  -0.4001  -0.3983  -0.3888  -0.3875  -0.3665  -0.3624
 -0.3477  -0.3453  -0.2864  -0.2721  -0.2641  -0.2549  -0.2481  -0.1640

 Beta MOs
 -- Occupied --
-19.0816 -19.0793 -14.3235 -10.2323 -10.2287 -10.2266 -10.2182 -10.1954
-10.1922 -10.1875 -10.1867 -10.1828 -10.1707 -10.1690  -1.0026  -0.9975
 -0.9250  -0.8754  -0.8137  -0.7726  -0.7589  -0.6824  -0.6512  -0.6272
 -0.5752  -0.5513  -0.5148  -0.4851  -0.4723  -0.4405  -0.4365  -0.4286
 -0.4184  -0.4102  -0.3976  -0.3900  -0.3879  -0.3646  -0.3615  -0.3610
 -0.3446  -0.3405  -0.2661  -0.2580  -0.2575  -0.2491  -0.2424

          Ground-State Mulliken Net Atomic Charges

     Atom                 Charge (a.u.)    Spin (a.u.)
  --------------------------------------------------------
      1 C                     0.420278       0.035821
      2 C                    -0.889895       0.042900
      3 C                     1.936958       0.031037
      4 C                     0.166065       0.048511
      5 C                    -0.105754       0.026661
      6 C                     0.251740       0.001661
      7 C                    -0.562276       0.085065
      8 C                     0.078919       0.097765
      9 C                     0.049327       0.119975
     10 C                    -0.445366       0.077465
     11 O                    -0.494574       0.237458
     12 O                    -0.485597       0.215546
     13 C                    -1.644882      -0.011190
     14 N                    -0.288358       0.015435
     15 H                     0.182286      -0.001987
     16 H                     0.228147      -0.003261
     17 H                     0.192915      -0.001028
     18 H                     0.203795      -0.008216
     19 H                     0.206270      -0.009617
  --------------------------------------------------------
  Sum of atomic charges =    -1.000000

                    Cartesian Multipole Moments
 -----------------------------------------------------------------
    Charge (ESU x 10^10)
                -4.8032
    Dipole Moment (Debye)
         X     -21.9675      Y      16.3294      Z      -0.9412
       Tot      27.3881
    Quadrupole Moments (Debye-Ang)
        XX    -208.8518     XY      74.8981     YY    -153.0721
        XZ      15.4519     YZ      18.6032     ZZ    -118.8725

 Total job time:  45.66s(wall), 223.31s(cpu)
        *  Thank you very much for using Q-Chem.  Have a nice day.  *
