 Q-Chem 5.4, Q-Chem, Inc., Pleasanton, CA (2021)
 Q-Chem 5.4.0 for Intel X86 EM64T Linux

User input:
--------------------------------------------------------------
$molecule
-1 2
C                  4.8659730000     -2.8833960000     -0.3372820000
C                  5.5988320000     -2.0001230000     -1.1023230000
C                  5.0184420000     -0.7862430000     -1.5337810000
C                  3.5294150000     -2.5963530000      0.0290200000
C                  2.9425220000     -1.3702480000     -0.4065440000
C                  3.7149360000     -0.4864420000     -1.1873030000
C                  2.7824440000     -3.5393290000      0.8319380000
C                  1.4211280000     -3.1894880000      1.1740830000
C                  0.8161810000     -1.9698110000      0.7490380000
C                  1.5606450000     -1.0042900000     -0.0652400000
C                  0.6600540000     -4.0904130000      1.9599240000
C                 -0.6519920000     -3.7916600000      2.3105390000
C                 -0.5130940000     -1.6984180000      1.1211710000
C                 -1.2406480000     -2.5926120000      1.8903050000
O                  3.2968080000     -4.6494020000      1.2327530000
O                  1.0515580000      0.0721830000     -0.4500900000
O                  1.1748410000     -5.2690100000      2.3978460000
H                  5.2897550000     -3.8201790000      0.0050430000
H                  6.6233340000     -2.2368300000     -1.3740680000
H                  5.5969020000     -0.0921640000     -2.1359010000
H                  3.2437510000      0.4370590000     -1.5038720000
H                  2.1270180000     -5.2687980000      2.0256390000
O                 -1.3632390000     -4.6877320000      3.0743380000
H                 -0.9500150000     -0.7658000000      0.7862300000
H                 -2.2657050000     -2.3861300000      2.1788530000
H                 -0.7616070000     -5.4279390000      3.2407510000
$end

$rem
BASIS  =  6-311++G(d,p)
GUI  =  2
JOB_TYPE  =  SP
METHOD  =  B3LYP
SCF_CONVERGENCE  = 8
SOLVENT_METHOD = sm12
$end

$smx
solvent dimethylformamide
charges CM5
$end

--------------------------------------------------------------

             Standard Nuclear Orientation (Angstroms)
    I     Atom           X                Y                Z
 ----------------------------------------------------------------
    1      C       4.8659730000    -2.8833960000    -0.3372820000
    2      C       5.5988320000    -2.0001230000    -1.1023230000
    3      C       5.0184420000    -0.7862430000    -1.5337810000
    4      C       3.5294150000    -2.5963530000     0.0290200000
    5      C       2.9425220000    -1.3702480000    -0.4065440000
    6      C       3.7149360000    -0.4864420000    -1.1873030000
    7      C       2.7824440000    -3.5393290000     0.8319380000
    8      C       1.4211280000    -3.1894880000     1.1740830000
    9      C       0.8161810000    -1.9698110000     0.7490380000
   10      C       1.5606450000    -1.0042900000    -0.0652400000
   11      C       0.6600540000    -4.0904130000     1.9599240000
   12      C      -0.6519920000    -3.7916600000     2.3105390000
   13      C      -0.5130940000    -1.6984180000     1.1211710000
   14      C      -1.2406480000    -2.5926120000     1.8903050000
   15      O       3.2968080000    -4.6494020000     1.2327530000
   16      O       1.0515580000     0.0721830000    -0.4500900000
   17      O       1.1748410000    -5.2690100000     2.3978460000
   18      H       5.2897550000    -3.8201790000     0.0050430000
   19      H       6.6233340000    -2.2368300000    -1.3740680000
   20      H       5.5969020000    -0.0921640000    -2.1359010000
   21      H       3.2437510000     0.4370590000    -1.5038720000
   22      H       2.1270180000    -5.2687980000     2.0256390000
   23      O      -1.3632390000    -4.6877320000     3.0743380000
   24      H      -0.9500150000    -0.7658000000     0.7862300000
   25      H      -2.2657050000    -2.3861300000     2.1788530000
   26      H      -0.7616070000    -5.4279390000     3.2407510000
 ----------------------------------------------------------------

   18    -839.5353128477      8.48e-09  Convergence criterion met
 Total energy in the final basis set =     -839.6224036398

                    Orbital Energies (a.u.)
 --------------------------------------------------------------

 Alpha MOs
 -- Occupied --
-19.1590 -19.1401 -19.0940 -19.0810 -10.2375 -10.2358 -10.2349 -10.2330
-10.1849 -10.1836 -10.1834 -10.1827 -10.1824 -10.1818 -10.1804 -10.1799
-10.1790 -10.1770  -1.0782  -1.0497  -1.0087  -1.0058  -0.8696  -0.8568
 -0.7946  -0.7611  -0.7501  -0.7460  -0.6783  -0.6540  -0.6357  -0.6088
 -0.5770  -0.5591  -0.5417  -0.5230  -0.5032  -0.4899  -0.4741  -0.4578
 -0.4480  -0.4442  -0.4343  -0.4250  -0.4181  -0.4174  -0.4085  -0.4028
 -0.3905  -0.3775  -0.3698  -0.3655  -0.3609  -0.3570  -0.3451  -0.3271
 -0.2751  -0.2662  -0.2626  -0.2522  -0.2437  -0.2263  -0.1486

 Beta MOs
 -- Occupied --
-19.1587 -19.1397 -19.0884 -19.0760 -10.2369 -10.2352 -10.2322 -10.2320
-10.1850 -10.1832 -10.1831 -10.1824 -10.1815 -10.1806 -10.1801 -10.1801
-10.1783 -10.1768  -1.0773  -1.0481  -1.0001  -0.9966  -0.8669  -0.8556
 -0.7908  -0.7586  -0.7484  -0.7440  -0.6713  -0.6525  -0.6332  -0.6077
 -0.5751  -0.5582  -0.5398  -0.5219  -0.5014  -0.4876  -0.4724  -0.4569
 -0.4427  -0.4415  -0.4337  -0.4221  -0.4159  -0.4072  -0.4050  -0.4021
 -0.3764  -0.3759  -0.3648  -0.3624  -0.3595  -0.3473  -0.3435  -0.3176
 -0.2592  -0.2580  -0.2564  -0.2477  -0.2390  -0.2173

          Ground-State Mulliken Net Atomic Charges

     Atom                 Charge (a.u.)    Spin (a.u.)
  --------------------------------------------------------
      1 C                     0.277056       0.064445
      2 C                     0.893225       0.011665
      3 C                     1.016417       0.074196
      4 C                    -0.447829       0.000858
      5 C                    -1.328327       0.067682
      6 C                     0.079545      -0.001170
      7 C                    -1.329999       0.157456
      8 C                    -0.355524      -0.024375
      9 C                    -0.591332       0.037653
     10 C                    -1.840758       0.046795
     11 C                     0.020971       0.065404
     12 C                     0.666962       0.044739
     13 C                    -0.018117       0.030792
     14 C                     0.907127       0.027931
     15 O                    -0.339002       0.204075
     16 O                    -0.304218       0.188414
     17 O                    -0.377855       0.014623
     18 H                     0.186787      -0.002448
     19 H                     0.359539      -0.001463
     20 H                     0.351632      -0.005264
     21 H                     0.156523       0.000157
     22 H                     0.384953      -0.004727
     23 O                    -0.191529       0.007599
     24 H                     0.164624      -0.002334
     25 H                     0.328944      -0.002510
     26 H                     0.330186      -0.000194
  --------------------------------------------------------
  Sum of atomic charges =    -1.000000

                    Cartesian Multipole Moments
 -----------------------------------------------------------------
    Charge (ESU x 10^10)
                -4.8032
    Dipole Moment (Debye)
         X      -7.5581      Y      11.7435      Z      -3.4112
       Tot      14.3761
    Quadrupole Moments (Debye-Ang)
        XX    -131.7889     XY      21.8969     YY    -159.0861
        XZ      -3.5893     YZ      17.7280     ZZ    -118.8210

 Total job time:  660.54s(wall), 5072.78s(cpu)
        *  Thank you very much for using Q-Chem.  Have a nice day.  *
