 Gaussian 16, Revision A.03,
 Gaussian 16:  ES64L-G16RevA.03 25-Dec-2016

 --------------------------------------
 #P UB3LYP/6-311++G(d,p) nosym opt freq
 --------------------------------------

 -------
 Radical
 -------
 Symbolic Z-matrix:
 Charge = -1 Multiplicity = 2

 SCF Done:  E(UB3LYP) =  -575.611897768     A.U. after   21 cycles
 SCF Done:  E(UB3LYP) =  -575.624572434     A.U. after   18 cycles
 SCF Done:  E(UB3LYP) =  -575.624907756     A.U. after   15 cycles
 SCF Done:  E(UB3LYP) =  -575.624936278     A.U. after   14 cycles
 Optimization completed.
    -- Stationary point found.
 Normal termination of Gaussian 16 at Sat Jan  6 01:54:18 2024.

 ----------------------------------------------------------------------
 #P Geom=AllCheck Guess=TCheck SCRF=Check GenChk UB3LYP/6-311++G(d,p) F
 req
 ----------------------------------------------------------------------

 Structure from the checkpoint file:  "343-rad.chk"
 -------
 Radical
 -------
 Charge = -1 Multiplicity = 2

                          Input orientation:
 ---------------------------------------------------------------------
 Center     Atomic      Atomic             Coordinates (Angstroms)
 Number     Number       Type             X           Y           Z
 ---------------------------------------------------------------------
      1          8           0        0.097268    2.957047    0.893973
      2          6           0        0.057759    1.750773    0.529269
      3          6           0        1.187651    0.843479    0.318456
      4          6           0        2.566037    1.063208    0.460095
      5          6           0        3.455167    0.027146    0.197497
      6          6           0        2.986914   -1.241302   -0.209376
      7          6           0        1.617345   -1.474086   -0.354475
      8          6           0        0.712512   -0.444255   -0.094618
      9          6           0       -0.739226   -0.379053   -0.154583
     10          6           0       -1.709092   -1.323409   -0.491600
     11          6           0       -3.059615   -0.966739   -0.458223
     12          6           0       -3.443348    0.339573   -0.086391
     13          6           0       -2.488260    1.292323    0.252244
     14          6           0       -1.129097    0.948430    0.223129
     15          1           0        2.920738    2.040348    0.773214
     16          1           0        4.524192    0.190234    0.305168
     17          1           0        3.696127   -2.038739   -0.410075
     18          1           0        1.264638   -2.453410   -0.668091
     19          1           0       -1.423206   -2.331940   -0.779188
     20          1           0       -3.818814   -1.697882   -0.719572
     21          1           0       -4.498242    0.599576   -0.065865
     22          1           0       -2.777449    2.298677    0.539011
 ---------------------------------------------------------------------

 SCF Done:  E(UB3LYP) =  -575.624936278     A.U. after    1 cycles

 Alpha  occ. eigenvalues --  -18.92380 -10.06401 -10.04451 -10.04450 -10.04213
 Alpha  occ. eigenvalues --  -10.04212 -10.04153 -10.04151 -10.03692 -10.03688
 Alpha  occ. eigenvalues --  -10.03631 -10.03595 -10.02224 -10.02221  -0.84114
 Alpha  occ. eigenvalues --   -0.74024  -0.70784  -0.65766  -0.62309  -0.60874
 Alpha  occ. eigenvalues --   -0.57751  -0.52411  -0.49212  -0.45378  -0.43857
 Alpha  occ. eigenvalues --   -0.41750  -0.37299  -0.36518  -0.33428  -0.31102
 Alpha  occ. eigenvalues --   -0.30954  -0.29472  -0.28938  -0.28135  -0.27431
 Alpha  occ. eigenvalues --   -0.25895  -0.23071  -0.22926  -0.22378  -0.21133
 Alpha  occ. eigenvalues --   -0.20400  -0.19693  -0.15751  -0.12510  -0.12225
 Alpha  occ. eigenvalues --   -0.08531  -0.08306   0.00882
 Alpha virt. eigenvalues --    0.08403   0.08811   0.09288   0.09963   0.10725
 Alpha virt. eigenvalues --    0.11625   0.12293   0.13293   0.13329   0.15394
 Alpha virt. eigenvalues --    0.15787   0.15831   0.16540   0.16968   0.17657

  Beta  occ. eigenvalues --  -18.91619 -10.06173 -10.04515 -10.04515 -10.04162
  Beta  occ. eigenvalues --  -10.04160 -10.04034 -10.04034 -10.03635 -10.03632
  Beta  occ. eigenvalues --  -10.03482 -10.03447 -10.02129 -10.02126  -0.82759
  Beta  occ. eigenvalues --   -0.73634  -0.70608  -0.65361  -0.62036  -0.60697
  Beta  occ. eigenvalues --   -0.57554  -0.51789  -0.48996  -0.45085  -0.43750
  Beta  occ. eigenvalues --   -0.41485  -0.36983  -0.36399  -0.33255  -0.30946
  Beta  occ. eigenvalues --   -0.30780  -0.29376  -0.28822  -0.28021  -0.26188
  Beta  occ. eigenvalues --   -0.25457  -0.22906  -0.22586  -0.21871  -0.20329
  Beta  occ. eigenvalues --   -0.19495  -0.18795  -0.14731  -0.11666  -0.10542
  Beta  occ. eigenvalues --   -0.07833  -0.07695
  Beta virt. eigenvalues --    0.07091   0.08393   0.08800   0.09513   0.09944
  Beta virt. eigenvalues --    0.10717   0.11618   0.13274   0.13321   0.13349
  Beta virt. eigenvalues --    0.15762   0.15868   0.15947   0.16562   0.17075

 Mulliken charges and spin densities:
               1          2
     1  O   -0.426387   0.279802
     2  C   -0.391206   0.137265
     3  C    0.817833   0.072379
     4  C   -0.292220   0.066116
     5  C   -0.269502  -0.001682
     6  C   -0.298984   0.132098
     7  C   -0.559792  -0.056013
     8  C    0.085710   0.090750
     9  C    0.083374   0.090274
    10  C   -0.560760  -0.055700
    11  C   -0.297421   0.131509
    12  C   -0.269539  -0.001424
    13  C   -0.289187   0.065972
    14  C    0.819395   0.072265
    15  H    0.132364  -0.004057
    16  H    0.108348  -0.001209
    17  H    0.117939  -0.010187
    18  H    0.065671   0.003642
    19  H    0.065776   0.003626
    20  H    0.117864  -0.010144
    21  H    0.108386  -0.001233
    22  H    0.132341  -0.004048
 Sum of Mulliken charges =  -1.00000   1.00000

 Dipole moment (field-independent basis, Debye):
    X=             -0.1865    Y=             -5.6988    Z=             -1.7225  Tot=              5.9563
 Quadrupole moment (field-independent basis, Debye-Ang):
   XX=           -101.0528   YY=           -106.0978   ZZ=            -92.4286
   XY=             -0.0413   XZ=             -0.5613   YZ=             -4.5278

  Exact polarizability: 298.504  -6.432 182.331   9.431  27.100  99.664
 Approx polarizability: 480.180  -9.502 321.995  15.730  53.926 157.922

                      1                      2                      3
                      A                      A                      A
 Frequencies --     97.7506               134.6252               164.0289
 Red. masses --      4.6443                 3.6989                 6.8224
 Frc consts  --      0.0261                 0.0395                 0.1082
 IR Inten    --      1.8583                 0.0001                 1.2916

                      4                      5                      6
                      A                      A                      A
 Frequencies --    206.3675               273.5125               273.7989
 Red. masses --      4.6246                 5.0664                 9.3666
 Frc consts  --      0.1160                 0.2233                 0.4137
 IR Inten    --      2.0186                 0.0001                 1.1003

                      7                      8                      9
                      A                      A                      A
 Frequencies --    390.8741               419.7836               423.8522
 Red. masses --      4.4682                 6.5272                 2.9727
 Frc consts  --      0.4022                 0.6777                 0.3147
 IR Inten    --      0.3066                 0.0879                 0.0000

                     10                     11                     12
                      A                      A                      A
 Frequencies --    436.8341               513.2636               563.4788
 Red. masses --      3.6575                 5.6706                 8.5051
 Frc consts  --      0.4112                 0.8802                 1.5911
 IR Inten    --      6.8650                 3.0292                 3.1142

                     13                     14                     15
                      A                      A                      A
 Frequencies --    566.7438               627.2547               635.2064
 Red. masses --      3.9617                 7.0832                 4.5056
 Frc consts  --      0.7497                 1.6420                 1.0711
 IR Inten    --      0.0000                 0.4558                16.1497

                     16                     17                     18
                      A                      A                      A
 Frequencies --    653.4963               711.2287               712.7050
 Red. masses --      6.7223                 1.3520                 1.4198
 Frc consts  --      1.6914                 0.4030                 0.4249
 IR Inten    --      2.4182               134.6617                 0.0236

                     19                     20                     21
                      A                      A                      A
 Frequencies --    727.5971               746.9337               762.3588
 Red. masses --      5.6446                 3.5609                 3.6953
 Frc consts  --      1.7606                 1.1705                 1.2654
 IR Inten    --      0.2260                 0.0005                 6.4045

                     22                     23                     24
                      A                      A                      A
 Frequencies --    788.1028               827.5593               830.5774
 Red. masses --      6.0702                 1.3990                 1.4419
 Frc consts  --      2.2214                 0.5645                 0.5861
 IR Inten    --      1.1040                 0.0007                 2.2644

                     25                     26                     27
                      A                      A                      A
 Frequencies --    904.6100               909.9169               921.5935
 Red. masses --      1.3411                 1.3115                 6.8805
 Frc consts  --      0.6466                 0.6397                 3.4431
 IR Inten    --      0.0029                 4.4361                 1.4073

                     28                     29                     30
                      A                      A                      A
 Frequencies --    941.8402               944.3236               998.6991
 Red. masses --      1.2678                 1.2769                 6.1720
 Frc consts  --      0.6626                 0.6709                 3.6270
 IR Inten    --      0.0089                 1.6033               104.0882

                     31                     32                     33
                      A                      A                      A
 Frequencies --   1018.0170              1027.2774              1094.0403
 Red. masses --      2.2046                 1.8892                 2.4406
 Frc consts  --      1.3461                 1.1746                 1.7211
 IR Inten    --      8.0840                 7.5916                 8.1001

                     34                     35                     36
                      A                      A                      A
 Frequencies --   1100.2964              1145.7888              1157.7165
 Red. masses --      1.8723                 1.3790                 1.1614
 Frc consts  --      1.3355                 1.0666                 0.9172
 IR Inten    --     32.0980                 6.7601                 1.5591

                     37                     38                     39
                      A                      A                      A
 Frequencies --   1176.2496              1213.5973              1229.8989
 Red. masses --      1.7085                 2.3280                 2.7445
 Frc consts  --      1.3927                 2.0202                 2.4459
 IR Inten    --      0.4416                51.0108                 1.9771

                     40                     41                     42
                      A                      A                      A
 Frequencies --   1300.9520              1315.1141              1347.6597
 Red. masses --      1.8722                 2.0849                 5.0129
 Frc consts  --      1.8670                 2.1246                 5.3641
 IR Inten    --      8.9486                16.9980                50.1803

                     43                     44                     45
                      A                      A                      A
 Frequencies --   1376.8848              1433.9501              1462.0989
 Red. masses --      3.5355                 3.0519                 2.3467
 Frc consts  --      3.9491                 3.6973                 2.9557
 IR Inten    --      4.6090                72.9205                18.2417

                     46                     47                     48
                      A                      A                      A
 Frequencies --   1478.8688              1481.5399              1561.3084
 Red. masses --      2.7795                 2.6743                 5.1058
 Frc consts  --      3.5816                 3.4585                 7.3331
 IR Inten    --     25.4294                12.4651                88.2148

                     49                     50                     51
                      A                      A                      A
 Frequencies --   1566.8369              1583.9396              1588.5986
 Red. masses --      5.6947                 9.2552                 5.8035
 Frc consts  --      8.2370                13.6809                 8.6291
 IR Inten    --     57.0021               202.4111                94.9990

                     52                     53                     54
                      A                      A                      A
 Frequencies --   1604.5674              3122.7314              3124.4781
 Red. masses --      5.9225                 1.0832                 1.0829
 Frc consts  --      8.9841                 6.2236                 6.2289
 IR Inten    --     17.2972                 2.1842                 0.0184

                     55                     56                     57
                      A                      A                      A
 Frequencies --   3132.0036              3134.7046              3152.7905
 Red. masses --      1.0877                 1.0879                 1.0922
 Frc consts  --      6.2863                 6.2987                 6.3963
 IR Inten    --     34.2743                27.4793                22.6912

                     58                     59                     60
                      A                      A                      A
 Frequencies --   3153.6353              3162.8918              3163.9077
 Red. masses --      1.0922                 1.0942                 1.0944
 Frc consts  --      6.3997                 6.4496                 6.4546
 IR Inten    --    103.4043               108.0898                 2.0813

 - Thermochemistry -
 -------------------
 Temperature   298.150 Kelvin.  Pressure   1.00000 Atm.
 Atom     1 has atomic number  8 and mass  15.99491

 Molecular mass:   180.05751 amu.
 Principal axes and moments of inertia in atomic units:
                           1         2         3
     Eigenvalues --  1268.988963078.673794347.66273
           X            0.99813   0.03146  -0.05239
           Y           -0.04524   0.95673  -0.28744
           Z            0.04108   0.28928   0.95636
 This molecule is an asymmetric top.
 Rotational symmetry number  1.
 Warning -- assumption of classical behavior for rotation
           may cause significant error
 Rotational temperatures (Kelvin)      0.06825     0.02813     0.01992
 Rotational constants (GHZ):           1.42219     0.58621     0.41511
 Zero-point vibrational energy     433773.5 (Joules/Mol)
                                  103.67435 (Kcal/Mol)
 Warning -- explicit consideration of  13 degrees of freedom as
           vibrations may cause significant error
 Vibrational temperatures:    140.64   193.70   236.00   296.92   393.52
          (Kelvin)            393.94   562.38   603.98   609.83   628.51
                              738.47   810.72   815.42   902.48   913.92
                              940.24  1023.30  1025.42  1046.85  1074.67
                             1096.86  1133.90  1190.67  1195.02  1301.53
                             1309.17  1325.97  1355.10  1358.67  1436.91
                             1464.70  1478.02  1574.08  1583.08  1648.53
                             1665.70  1692.36  1746.10  1769.55  1871.78
                             1892.16  1938.98  1981.03  2063.13  2103.63
                             2127.76  2131.61  2246.37  2254.33  2278.94
                             2285.64  2308.61  4492.91  4495.43  4506.25
                             4510.14  4536.16  4537.38  4550.70  4552.16

 Zero-point correction=                           0.165216 (Hartree/Particle)
 Thermal correction to Energy=                    0.174998
 Thermal correction to Enthalpy=                  0.175943
 Thermal correction to Gibbs Free Energy=         0.129398
 Sum of electronic and zero-point Energies=           -575.459721
 Sum of electronic and thermal Energies=              -575.449938
 Sum of electronic and thermal Enthalpies=            -575.448994
 Sum of electronic and thermal Free Energies=         -575.495539

                     E (Thermal)             CV                S
                      KCal/Mol        Cal/Mol-Kelvin    Cal/Mol-Kelvin
 Total                  109.813             40.952             97.962
 Electronic               0.000              0.000              1.377
 Translational            0.889              2.981             41.471
 Rotational               0.889              2.981             31.208
 Vibrational            108.036             34.991             23.906
 Vibration     1          0.603              1.951              3.499
 Vibration     2          0.613              1.919              2.879
 Vibration     3          0.623              1.887              2.503
 Vibration     4          0.641              1.831              2.076
 Vibration     5          0.676              1.722              1.574
 Vibration     6          0.676              1.722              1.572
 Vibration     7          0.759              1.490              0.997
 Vibration     8          0.782              1.427              0.893
 Vibration     9          0.786              1.418              0.879
 Vibration    10          0.797              1.390              0.837
 Vibration    11          0.868              1.221              0.626
 Vibration    12          0.919              1.110              0.517
 Vibration    13          0.923              1.103              0.511

                           ! Non-Optimized Parameters !
 Normal termination of Gaussian 16 at Sat Jan  6 02:29:13 2024.
