 Gaussian 16, Revision A.03,
 Gaussian 16:  ES64L-G16RevA.03 25-Dec-2016

 ----------------------------------------------------------------------
 #P UB3LYP/6-311++G(d,p) nosym opt freq SCRF=(PCM,Solvent=n,n-DiMethylF
 ormamide)
 ----------------------------------------------------------------------

 --------
 Oxidized
 --------
 Symbolic Z-matrix:
 Charge =  0 Multiplicity = 1

 SCF Done:  E(UB3LYP) =  -878.770180829     A.U. after   15 cycles
 SCF Done:  E(UB3LYP) =  -878.770336059     A.U. after   12 cycles
 SCF Done:  E(UB3LYP) =  -878.770381652     A.U. after   12 cycles
 SCF Done:  E(UB3LYP) =  -878.770400376     A.U. after   11 cycles
 SCF Done:  E(UB3LYP) =  -878.770398883     A.U. after   11 cycles
 SCF Done:  E(UB3LYP) =  -878.770406415     A.U. after   10 cycles
 SCF Done:  E(UB3LYP) =  -878.770408068     A.U. after    9 cycles
 SCF Done:  E(UB3LYP) =  -878.770408093     A.U. after    8 cycles
 SCF Done:  E(UB3LYP) =  -878.770408182     A.U. after    8 cycles
 SCF Done:  E(UB3LYP) =  -878.770408240     A.U. after    9 cycles
 SCF Done:  E(UB3LYP) =  -878.770408241     A.U. after    8 cycles
 Optimization completed.
    -- Stationary point found.
 Normal termination of Gaussian 16 at Sat Feb 10 17:04:54 2024.

 ----------------------------------------------------------------------
 #P Geom=AllCheck Guess=TCheck SCRF=Check GenChk UB3LYP/6-311++G(d,p) F
 req
 ----------------------------------------------------------------------

 Structure from the checkpoint file:  "179.chk"
 --------
 Oxidized
 --------
 Charge =  0 Multiplicity = 1

                          Input orientation:
 ---------------------------------------------------------------------
 Center     Atomic      Atomic             Coordinates (Angstroms)
 Number     Number       Type             X           Y           Z
 ---------------------------------------------------------------------
      1          6           0       -3.448422   -2.741215   -0.361744
      2          8           0       -2.139754   -2.177044   -0.204831
      3          6           0       -1.985211   -0.837725   -0.203157
      4          6           0       -3.087109    0.031570   -0.361837
      5          6           0       -2.929206    1.397507   -0.360030
      6          6           0       -1.658233    1.968105   -0.200507
      7          8           0       -1.577908    3.309819   -0.208312
      8          6           0       -0.535591    1.128182   -0.041616
      9          6           0        0.781592    1.755394    0.119798
     10          8           0        0.906898    2.994844    0.120193
     11          6           0        1.969135    0.896915    0.280879
     12          6           0        3.233879    1.480731    0.427227
     13          6           0        4.357610    0.678701    0.577979
     14          6           0        4.225208   -0.713388    0.584107
     15          6           0        2.971803   -1.297496    0.440262
     16          6           0        1.833238   -0.499535    0.287222
     17          6           0        0.500036   -1.163096    0.135130
     18          8           0        0.440988   -2.387350    0.161292
     19          6           0       -0.692435   -0.294613   -0.040089
     20          1           0       -3.299336   -3.818025   -0.327472
     21          1           0       -4.110125   -2.438814    0.453803
     22          1           0       -3.886642   -2.464550   -1.323872
     23          1           0       -4.080198   -0.374441   -0.487831
     24          1           0       -3.782536    2.053439   -0.481757
     25          1           0       -0.619258    3.533870   -0.085806
     26          1           0        3.317177    2.559775    0.420192
     27          1           0        5.335403    1.131868    0.690443
     28          1           0        5.101768   -1.339822    0.701296
     29          1           0        2.857226   -2.373607    0.443946
 ---------------------------------------------------------------------

 SCF Done:  E(UB3LYP) =  -878.770408241     A.U. after    1 cycles

 Alpha  occ. eigenvalues --  -19.17269 -19.16085 -19.14006 -19.12190 -10.28968
 Alpha  occ. eigenvalues --  -10.28036 -10.26738 -10.26543 -10.23008 -10.21365
 Alpha  occ. eigenvalues --  -10.21304 -10.20923 -10.20849 -10.20510 -10.20186
 Alpha  occ. eigenvalues --  -10.19932 -10.19914 -10.19811 -10.19667  -1.09178
 Alpha  occ. eigenvalues --   -1.09048  -1.05920  -1.05500  -0.89459  -0.88020
 Alpha  occ. eigenvalues --   -0.81784  -0.78436  -0.77812  -0.77370  -0.71856
 Alpha  occ. eigenvalues --   -0.69818  -0.66796  -0.65640  -0.61681  -0.60082
 Alpha  occ. eigenvalues --   -0.56910  -0.56395  -0.54755  -0.52647  -0.50509
 Alpha  occ. eigenvalues --   -0.49755  -0.48918  -0.48646  -0.46597  -0.46143
 Alpha  occ. eigenvalues --   -0.46126  -0.45233  -0.44755  -0.44086  -0.43091
 Alpha  occ. eigenvalues --   -0.42718  -0.41623  -0.41374  -0.39091  -0.38435
 Alpha  occ. eigenvalues --   -0.38298  -0.37350  -0.36918  -0.35501  -0.32541
 Alpha  occ. eigenvalues --   -0.29414  -0.29326  -0.27982  -0.27881  -0.26763
 Alpha  occ. eigenvalues --   -0.23331
 Alpha virt. eigenvalues --   -0.12145  -0.06995  -0.04130  -0.01599  -0.00709
 Alpha virt. eigenvalues --   -0.00051   0.00682   0.01419   0.01834   0.02953
 Alpha virt. eigenvalues --    0.03212   0.03275   0.03543   0.03701   0.04036

  Beta  occ. eigenvalues --  -19.17269 -19.16085 -19.14006 -19.12190 -10.28968
  Beta  occ. eigenvalues --  -10.28036 -10.26738 -10.26543 -10.23008 -10.21365
  Beta  occ. eigenvalues --  -10.21304 -10.20923 -10.20849 -10.20510 -10.20186
  Beta  occ. eigenvalues --  -10.19932 -10.19914 -10.19811 -10.19667  -1.09178
  Beta  occ. eigenvalues --   -1.09048  -1.05920  -1.05500  -0.89459  -0.88020
  Beta  occ. eigenvalues --   -0.81784  -0.78436  -0.77812  -0.77370  -0.71856
  Beta  occ. eigenvalues --   -0.69818  -0.66796  -0.65640  -0.61681  -0.60082
  Beta  occ. eigenvalues --   -0.56910  -0.56395  -0.54755  -0.52647  -0.50509
  Beta  occ. eigenvalues --   -0.49755  -0.48918  -0.48646  -0.46597  -0.46143
  Beta  occ. eigenvalues --   -0.46126  -0.45233  -0.44755  -0.44086  -0.43091
  Beta  occ. eigenvalues --   -0.42718  -0.41623  -0.41374  -0.39091  -0.38435
  Beta  occ. eigenvalues --   -0.38298  -0.37350  -0.36918  -0.35501  -0.32541
  Beta  occ. eigenvalues --   -0.29414  -0.29326  -0.27982  -0.27881  -0.26763
  Beta  occ. eigenvalues --   -0.23331
  Beta virt. eigenvalues --   -0.12145  -0.06995  -0.04130  -0.01599  -0.00709
  Beta virt. eigenvalues --   -0.00051   0.00682   0.01419   0.01834   0.02953
  Beta virt. eigenvalues --    0.03212   0.03275   0.03543   0.03701   0.04036

 Mulliken charges and spin densities:
               1          2
     1  C   -0.294960  -0.000000
     2  O   -0.135400  -0.000000
     3  C   -0.395293   0.000000
     4  C   -0.185525   0.000000
     5  C   -0.078039  -0.000000
     6  C   -0.188837   0.000000
     7  O   -0.337945  -0.000000
     8  C    0.845985  -0.000000
     9  C   -0.275321  -0.000000
    10  O   -0.318926  -0.000000
    11  C    0.088165   0.000000
    12  C    0.161746  -0.000000
    13  C   -0.505349   0.000000
    14  C   -0.459729   0.000000
    15  C    0.172624  -0.000000
    16  C   -0.031613   0.000000
    17  C   -0.261913   0.000000
    18  O   -0.299368  -0.000000
    19  C    0.350434  -0.000000
    20  H    0.205204  -0.000000
    21  H    0.168839   0.000000
    22  H    0.167262   0.000000
    23  H    0.234898  -0.000000
    24  H    0.229749  -0.000000
    25  H    0.357646   0.000000
    26  H    0.191146   0.000000
    27  H    0.204479  -0.000000
    28  H    0.208872   0.000000
    29  H    0.181173  -0.000000
 Sum of Mulliken charges =  -0.00000  -0.00000

 Dipole moment (field-independent basis, Debye):
    X=             -1.5777    Y=             -1.3942    Z=             -0.2470  Tot=              2.1199
 Quadrupole moment (field-independent basis, Debye-Ang):
   XX=            -69.3223   YY=           -123.7950   ZZ=           -110.5982
   XY=              9.3452   XZ=              5.0996   YZ=              1.4230

  Exact polarizability: 411.610  -2.240 321.039  36.463  -3.489 131.864
 Approx polarizability: 445.895  -6.510 407.526  38.127  -5.091 154.708

                      1                      2                      3
                      A                      A                      A
 Frequencies --     26.5639                57.7745                94.5172
 Red. masses --      6.6913                 4.9382                 4.1372
 Frc consts  --      0.0028                 0.0097                 0.0218
 IR Inten    --     12.0737                 0.0907                 0.9213

                      4                      5                      6
                      A                      A                      A
 Frequencies --    112.9678               137.4234               170.3776
 Red. masses --      4.8302                 5.0428                 7.0843
 Frc consts  --      0.0363                 0.0561                 0.1212
 IR Inten    --      0.3321                 2.5110                 1.8863

                      7                      8                      9
                      A                      A                      A
 Frequencies --    173.1360               241.4214               253.0492
 Red. masses --      4.4574                 5.4037                 1.2133
 Frc consts  --      0.0787                 0.1856                 0.0458
 IR Inten    --      3.5335                 1.4700                 0.6431

                     10                     11                     12
                      A                      A                      A
 Frequencies --    257.5341               318.6729               335.8510
 Red. masses --      4.2162                 4.9147                 6.2617
 Frc consts  --      0.1648                 0.2941                 0.4161
 IR Inten    --      2.5697                 5.6727                 4.1138

                     13                     14                     15
                      A                      A                      A
 Frequencies --    368.9018               373.8922               421.5964
 Red. masses --      4.7760                11.3810                 3.4172
 Frc consts  --      0.3829                 0.9374                 0.3579
 IR Inten    --      0.5113                 3.9582                 1.9560

                     16                     17                     18
                      A                      A                      A
 Frequencies --    421.8357               435.0983               441.4779
 Red. masses --      6.9771                 5.7533                11.2970
 Frc consts  --      0.7315                 0.6417                 1.2973
 IR Inten    --     24.4185                 0.4425                36.6638

                     19                     20                     21
                      A                      A                      A
 Frequencies --    454.5616               498.3443               512.6149
 Red. masses --      9.3386                 4.8162                 6.9947
 Frc consts  --      1.1369                 0.7047                 1.0829
 IR Inten    --      0.5124                 0.0416                 9.5470

                     22                     23                     24
                      A                      A                      A
 Frequencies --    545.6896               585.0772               628.1200
 Red. masses --      7.0318                 3.2615                 5.3080
 Frc consts  --      1.2337                 0.6578                 1.2339
 IR Inten    --      1.3609                27.9756                 2.5320

                     25                     26                     27
                      A                      A                      A
 Frequencies --    666.9191               669.8382               713.3793
 Red. masses --      6.5723                 5.0819                 6.4041
 Frc consts  --      1.7223                 1.3434                 1.9202
 IR Inten    --     26.9851                 0.8063                28.3666

                     28                     29                     30
                      A                      A                      A
 Frequencies --    730.5890               737.8014               755.2432
 Red. masses --      3.0467                 3.0350                 6.9783
 Frc consts  --      0.9581                 0.9734                 2.3452
 IR Inten    --     28.6499                20.5661                15.9617

                     31                     32                     33
                      A                      A                      A
 Frequencies --    793.1498               798.7214               817.0948
 Red. masses --      1.4427                 2.3333                 2.1729
 Frc consts  --      0.5347                 0.8770                 0.8547
 IR Inten    --    179.1690                60.3874                 2.0454

                     34                     35                     36
                      A                      A                      A
 Frequencies --    845.5700               864.1494               894.1531
 Red. masses --      1.7258                 7.3578                 8.3170
 Frc consts  --      0.7270                 3.2373                 3.9178
 IR Inten    --     36.7527                47.4611                69.6975

                     37                     38                     39
                      A                      A                      A
 Frequencies --    912.6759               948.2375               969.9673
 Red. masses --      1.3961                 6.1235                 1.3174
 Frc consts  --      0.6852                 3.2440                 0.7303
 IR Inten    --      0.0336                38.0315                 0.0113

                     40                     41                     42
                      A                      A                      A
 Frequencies --   1002.3286              1023.1660              1027.3175
 Red. masses --      1.3817                 1.3272                 6.8558
 Frc consts  --      0.8179                 0.8186                 4.2630
 IR Inten    --      1.7939                 0.0593               347.5427

                     43                     44                     45
                      A                      A                      A
 Frequencies --   1055.4201              1105.8752              1115.5130
 Red. masses --      2.3964                 3.0767                 2.4709
 Frc consts  --      1.5728                 2.2169                 1.8116
 IR Inten    --     26.8689                54.5210                21.8015

                     46                     47                     48
                      A                      A                      A
 Frequencies --   1162.4237              1177.7085              1183.1888
 Red. masses --      1.2688                 1.1835                 2.0710
 Frc consts  --      1.0102                 0.9672                 1.7082
 IR Inten    --      1.2846                 0.3244                10.2580

                     49                     50                     51
                      A                      A                      A
 Frequencies --   1186.5063              1197.4500              1247.6421
 Red. masses --      1.3790                 1.5551                 3.1189
 Frc consts  --      1.1438                 1.3138                 2.8604
 IR Inten    --     96.5195               304.3182               938.0772

                     52                     53                     54
                      A                      A                      A
 Frequencies --   1251.6293              1282.4736              1297.0775
 Red. masses --      2.0893                 2.4752                 3.5123
 Frc consts  --      1.9285                 2.3986                 3.4815
 IR Inten    --    382.4193               545.0259                42.2526

                     55                     56                     57
                      A                      A                      A
 Frequencies --   1323.2290              1357.7714              1371.0431
 Red. masses --      2.9548                 6.9061                 4.2499
 Frc consts  --      3.0483                 7.5013                 4.7069
 IR Inten    --     24.9057                57.2023               507.2272

                     58                     59                     60
                      A                      A                      A
 Frequencies --   1390.0657              1445.2204              1468.3945
 Red. masses --      5.2368                 4.8855                 1.4176
 Frc consts  --      5.9619                 6.0121                 1.8008
 IR Inten    --     77.6977               111.0647               307.4587

                     61                     62                     63
                      A                      A                      A
 Frequencies --   1483.0931              1489.9431              1493.8218
 Red. masses --      2.4023                 1.0445                 1.4772
 Frc consts  --      3.1132                 1.3662                 1.9422
 IR Inten    --      2.6940                15.1408               249.1737

                     64                     65                     66
                      A                      A                      A
 Frequencies --   1498.1599              1507.3916              1588.8815
 Red. masses --      1.1731                 2.6209                 8.4657
 Frc consts  --      1.5514                 3.5088                12.5921
 IR Inten    --     20.9753                29.2115                75.1081

                     67                     68                     69
                      A                      A                      A
 Frequencies --   1612.5584              1615.8944              1620.1880
 Red. masses --      3.8742                 4.7289                 6.1469
 Frc consts  --      5.9355                 7.2751                 9.5068
 IR Inten    --    144.9637                97.0943               359.8706

                     70                     71                     72
                      A                      A                      A
 Frequencies --   1657.6197              1689.4376              3026.5183
 Red. masses --      7.8306                10.6391                 1.0327
 Frc consts  --     12.6769                17.8911                 5.5734
 IR Inten    --    389.0414               295.9342                95.6772

                     73                     74                     75
                      A                      A                      A
 Frequencies --   3096.8581              3149.0955              3178.4529
 Red. masses --      1.1077                 1.1017                 1.0876
 Frc consts  --      6.2593                 6.4372                 6.4738
 IR Inten    --     37.1854                21.8647                 3.9034

                     76                     77                     78
                      A                      A                      A
 Frequencies --   3191.3178              3195.2335              3206.3998
 Red. masses --      1.0921                 1.0909                 1.0923
 Frc consts  --      6.5531                 6.5620                 6.6166
 IR Inten    --     16.6674                 5.0468                 3.6635

                     79                     80                     81
                      A                      A                      A
 Frequencies --   3209.0410              3225.8599              3236.2449
 Red. masses --      1.0947                 1.0921                 1.0689
 Frc consts  --      6.6418                 6.6957                 6.5961
 IR Inten    --     19.2109                10.8166               447.7593

 - Thermochemistry -
 -------------------
 Temperature   298.150 Kelvin.  Pressure   1.00000 Atm.
 Atom     1 has atomic number  6 and mass  12.00000

 Molecular mass:   254.05791 amu.
 Principal axes and moments of inertia in atomic units:
                           1         2         3
     Eigenvalues --  2967.084755492.984078448.37095
           X            0.98065  -0.14906  -0.12693
           Y            0.15223   0.98822   0.01557
           Z            0.12312  -0.03459   0.99179
 This molecule is an asymmetric top.
 Rotational symmetry number  1.
 Warning -- assumption of classical behavior for rotation
           may cause significant error
 Rotational temperatures (Kelvin)      0.02919     0.01577     0.01025
 Rotational constants (GHZ):           0.60825     0.32855     0.21362
 Zero-point vibrational energy     565997.8 (Joules/Mol)
                                  135.27672 (Kcal/Mol)
 Warning -- explicit consideration of  23 degrees of freedom as
           vibrations may cause significant error
 Vibrational temperatures:     38.22    83.12   135.99   162.54   197.72
          (Kelvin)            245.14   249.10   347.35   364.08   370.53
                              458.50   483.21   530.77   537.95   606.58
                              606.93   626.01   635.19   654.01   717.01
                              737.54   785.13   841.80   903.72   959.55
                              963.75  1026.39  1051.15  1061.53  1086.63
                             1141.17  1149.18  1175.62  1216.59  1243.32
                             1286.49  1313.14  1364.30  1395.57  1442.13
                             1472.11  1478.08  1518.51  1591.11  1604.97
                             1672.47  1694.46  1702.34  1707.12  1722.86
                             1795.08  1800.82  1845.19  1866.21  1903.83
                             1953.53  1972.63  1999.99  2079.35  2112.69
                             2133.84  2143.70  2149.28  2155.52  2168.80
                             2286.05  2320.11  2324.91  2331.09  2384.95
                             2430.72  4354.48  4455.69  4530.85  4573.08
                             4591.59  4597.23  4613.29  4617.09  4641.29
                             4656.23

 Zero-point correction=                           0.215577 (Hartree/Particle)
 Thermal correction to Energy=                    0.230303
 Thermal correction to Enthalpy=                  0.231247
 Thermal correction to Gibbs Free Energy=         0.173334
 Sum of electronic and zero-point Energies=           -878.554831
 Sum of electronic and thermal Energies=              -878.540106
 Sum of electronic and thermal Enthalpies=            -878.539162
 Sum of electronic and thermal Free Energies=         -878.597074

                     E (Thermal)             CV                S
                      KCal/Mol        Cal/Mol-Kelvin    Cal/Mol-Kelvin
 Total                  144.517             58.460            121.888
 Electronic               0.000              0.000              0.000
 Translational            0.889              2.981             42.497
 Rotational               0.889              2.981             33.287
 Vibrational            142.740             52.499             46.104
 Vibration     1          0.593              1.984              6.071
 Vibration     2          0.596              1.974              4.532
 Vibration     3          0.603              1.953              3.564
 Vibration     4          0.607              1.939              3.217
 Vibration     5          0.614              1.916              2.839
 Vibration     6          0.625              1.879              2.431
 Vibration     7          0.627              1.876              2.401
 Vibration     8          0.658              1.777              1.792
 Vibration     9          0.664              1.758              1.709
 Vibration    10          0.667              1.750              1.678
 Vibration    11          0.705              1.638              1.317
 Vibration    12          0.717              1.604              1.232
 Vibration    13          0.741              1.536              1.084
 Vibration    14          0.745              1.526              1.064
 Vibration    15          0.784              1.423              0.887
 Vibration    16          0.784              1.423              0.886
 Vibration    17          0.796              1.394              0.842
 Vibration    18          0.801              1.380              0.822
 Vibration    19          0.813              1.351              0.782
 Vibration    20          0.854              1.254              0.662
 Vibration    21          0.868              1.222              0.627
 Vibration    22          0.901              1.149              0.553
 Vibration    23          0.942              1.064              0.476

                           ! Non-Optimized Parameters !
 Normal termination of Gaussian 16 at Sat Feb 10 18:14:46 2024.
