 Gaussian 16, Revision A.03,
 Gaussian 16:  ES64L-G16RevA.03 25-Dec-2016

 --------------------------------------
 #P UB3LYP/6-311++G(d,p) nosym opt freq
 --------------------------------------

 -------
 Reduced
 -------
 Symbolic Z-matrix:
 Charge = -2 Multiplicity = 1

 SCF Done:  E(UB3LYP) =  -1144.74942798     A.U. after   37 cycles
 SCF Done:  E(UB3LYP) =  -1144.79490499     A.U. after   29 cycles
 SCF Done:  E(UB3LYP) =  -1144.81833280     A.U. after   28 cycles
 SCF Done:  E(UB3LYP) =  -1144.82355879     A.U. after   24 cycles
 SCF Done:  E(UB3LYP) =  -1144.82582126     A.U. after   20 cycles
 SCF Done:  E(UB3LYP) =  -1144.82225966     A.U. after   16 cycles
 SCF Done:  E(UB3LYP) =  -1144.82498530     A.U. after   18 cycles
 SCF Done:  E(UB3LYP) =  -1144.82666387     A.U. after   18 cycles
 SCF Done:  E(UB3LYP) =  -1144.82752880     A.U. after   19 cycles
 SCF Done:  E(UB3LYP) =  -1144.82803922     A.U. after   18 cycles
 SCF Done:  E(UB3LYP) =  -1144.82911938     A.U. after   16 cycles
 SCF Done:  E(UB3LYP) =  -1144.82912562     A.U. after   18 cycles
 SCF Done:  E(UB3LYP) =  -1144.82912774     A.U. after   18 cycles
 SCF Done:  E(UB3LYP) =  -1144.82912903     A.U. after   17 cycles
 SCF Done:  E(UB3LYP) =  -1144.82913348     A.U. after   18 cycles
 SCF Done:  E(UB3LYP) =  -1144.82913488     A.U. after   16 cycles
 SCF Done:  E(UB3LYP) =  -1144.82913579     A.U. after   15 cycles
 SCF Done:  E(UB3LYP) =  -1144.82913651     A.U. after   12 cycles
 SCF Done:  E(UB3LYP) =  -1144.82913659     A.U. after   12 cycles
 Optimization completed.
    -- Stationary point found.
 Normal termination of Gaussian 16 at Thu Dec 21 16:21:42 2023.

 ----------------------------------------------------------------------
 #P Geom=AllCheck Guess=TCheck SCRF=Check GenChk UB3LYP/6-311++G(d,p) F
 req
 ----------------------------------------------------------------------

 Structure from the checkpoint file:  "146-an.chk"
 -------
 Reduced
 -------
 Charge = -2 Multiplicity = 1

                          Input orientation:
 ---------------------------------------------------------------------
 Center     Atomic      Atomic             Coordinates (Angstroms)
 Number     Number       Type             X           Y           Z
 ---------------------------------------------------------------------
      1          6           0        2.135821    3.014012    1.235831
      2          6           0        2.059532    1.544168    1.579347
      3          8           0        1.701721    1.108664    2.649310
      4          8           0        2.768325    0.813643    0.659079
      5          6           0        2.459918   -0.547223    0.513644
      6          6           0        3.505460   -1.417726    0.700220
      7          6           0        3.316170   -2.807255    0.475834
      8          6           0        2.080650   -3.257356    0.074500
      9          6           0        0.987288   -2.378572   -0.133122
     10          6           0       -0.259252   -2.949029   -0.591326
     11          8           0       -0.412740   -4.208934   -0.778408
     12          6           0       -1.311066   -1.991638   -0.850749
     13          6           0       -2.536723   -2.487152   -1.361188
     14          6           0       -3.590133   -1.662817   -1.679017
     15          6           0       -3.446035   -0.262556   -1.489574
     16          6           0       -2.272941    0.240516   -0.986679
     17          8           0       -2.188017    1.649669   -0.945127
     18          6           0       -2.197965    2.282523    0.251216
     19          6           0       -1.625692    3.670780    0.093587
     20          8           0       -2.692209    1.846213    1.262259
     21          6           0       -1.140583   -0.559381   -0.631225
     22          6           0        0.088014   -0.004892   -0.122386
     23          8           0        0.233298    1.269483    0.128055
     24          6           0        1.154334   -0.950950    0.089682
     25          1           0        1.930079    3.156256    0.176840
     26          1           0        1.410558    3.556337    1.841452
     27          1           0        3.144338    3.382018    1.466739
     28          1           0        4.462745   -1.016174    1.017643
     29          1           0        4.142189   -3.498692    0.626544
     30          1           0        1.886077   -4.308405   -0.110592
     31          1           0       -2.590961   -3.562401   -1.495219
     32          1           0       -4.520735   -2.065947   -2.071431
     33          1           0       -4.243610    0.430754   -1.737638
     34          1           0       -1.753148    4.231121    1.020034
     35          1           0       -0.567966    3.550155   -0.142763
     36          1           0       -2.116741    4.190786   -0.735373
 ---------------------------------------------------------------------

 SCF Done:  E(UB3LYP) =  -1144.82913659     A.U. after    2 cycles

 Alpha  occ. eigenvalues --  -18.93938 -18.92789 -18.89035 -18.87518 -18.79862
 Alpha  occ. eigenvalues --  -18.78881 -10.08744 -10.07884  -9.99843  -9.99545
 Alpha  occ. eigenvalues --   -9.97306  -9.96638  -9.95727  -9.95074  -9.93892
 Alpha  occ. eigenvalues --   -9.93840  -9.93775  -9.93555  -9.92840  -9.92757
 Alpha  occ. eigenvalues --   -9.92663  -9.92569  -9.91678  -9.91615  -0.88315
 Alpha  occ. eigenvalues --   -0.86985  -0.80301  -0.78991  -0.71125  -0.70718
 Alpha  occ. eigenvalues --   -0.61435  -0.60829  -0.55277  -0.54392  -0.53837
 Alpha  occ. eigenvalues --   -0.50444  -0.49993  -0.49490  -0.42776  -0.40990
 Alpha  occ. eigenvalues --   -0.40123  -0.38074  -0.36927  -0.31134  -0.30944
 Alpha  occ. eigenvalues --   -0.28363  -0.27833  -0.26905  -0.26217  -0.25533
 Alpha  occ. eigenvalues --   -0.25180  -0.24774  -0.24129  -0.23425  -0.22575
 Alpha  occ. eigenvalues --   -0.21526  -0.21176  -0.20851  -0.19748  -0.17912
 Alpha  occ. eigenvalues --   -0.17397  -0.17106  -0.16682  -0.15676  -0.15363
 Alpha  occ. eigenvalues --   -0.14734  -0.14353  -0.13171  -0.12395  -0.11706
 Alpha  occ. eigenvalues --   -0.10705  -0.10275  -0.08798  -0.08479  -0.08329
 Alpha  occ. eigenvalues --   -0.07348  -0.06180  -0.04978  -0.00919  -0.00419
 Alpha  occ. eigenvalues --    0.00102   0.00465   0.02239   0.03474   0.11695
 Alpha virt. eigenvalues --    0.14901   0.15736   0.16187   0.16402   0.17893
 Alpha virt. eigenvalues --    0.18560   0.18615   0.19100   0.19768   0.20583
 Alpha virt. eigenvalues --    0.20981   0.21499   0.21676   0.22332   0.22568

  Beta  occ. eigenvalues --  -18.93938 -18.92789 -18.89035 -18.87518 -18.79862
  Beta  occ. eigenvalues --  -18.78881 -10.08744 -10.07884  -9.99843  -9.99545
  Beta  occ. eigenvalues --   -9.97306  -9.96638  -9.95727  -9.95074  -9.93892
  Beta  occ. eigenvalues --   -9.93840  -9.93775  -9.93555  -9.92840  -9.92757
  Beta  occ. eigenvalues --   -9.92663  -9.92569  -9.91678  -9.91615  -0.88315
  Beta  occ. eigenvalues --   -0.86985  -0.80301  -0.78991  -0.71125  -0.70718
  Beta  occ. eigenvalues --   -0.61435  -0.60829  -0.55277  -0.54392  -0.53837
  Beta  occ. eigenvalues --   -0.50444  -0.49993  -0.49490  -0.42776  -0.40990
  Beta  occ. eigenvalues --   -0.40123  -0.38074  -0.36927  -0.31134  -0.30944
  Beta  occ. eigenvalues --   -0.28363  -0.27833  -0.26905  -0.26217  -0.25533
  Beta  occ. eigenvalues --   -0.25180  -0.24774  -0.24129  -0.23425  -0.22575
  Beta  occ. eigenvalues --   -0.21526  -0.21176  -0.20851  -0.19748  -0.17912
  Beta  occ. eigenvalues --   -0.17397  -0.17106  -0.16682  -0.15676  -0.15363
  Beta  occ. eigenvalues --   -0.14734  -0.14353  -0.13171  -0.12395  -0.11706
  Beta  occ. eigenvalues --   -0.10705  -0.10275  -0.08798  -0.08479  -0.08329
  Beta  occ. eigenvalues --   -0.07348  -0.06180  -0.04978  -0.00919  -0.00419
  Beta  occ. eigenvalues --    0.00102   0.00465   0.02239   0.03474   0.11695
  Beta virt. eigenvalues --    0.14901   0.15736   0.16187   0.16402   0.17893
  Beta virt. eigenvalues --    0.18560   0.18615   0.19100   0.19768   0.20583
  Beta virt. eigenvalues --    0.20981   0.21499   0.21676   0.22332   0.22568

 Mulliken charges and spin densities:
               1          2
     1  C   -0.410397  -0.000000
     2  C   -0.235497   0.000000
     3  O   -0.197565  -0.000000
     4  O    0.009743  -0.000000
     5  C   -0.184067  -0.000000
     6  C   -0.053347   0.000000
     7  C   -0.461772   0.000000
     8  C   -0.162355   0.000000
     9  C    0.522769   0.000000
    10  C   -0.978038  -0.000000
    11  O   -0.491542   0.000000
    12  C    0.503647  -0.000000
    13  C   -0.198104   0.000000
    14  C   -0.453400   0.000000
    15  C    0.095914  -0.000000
    16  C   -0.364553   0.000000
    17  O    0.034629   0.000000
    18  C   -0.175668  -0.000000
    19  C   -0.358156   0.000000
    20  O   -0.204718   0.000000
    21  C    0.453155   0.000000
    22  C   -0.325786  -0.000000
    23  O   -0.418421   0.000000
    24  C    0.523148  -0.000000
    25  H    0.198922   0.000000
    26  H    0.143734   0.000000
    27  H    0.109322  -0.000000
    28  H    0.096952   0.000000
    29  H    0.087745   0.000000
    30  H    0.136886   0.000000
    31  H    0.137353  -0.000000
    32  H    0.089632   0.000000
    33  H    0.094557  -0.000000
    34  H    0.113482   0.000000
    35  H    0.206086   0.000000
    36  H    0.115710  -0.000000
 Sum of Mulliken charges =  -2.00000   0.00000

 Dipole moment (field-independent basis, Debye):
    X=              1.5363    Y=             10.5030    Z=             -1.7249  Tot=             10.7540
 Quadrupole moment (field-independent basis, Debye-Ang):
   XX=           -191.5021   YY=           -212.3058   ZZ=           -172.8559
   XY=              1.7436   XZ=             -8.9672   YZ=            -16.0582

  Exact polarizability: 407.163 -18.688 348.492  80.853  31.942 202.053
 Approx polarizability: 706.358 -33.884 565.892 142.868  31.095 329.867

                      1                      2                      3
                      A                      A                      A
 Frequencies --     25.7453                33.6060                37.2306
 Red. masses --      5.1013                 4.1624                 5.9235
 Frc consts  --      0.0020                 0.0028                 0.0048
 IR Inten    --      0.7071                14.1198                 1.8501

                      4                      5                      6
                      A                      A                      A
 Frequencies --     60.3340                75.2719               103.8737
 Red. masses --      5.9528                 4.9503                 2.8793
 Frc consts  --      0.0128                 0.0165                 0.0183
 IR Inten    --      2.5660                 3.0783                 1.4165

                      7                      8                      9
                      A                      A                      A
 Frequencies --    112.2667               124.2955               129.9293
 Red. masses --      2.7606                 4.2933                 1.3246
 Frc consts  --      0.0205                 0.0391                 0.0132
 IR Inten    --      2.9130                 5.6607                 4.0766

                     10                     11                     12
                      A                      A                      A
 Frequencies --    140.3673               161.2869               185.8226
 Red. masses --      1.8056                 5.1522                 5.7860
 Frc consts  --      0.0210                 0.0790                 0.1177
 IR Inten    --      1.9611                 2.9519                 4.3930

                     13                     14                     15
                      A                      A                      A
 Frequencies --    217.3485               231.9543               269.1684
 Red. masses --      4.6857                 6.9626                 5.2038
 Frc consts  --      0.1304                 0.2207                 0.2221
 IR Inten    --      0.2208                 9.8564                 0.4618

                     16                     17                     18
                      A                      A                      A
 Frequencies --    285.1850               307.8533               317.4591
 Red. masses --      6.0034                 4.5991                 6.2607
 Frc consts  --      0.2877                 0.2568                 0.3717
 IR Inten    --      3.7965                 5.2809                 5.2391

                     19                     20                     21
                      A                      A                      A
 Frequencies --    330.5786               346.3970               371.7278
 Red. masses --      3.8107                 6.6369                 7.6229
 Frc consts  --      0.2454                 0.4692                 0.6206
 IR Inten    --      1.3985                 9.2413                10.7865

                     22                     23                     24
                      A                      A                      A
 Frequencies --    392.6162               400.3538               446.4828
 Red. masses --      7.9896                 7.3753                 6.6286
 Frc consts  --      0.7256                 0.6965                 0.7785
 IR Inten    --     11.5687                 0.8476                20.3598

                     25                     26                     27
                      A                      A                      A
 Frequencies --    474.5905               496.0148               501.5177
 Red. masses --      5.6172                 4.1464                 8.9849
 Frc consts  --      0.7454                 0.6010                 1.3315
 IR Inten    --      1.7799                 2.9227                 7.3074

                     28                     29                     30
                      A                      A                      A
 Frequencies --    521.9200               528.5761               547.6480
 Red. masses --      5.3029                 4.6787                 3.7244
 Frc consts  --      0.8511                 0.7702                 0.6581
 IR Inten    --     14.0378                14.2107                 2.3574

                     31                     32                     33
                      A                      A                      A
 Frequencies --    557.6632               564.4217               573.6995
 Red. masses --      4.6223                 4.9436                 5.3862
 Frc consts  --      0.8469                 0.9279                 1.0445
 IR Inten    --     24.2209                10.0321                 0.2166

                     34                     35                     36
                      A                      A                      A
 Frequencies --    610.1966               620.0976               667.0874
 Red. masses --      5.9021                 4.5535                 4.7729
 Frc consts  --      1.2948                 1.0316                 1.2514
 IR Inten    --     25.7391                 7.8410                12.7809

                     37                     38                     39
                      A                      A                      A
 Frequencies --    675.3517               697.9147               706.3994
 Red. masses --      3.2574                 6.0492                 1.7235
 Frc consts  --      0.8754                 1.7360                 0.5067
 IR Inten    --     35.5962                 5.5389                 4.0640

                     40                     41                     42
                      A                      A                      A
 Frequencies --    718.5894               749.5984               761.9360
 Red. masses --      2.0611                 3.3917                 3.0400
 Frc consts  --      0.6271                 1.1229                 1.0398
 IR Inten    --     51.6569                19.4309                 1.3188

                     43                     44                     45
                      A                      A                      A
 Frequencies --    786.7131               803.7975               818.5256
 Red. masses --      4.5373                 2.3395                 5.8218
 Frc consts  --      1.6545                 0.8906                 2.2981
 IR Inten    --      7.0922                10.2337                 1.5222

                     46                     47                     48
                      A                      A                      A
 Frequencies --    825.7089               835.9442               889.6502
 Red. masses --      1.8572                 2.3260                 5.5060
 Frc consts  --      0.7461                 0.9576                 2.5676
 IR Inten    --      1.5206                 4.7808                42.4542

                     49                     50                     51
                      A                      A                      A
 Frequencies --    913.9387               932.7858               956.1151
 Red. masses --      6.3915                 6.4689                 1.2732
 Frc consts  --      3.1455                 3.3162                 0.6857
 IR Inten    --     10.7771                 0.7177                 0.4984

                     52                     53                     54
                      A                      A                      A
 Frequencies --    961.8045               966.5244              1001.6757
 Red. masses --      1.3038                 4.2408                 2.1943
 Frc consts  --      0.7106                 2.3341                 1.2972
 IR Inten    --      2.2830                31.0052                 7.8179

                     55                     56                     57
                      A                      A                      A
 Frequencies --   1019.8976              1031.0408              1041.4069
 Red. masses --      1.8011                 1.9176                 2.0044
 Frc consts  --      1.1038                 1.2010                 1.2808
 IR Inten    --     15.0758                89.0424               233.9820

                     58                     59                     60
                      A                      A                      A
 Frequencies --   1051.1666              1059.7101              1060.7063
 Red. masses --      2.1760                 1.9218                 1.9461
 Frc consts  --      1.4166                 1.2716                 1.2900
 IR Inten    --     85.9285               101.5987               101.7767

                     61                     62                     63
                      A                      A                      A
 Frequencies --   1128.6426              1145.7703              1154.2928
 Red. masses --      1.5540                 3.8199                 1.1917
 Frc consts  --      1.1663                 2.9546                 0.9355
 IR Inten    --     90.6031                12.6843                31.6305

                     64                     65                     66
                      A                      A                      A
 Frequencies --   1185.6935              1206.4322              1212.4928
 Red. masses --      4.3457                 3.8175                 2.8598
 Frc consts  --      3.5996                 3.2737                 2.4771
 IR Inten    --     85.3975               250.0848               160.0386

                     67                     68                     69
                      A                      A                      A
 Frequencies --   1220.5977              1225.8786              1237.7516
 Red. masses --      3.6652                 2.5268                 3.5712
 Frc consts  --      3.2173                 2.2373                 3.2235
 IR Inten    --     45.2691                70.7538               365.1660

                     70                     71                     72
                      A                      A                      A
 Frequencies --   1318.5425              1337.2392              1343.7287
 Red. masses --      5.8451                 3.9062                 2.8209
 Frc consts  --      5.9872                 4.1155                 3.0010
 IR Inten    --     24.9945               349.9519                15.1745

                     73                     74                     75
                      A                      A                      A
 Frequencies --   1360.0235              1366.8160              1372.2601
 Red. masses --      1.6400                 1.8443                 1.9413
 Frc consts  --      1.7873                 2.0300                 2.1538
 IR Inten    --    486.2868               649.1067               184.1664

                     76                     77                     78
                      A                      A                      A
 Frequencies --   1426.0041              1428.8654              1456.6795
 Red. masses --      3.5051                 5.3074                 1.0528
 Frc consts  --      4.1994                 6.3843                 1.3162
 IR Inten    --     26.6468               184.8866                 9.3236

                     79                     80                     81
                      A                      A                      A
 Frequencies --   1461.3067              1468.1709              1479.1203
 Red. masses --      1.1847                 2.6355                 1.0516
 Frc consts  --      1.4905                 3.3471                 1.3555
 IR Inten    --      6.8036                25.5371                 5.0691

                     82                     83                     84
                      A                      A                      A
 Frequencies --   1486.1014              1490.1589              1496.0025
 Red. masses --      4.9502                 1.0557                 6.2331
 Frc consts  --      6.4413                 1.3812                 8.2189
 IR Inten    --     10.2151                 5.5112               546.3456

                     85                     86                     87
                      A                      A                      A
 Frequencies --   1532.6904              1572.4867              1601.0973
 Red. masses --      6.3410                 6.5449                 5.6625
 Frc consts  --      8.7764                 9.5351                 8.5525
 IR Inten    --     70.9247                 4.2134                 5.2778

                     88                     89                     90
                      A                      A                      A
 Frequencies --   1607.7398              1756.5447              1781.9530
 Red. masses --      7.0608                11.5358                11.3064
 Frc consts  --     10.7531                20.9708                21.1528
 IR Inten    --     42.0675               208.5529               383.7217

                     91                     92                     93
                      A                      A                      A
 Frequencies --   3003.7546              3026.1593              3100.5563
 Red. masses --      1.0513                 1.0393                 1.0914
 Frc consts  --      5.5886                 5.6076                 6.1819
 IR Inten    --    116.2103                81.5989                21.6989

                     94                     95                     96
                      A                      A                      A
 Frequencies --   3101.9031              3113.2466              3115.9445
 Red. masses --      1.0817                 1.0851                 1.0850
 Frc consts  --      6.1323                 6.1966                 6.2068
 IR Inten    --     18.2378                65.2046                61.7455

                     97                     98                     99
                      A                      A                      A
 Frequencies --   3137.4252              3150.1989              3153.1805
 Red. masses --      1.1036                 1.1045                 1.0911
 Frc consts  --      6.4002                 6.4581                 6.3919
 IR Inten    --      7.7981                12.0007                86.7506

                    100                    101                    102
                      A                      A                      A
 Frequencies --   3153.4325              3167.8010              3169.0190
 Red. masses --      1.0910                 1.0916                 1.0917
 Frc consts  --      6.3923                 6.4540                 6.4595
 IR Inten    --     26.6987                52.6602                25.2170

 - Thermochemistry -
 -------------------
 Temperature   298.150 Kelvin.  Pressure   1.00000 Atm.
 Atom     1 has atomic number  6 and mass  12.00000

 Molecular mass:   324.06339 amu.
 Principal axes and moments of inertia in atomic units:
                           1         2         3
     Eigenvalues --  5997.818646659.24033**********
           X            0.91221   0.25031  -0.32438
           Y           -0.33769   0.90766  -0.24924
           Z            0.23204   0.33689   0.91250
 This molecule is an asymmetric top.
 Rotational symmetry number  1.
 Warning -- assumption of classical behavior for rotation
           may cause significant error
 Rotational temperatures (Kelvin)      0.01444     0.01301     0.00727
 Rotational constants (GHZ):           0.30090     0.27101     0.15147
 Zero-point vibrational energy     671650.5 (Joules/Mol)
                                  160.52832 (Kcal/Mol)
 Warning -- explicit consideration of  35 degrees of freedom as
           vibrations may cause significant error
 Vibrational temperatures:     37.04    48.35    53.57    86.81   108.30
          (Kelvin)            149.45   161.53   178.83   186.94   201.96
                              232.06   267.36   312.72   333.73   387.27
                              410.32   442.93   456.75   475.63   498.39
                              534.83   564.89   576.02   642.39   682.83
                              713.65   721.57   750.93   760.50   787.94
                              802.35   812.08   825.43   877.94   892.18
                              959.79   971.68  1004.14  1016.35  1033.89
                             1078.50  1096.26  1131.90  1156.49  1177.68
                             1188.01  1202.74  1280.01  1314.95  1342.07
                             1375.64  1383.82  1390.61  1441.19  1467.41
                             1483.44  1498.35  1512.39  1524.69  1526.12
                             1623.87  1648.51  1660.77  1705.95  1735.79
                             1744.51  1756.17  1763.77  1780.85  1897.09
                             1923.99  1933.33  1956.77  1966.54  1974.38
                             2051.70  2055.82  2095.84  2102.49  2112.37
                             2128.12  2138.17  2144.01  2152.41  2205.20
                             2262.46  2303.62  2313.18  2527.28  2563.83
                             4321.73  4353.97  4461.01  4462.95  4479.27
                             4483.15  4514.06  4532.43  4536.72  4537.09
                             4557.76  4559.51

 Zero-point correction=                           0.255818 (Hartree/Particle)
 Thermal correction to Energy=                    0.276339
 Thermal correction to Enthalpy=                  0.277283
 Thermal correction to Gibbs Free Energy=         0.205700
 Sum of electronic and zero-point Energies=          -1144.573318
 Sum of electronic and thermal Energies=             -1144.552798
 Sum of electronic and thermal Enthalpies=           -1144.551854
 Sum of electronic and thermal Free Energies=        -1144.623437

                     E (Thermal)             CV                S
                      KCal/Mol        Cal/Mol-Kelvin    Cal/Mol-Kelvin
 Total                  173.405             78.904            150.660
 Electronic               0.000              0.000              0.000
 Translational            0.889              2.981             43.223
 Rotational               0.889              2.981             34.519
 Vibrational            171.628             72.943             72.917
 Vibration     1          0.593              1.985              6.133
 Vibration     2          0.594              1.983              5.604
 Vibration     3          0.594              1.982              5.401
 Vibration     4          0.597              1.973              4.446
 Vibration     5          0.599              1.965              4.011
 Vibration     6          0.605              1.946              3.380
 Vibration     7          0.607              1.939              3.229
 Vibration     8          0.610              1.929              3.032
 Vibration     9          0.612              1.923              2.947
 Vibration    10          0.615              1.913              2.799
 Vibration    11          0.622              1.890              2.535
 Vibration    12          0.632              1.859              2.269
 Vibration    13          0.646              1.815              1.981
 Vibration    14          0.653              1.792              1.864
 Vibration    15          0.674              1.730              1.602
 Vibration    16          0.683              1.701              1.502
 Vibration    17          0.698              1.659              1.374
 Vibration    18          0.704              1.640              1.323
 Vibration    19          0.713              1.614              1.257
 Vibration    20          0.724              1.583              1.183
 Vibration    21          0.743              1.530              1.073
 Vibration    22          0.760              1.486              0.990
 Vibration    23          0.766              1.469              0.961
 Vibration    24          0.806              1.369              0.806
 Vibration    25          0.831              1.306              0.725
 Vibration    26          0.852              1.259              0.668
 Vibration    27          0.857              1.247              0.654
 Vibration    28          0.877              1.201              0.606
 Vibration    29          0.884              1.187              0.590
 Vibration    30          0.903              1.145              0.549
 Vibration    31          0.913              1.123              0.529
 Vibration    32          0.920              1.108              0.515
 Vibration    33          0.930              1.088              0.497
 Vibration    34          0.969              1.010              0.432
 Vibration    35          0.980              0.989              0.416

                           ! Non-Optimized Parameters !
 Normal termination of Gaussian 16 at Thu Dec 21 18:45:54 2023.
