 Gaussian 16, Revision A.03,
 Gaussian 16:  ES64L-G16RevA.03 25-Dec-2016

 ----------------------------------------------------------------------
 #P UB3LYP/6-311++G(d,p) nosym opt freq SCRF=(PCM,Solvent=n,n-DiMethylF
 ormamide)
 ----------------------------------------------------------------------

 -------
 Reduced
 -------
 Symbolic Z-matrix:
 Charge = -2 Multiplicity = 1

 SCF Done:  E(UB3LYP) =  -573.856458225     A.U. after   18 cycles
 SCF Done:  E(UB3LYP) =  -573.857416417     A.U. after   14 cycles
 SCF Done:  E(UB3LYP) =  -573.857573581     A.U. after   14 cycles
 SCF Done:  E(UB3LYP) =  -573.857575621     A.U. after   13 cycles
 SCF Done:  E(UB3LYP) =  -573.857587609     A.U. after   12 cycles
 SCF Done:  E(UB3LYP) =  -573.857611539     A.U. after   12 cycles
 SCF Done:  E(UB3LYP) =  -573.857608961     A.U. after   12 cycles
 SCF Done:  E(UB3LYP) =  -573.857620181     A.U. after   12 cycles
 SCF Done:  E(UB3LYP) =  -573.857624256     A.U. after   11 cycles
 SCF Done:  E(UB3LYP) =  -573.857624979     A.U. after   11 cycles
 SCF Done:  E(UB3LYP) =  -573.857626944     A.U. after   11 cycles
 SCF Done:  E(UB3LYP) =  -573.857626918     A.U. after   10 cycles
 SCF Done:  E(UB3LYP) =  -573.857627448     A.U. after   10 cycles
 SCF Done:  E(UB3LYP) =  -573.857627539     A.U. after    9 cycles
 SCF Done:  E(UB3LYP) =  -573.857627583     A.U. after    9 cycles
 Optimization completed.
    -- Stationary point found.
 Normal termination of Gaussian 16 at Sat Feb 10 10:36:31 2024.

 ----------------------------------------------------------------------
 #P Geom=AllCheck Guess=TCheck SCRF=Check GenChk UB3LYP/6-311++G(d,p) F
 req
 ----------------------------------------------------------------------

 Structure from the checkpoint file:  "058-an.chk"
 -------
 Reduced
 -------
 Charge = -2 Multiplicity = 1

                          Input orientation:
 ---------------------------------------------------------------------
 Center     Atomic      Atomic             Coordinates (Angstroms)
 Number     Number       Type             X           Y           Z
 ---------------------------------------------------------------------
      1          6           0       -0.546049    1.189231   -0.364299
      2          6           0       -1.430617    0.143340   -0.816931
      3          6           0       -1.213949   -1.210062   -0.656744
      4          6           0       -0.022021   -1.696991    0.012623
      5          6           0        0.849341   -0.698843    0.463304
      6          6           0        0.653692    0.718345    0.307253
      7          8           0       -0.867637    2.418788   -0.568956
      8          8           0        0.190194   -2.985196    0.164215
      9          6           0        1.662193    1.625892    0.828458
     10          6           0        2.852418    1.037820    1.599602
     11          8           0        1.650372    2.868154    0.701722
     12          1           0       -2.335508    0.479161   -1.321831
     13          1           0        3.467262    0.394088    0.963119
     14          1           0        2.530555    0.433250    2.452198
     15          1           0        3.467233    1.862727    1.960551
     16          6           0       -2.210697   -2.215136   -1.171785
     17          1           0        1.746815   -1.048524    0.961642
     18          1           0       -3.049084   -1.724929   -1.673593
     19          1           0       -2.607132   -2.832525   -0.357738
     20          1           0       -1.742081   -2.911872   -1.875249
 ---------------------------------------------------------------------

 SCF Done:  E(UB3LYP) =  -573.857627583     A.U. after    1 cycles

 Alpha  occ. eigenvalues --  -19.06501 -19.02541 -19.01108 -10.21967 -10.18520
 Alpha  occ. eigenvalues --  -10.16615 -10.14614 -10.14577 -10.14433 -10.12981
 Alpha  occ. eigenvalues --  -10.12533 -10.11735  -0.98945  -0.93841  -0.91712
 Alpha  occ. eigenvalues --   -0.78915  -0.74723  -0.70478  -0.66500  -0.64618
 Alpha  occ. eigenvalues --   -0.56748  -0.54614  -0.48291  -0.44491  -0.43809
 Alpha  occ. eigenvalues --   -0.41480  -0.40922  -0.39864  -0.39683  -0.38742
 Alpha  occ. eigenvalues --   -0.36546  -0.35665  -0.35249  -0.35041  -0.32942
 Alpha  occ. eigenvalues --   -0.32277  -0.31173  -0.30719  -0.23198  -0.22564
 Alpha  occ. eigenvalues --   -0.21606  -0.19273  -0.18505  -0.12532
 Alpha virt. eigenvalues --   -0.02147   0.00136   0.00997   0.02084   0.03209
 Alpha virt. eigenvalues --    0.03380   0.03996   0.04485   0.05321   0.05528
 Alpha virt. eigenvalues --    0.06104   0.06311   0.07810   0.08216   0.08936

  Beta  occ. eigenvalues --  -19.06501 -19.02541 -19.01108 -10.21967 -10.18520
  Beta  occ. eigenvalues --  -10.16615 -10.14614 -10.14577 -10.14433 -10.12981
  Beta  occ. eigenvalues --  -10.12533 -10.11735  -0.98945  -0.93841  -0.91712
  Beta  occ. eigenvalues --   -0.78915  -0.74723  -0.70478  -0.66500  -0.64618
  Beta  occ. eigenvalues --   -0.56748  -0.54614  -0.48291  -0.44491  -0.43809
  Beta  occ. eigenvalues --   -0.41480  -0.40922  -0.39864  -0.39683  -0.38742
  Beta  occ. eigenvalues --   -0.36546  -0.35665  -0.35249  -0.35041  -0.32942
  Beta  occ. eigenvalues --   -0.32277  -0.31173  -0.30719  -0.23198  -0.22564
  Beta  occ. eigenvalues --   -0.21606  -0.19273  -0.18505  -0.12532
  Beta virt. eigenvalues --   -0.02147   0.00136   0.00997   0.02084   0.03209
  Beta virt. eigenvalues --    0.03380   0.03996   0.04485   0.05321   0.05528
  Beta virt. eigenvalues --    0.06104   0.06311   0.07810   0.08216   0.08936

 Mulliken charges and spin densities:
               1          2
     1  C   -0.511501   0.000000
     2  C   -0.643527  -0.000000
     3  C    1.091995   0.000000
     4  C   -0.850688   0.000000
     5  C   -1.061269  -0.000000
     6  C    1.675818  -0.000000
     7  O   -0.625691  -0.000000
     8  O   -0.737059  -0.000000
     9  C   -0.181995   0.000000
    10  C   -0.473876  -0.000000
    11  O   -0.462973  -0.000000
    12  H    0.112636   0.000000
    13  H    0.157236  -0.000000
    14  H    0.153600  -0.000000
    15  H    0.167723  -0.000000
    16  C   -0.359131  -0.000000
    17  H    0.109004   0.000000
    18  H    0.137489   0.000000
    19  H    0.151671  -0.000000
    20  H    0.150537  -0.000000
 Sum of Mulliken charges =  -2.00000   0.00000

 Dipole moment (field-independent basis, Debye):
    X=             -0.6866    Y=             -3.0702    Z=              0.2256  Tot=              3.1541
 Quadrupole moment (field-independent basis, Debye-Ang):
   XX=            -84.8893   YY=           -156.8703   ZZ=            -80.0267
   XY=              0.0102   XZ=             -3.1052   YZ=              3.1933

  Exact polarizability: 230.642  29.430 263.058  61.932  10.581 149.787
 Approx polarizability: 249.857  28.781 292.234  66.096   9.134 162.652

                      1                      2                      3
                      A                      A                      A
 Frequencies --     51.8244                77.6972               128.5307
 Red. masses --      3.7142                 7.4438                 1.0562
 Frc consts  --      0.0059                 0.0265                 0.0103
 IR Inten    --     22.8966                 0.5770                 0.0746

                      4                      5                      6
                      A                      A                      A
 Frequencies --    155.1480               169.9003               207.6851
 Red. masses --      6.4680                 1.0361                 4.3626
 Frc consts  --      0.0917                 0.0176                 0.1109
 IR Inten    --     12.3723                 0.1803                 5.5034

                      7                      8                      9
                      A                      A                      A
 Frequencies --    210.6232               283.5515               332.0939
 Red. masses --      4.2554                 3.3164                 7.6517
 Frc consts  --      0.1112                 0.1571                 0.4972
 IR Inten    --      3.7811                 7.0442                 0.8349

                     10                     11                     12
                      A                      A                      A
 Frequencies --    373.8164               386.7656               405.0512
 Red. masses --      6.3253                 7.2785                 4.8070
 Frc consts  --      0.5208                 0.6415                 0.4647
 IR Inten    --      4.1528                11.3042                43.3894

                     13                     14                     15
                      A                      A                      A
 Frequencies --    441.9633               484.9709               550.8254
 Red. masses --      3.1746                10.3209                 4.6197
 Frc consts  --      0.3654                 1.4302                 0.8258
 IR Inten    --      0.7050                 9.7016                30.7528

                     16                     17                     18
                      A                      A                      A
 Frequencies --    583.9549               647.8633               677.4205
 Red. masses --      2.7070                 4.1664                 4.6714
 Frc consts  --      0.5439                 1.0303                 1.2630
 IR Inten    --      3.1040                12.9900                21.9408

                     19                     20                     21
                      A                      A                      A
 Frequencies --    680.4435               720.7212               735.3172
 Red. masses --      3.0909                 6.2795                 2.3648
 Frc consts  --      0.8432                 1.9218                 0.7533
 IR Inten    --      1.7866                53.4754                 2.5733

                     22                     23                     24
                      A                      A                      A
 Frequencies --    821.5497               854.5421               863.4548
 Red. masses --      1.8648                 3.5425                 1.6695
 Frc consts  --      0.7416                 1.5241                 0.7334
 IR Inten    --     28.6705               110.0035                60.1076

                     25                     26                     27
                      A                      A                      A
 Frequencies --    926.1186              1005.8529              1022.1936
 Red. masses --      3.1575                 1.5551                 1.8242
 Frc consts  --      1.5956                 0.9270                 1.1231
 IR Inten    --    198.5570                54.0652                 3.6276

                     28                     29                     30
                      A                      A                      A
 Frequencies --   1030.2349              1044.4748              1158.7593
 Red. masses --      2.1265                 1.5324                 3.1507
 Frc consts  --      1.3298                 0.9849                 2.4926
 IR Inten    --    144.1255                 3.0798                14.6111

                     31                     32                     33
                      A                      A                      A
 Frequencies --   1182.8020              1228.7829              1260.5148
 Red. masses --      5.0789                 2.4047                 1.8401
 Frc consts  --      4.1864                 2.1392                 1.7227
 IR Inten    --    512.8059               532.0154               209.4932

                     34                     35                     36
                      A                      A                      A
 Frequencies --   1296.9486              1344.5149              1370.1278
 Red. masses --      3.8145                 3.4662                 1.6067
 Frc consts  --      3.7804                 3.6918                 1.7771
 IR Inten    --     14.7444               529.7836                42.8156

                     37                     38                     39
                      A                      A                      A
 Frequencies --   1388.2458              1409.6091              1436.3673
 Red. masses --      1.5137                 3.6929                 2.9835
 Frc consts  --      1.7188                 4.3232                 3.6267
 IR Inten    --    190.9508               531.1385               701.2859

                     40                     41                     42
                      A                      A                      A
 Frequencies --   1453.0439              1463.7544              1468.9573
 Red. masses --      1.0531                 1.2762                 1.5018
 Frc consts  --      1.3100                 1.6110                 1.9093
 IR Inten    --     13.8207               269.6762               119.0876

                     43                     44                     45
                      A                      A                      A
 Frequencies --   1471.1420              1490.9116              1582.9935
 Red. masses --      1.0663                 1.8820                 6.7421
 Frc consts  --      1.3597                 2.4647                 9.9541
 IR Inten    --     16.4319               133.7162              1129.7419

                     46                     47                     48
                      A                      A                      A
 Frequencies --   1625.9319              3006.4308              3023.3809
 Red. masses --      6.7374                 1.0359                 1.0369
 Frc consts  --     10.4941                 5.5167                 5.5842
 IR Inten    --    171.3221               114.8237                37.2020

                     49                     50                     51
                      A                      A                      A
 Frequencies --   3046.1810              3079.8053              3081.6974
 Red. masses --      1.0984                 1.0996                 1.1014
 Frc consts  --      6.0050                 6.1454                 6.1630
 IR Inten    --     51.1364                30.7495                39.6980

                     52                     53                     54
                      A                      A                      A
 Frequencies --   3108.2448              3115.4649              3162.3622
 Red. masses --      1.0880                 1.1016                 1.0858
 Frc consts  --      6.1933                 6.2996                 6.3978
 IR Inten    --    120.3857                42.6663                50.6347

 - Thermochemistry -
 -------------------
 Temperature   298.150 Kelvin.  Pressure   1.00000 Atm.
 Atom     1 has atomic number  6 and mass  12.00000

 Molecular mass:   164.04734 amu.
 Principal axes and moments of inertia in atomic units:
                           1         2         3
     Eigenvalues --  1111.309612623.831103711.68723
           X            0.54183   0.68549  -0.48634
           Y            0.79521  -0.60546   0.03254
           Z            0.27215   0.40437   0.87316
 This molecule is an asymmetric top.
 Rotational symmetry number  1.
 Warning -- assumption of classical behavior for rotation
           may cause significant error
 Rotational temperatures (Kelvin)      0.07794     0.03301     0.02334
 Rotational constants (GHZ):           1.62398     0.68783     0.48623
 Zero-point vibrational energy     383591.9 (Joules/Mol)
                                   91.68067 (Kcal/Mol)
 Warning -- explicit consideration of  16 degrees of freedom as
           vibrations may cause significant error
 Vibrational temperatures:     74.56   111.79   184.93   223.22   244.45
          (Kelvin)            298.81   303.04   407.97   477.81   537.84
                              556.47   582.78   635.89   697.76   792.51
                              840.18   932.13   974.66   979.01  1036.96
                             1057.96  1182.03  1229.50  1242.32  1332.48
                             1447.20  1470.71  1482.28  1502.77  1667.20
                             1701.79  1767.94  1813.60  1866.02  1934.46
                             1971.31  1997.38  2028.11  2066.61  2090.61
                             2106.02  2113.50  2116.65  2145.09  2277.57
                             2339.35  4325.58  4349.97  4382.78  4431.15
                             4433.88  4472.07  4482.46  4549.93

 Zero-point correction=                           0.146102 (Hartree/Particle)
 Thermal correction to Energy=                    0.157326
 Thermal correction to Enthalpy=                  0.158270
 Thermal correction to Gibbs Free Energy=         0.108846
 Sum of electronic and zero-point Energies=           -573.711525
 Sum of electronic and thermal Energies=              -573.700302
 Sum of electronic and thermal Enthalpies=            -573.699358
 Sum of electronic and thermal Free Energies=         -573.748781

                     E (Thermal)             CV                S
                      KCal/Mol        Cal/Mol-Kelvin    Cal/Mol-Kelvin
 Total                   98.723             41.774            104.021
 Electronic               0.000              0.000              0.000
 Translational            0.889              2.981             41.193
 Rotational               0.889              2.981             30.760
 Vibrational             96.946             35.812             32.068
 Vibration     1          0.596              1.977              4.747
 Vibration     2          0.599              1.964              3.948
 Vibration     3          0.611              1.925              2.968
 Vibration     4          0.620              1.897              2.608
 Vibration     5          0.625              1.880              2.437
 Vibration     6          0.641              1.829              2.064
 Vibration     7          0.643              1.825              2.038
 Vibration     8          0.682              1.704              1.512
 Vibration     9          0.714              1.611              1.250
 Vibration    10          0.745              1.526              1.064
 Vibration    11          0.755              1.498              1.013
 Vibration    12          0.770              1.459              0.944
 Vibration    13          0.802              1.379              0.820
 Vibration    14          0.841              1.283              0.697
 Vibration    15          0.906              1.138              0.542
 Vibration    16          0.941              1.066              0.478

 Optimization completed.
    -- Stationary point found.
 Normal termination of Gaussian 16 at Sat Feb 10 10:45:20 2024.
