 Q-Chem 5.4, Q-Chem, Inc., Pleasanton, CA (2021)
 Q-Chem 5.4.0 for Intel X86 EM64T Linux

User input:
--------------------------------------------------------------
$molecule
-1 2
O                  3.8942320000      2.7313040000      1.0064330000
C                  3.0060970000      1.8829030000      1.0399140000
N                  2.9229890000      0.9047170000      2.0009290000
C                  1.9419770000     -0.1283600000      2.1401550000
O                  2.0639320000     -0.9032030000      3.0855430000
C                  0.9170300000     -0.1131020000      1.1189970000
N                 -0.0794610000     -1.0448940000      1.1351490000
C                 -0.9960250000     -0.9553500000      0.1409490000
C                 -2.0659800000     -1.8855890000      0.0833500000
C                 -3.0220840000     -1.8237640000     -0.9203700000
C                 -2.9505990000     -0.8313900000     -1.9082980000
C                 -1.9108370000      0.0985150000     -1.8798320000
C                 -0.9313740000      0.0602670000     -0.8782960000
N                  0.0873440000      0.9955910000     -0.8761660000
C                  0.9589800000      0.8781070000      0.1037560000
N                  1.9930250000      1.8192760000      0.1145660000
H                  3.6466270000      0.9094690000      2.7053370000
H                 -2.1047100000     -2.6459290000      0.8559820000
H                 -3.8301560000     -2.5492510000     -0.9394810000
H                 -3.6996620000     -0.7852290000     -2.6922960000
H                 -1.8331640000      0.8763050000     -2.6328870000
H                  1.9918190000      2.5096070000     -0.6223970000
$end

$rem
BASIS  =  6-311++G(d,p)
GUI  =  2
JOB_TYPE  =  SP
METHOD  =  B3LYP
SCF_CONVERGENCE  = 8
SOLVENT_METHOD = sm12
$end

$smx
solvent dimethylformamide
charges CM5
$end

--------------------------------------------------------------

             Standard Nuclear Orientation (Angstroms)
    I     Atom           X                Y                Z
 ----------------------------------------------------------------
    1      O       3.8942320000     2.7313040000     1.0064330000
    2      C       3.0060970000     1.8829030000     1.0399140000
    3      N       2.9229890000     0.9047170000     2.0009290000
    4      C       1.9419770000    -0.1283600000     2.1401550000
    5      O       2.0639320000    -0.9032030000     3.0855430000
    6      C       0.9170300000    -0.1131020000     1.1189970000
    7      N      -0.0794610000    -1.0448940000     1.1351490000
    8      C      -0.9960250000    -0.9553500000     0.1409490000
    9      C      -2.0659800000    -1.8855890000     0.0833500000
   10      C      -3.0220840000    -1.8237640000    -0.9203700000
   11      C      -2.9505990000    -0.8313900000    -1.9082980000
   12      C      -1.9108370000     0.0985150000    -1.8798320000
   13      C      -0.9313740000     0.0602670000    -0.8782960000
   14      N       0.0873440000     0.9955910000    -0.8761660000
   15      C       0.9589800000     0.8781070000     0.1037560000
   16      N       1.9930250000     1.8192760000     0.1145660000
   17      H       3.6466270000     0.9094690000     2.7053370000
   18      H      -2.1047100000    -2.6459290000     0.8559820000
   19      H      -3.8301560000    -2.5492510000    -0.9394810000
   20      H      -3.6996620000    -0.7852290000    -2.6922960000
   21      H      -1.8331640000     0.8763050000    -2.6328870000
   22      H       1.9918190000     2.5096070000    -0.6223970000
 ----------------------------------------------------------------

   18    -754.4524482264      5.71e-09  Convergence criterion met
 Total energy in the final basis set =     -754.5525787947

                    Orbital Energies (a.u.)
 --------------------------------------------------------------

 Alpha MOs
 -- Occupied --
-19.1022 -19.0947 -14.3669 -14.3590 -14.3102 -14.3031 -10.3192 -10.2804
-10.2654 -10.2162 -10.2133 -10.2081 -10.1821 -10.1815 -10.1781 -10.1774
 -1.0752  -1.0398  -0.9944  -0.9508  -0.9220  -0.8943  -0.8511  -0.7731
 -0.7543  -0.7060  -0.6752  -0.6508  -0.6131  -0.6032  -0.5653  -0.5604
 -0.5251  -0.4988  -0.4848  -0.4768  -0.4728  -0.4472  -0.4431  -0.4342
 -0.4320  -0.4273  -0.4097  -0.3738  -0.3732  -0.3695  -0.3456  -0.3140
 -0.3097  -0.2998  -0.2884  -0.2707  -0.2577  -0.2567  -0.2438  -0.1478

 Beta MOs
 -- Occupied --
-19.1018 -19.0924 -14.3672 -14.3588 -14.3065 -14.2952 -10.3190 -10.2795
-10.2661 -10.2152 -10.2144 -10.2064 -10.1824 -10.1798 -10.1781 -10.1755
 -1.0744  -1.0364  -0.9916  -0.9468  -0.9184  -0.8861  -0.8481  -0.7690
 -0.7518  -0.6989  -0.6746  -0.6492  -0.6107  -0.6009  -0.5635  -0.5588
 -0.5227  -0.4978  -0.4804  -0.4748  -0.4716  -0.4454  -0.4422  -0.4308
 -0.4250  -0.4243  -0.4008  -0.3716  -0.3684  -0.3679  -0.3220  -0.3078
 -0.3024  -0.2990  -0.2825  -0.2668  -0.2514  -0.2454  -0.2336

          Ground-State Mulliken Net Atomic Charges

     Atom                 Charge (a.u.)    Spin (a.u.)
  --------------------------------------------------------
      1 O                    -0.300855       0.012667
      2 C                     0.782807       0.009325
      3 N                    -0.317915       0.000554
      4 C                     1.005503       0.049771
      5 O                    -0.374823       0.084762
      6 C                    -1.716322       0.107459
      7 N                    -0.322945       0.384441
      8 C                    -3.084699      -0.092654
      9 C                     0.555878       0.122876
     10 C                     0.699127      -0.027702
     11 C                     1.124032       0.149419
     12 C                     1.037455      -0.039074
     13 C                    -2.213800       0.115818
     14 N                    -0.474613       0.170255
     15 C                     0.499706      -0.020328
     16 N                    -0.075550      -0.007200
     17 H                     0.534981      -0.000442
     18 H                     0.206803      -0.010472
     19 H                     0.370863       0.001947
     20 H                     0.374145      -0.009845
     21 H                     0.218456      -0.001230
     22 H                     0.471768      -0.000346
  --------------------------------------------------------
  Sum of atomic charges =    -1.000000

                    Cartesian Multipole Moments
 -----------------------------------------------------------------
    Charge (ESU x 10^10)
                -4.8032
    Dipole Moment (Debye)
         X      -3.9928      Y       0.6992      Z      -5.1345
       Tot       6.5417
    Quadrupole Moments (Debye-Ang)
        XX    -117.3661     XY      -9.0157     YY    -110.9321
        XZ     -10.5081     YZ       5.8022     ZZ    -114.2469

 Total job time:  401.96s(wall), 3007.75s(cpu)
        *  Thank you very much for using Q-Chem.  Have a nice day.  *
