 Q-Chem 5.4, Q-Chem, Inc., Pleasanton, CA (2021)
 Q-Chem 5.4.0 for Intel X86 EM64T Linux

User input:
--------------------------------------------------------------
$molecule
-1 2
C                  3.9072710000      0.6020160000     -0.1059150000
O                  2.6767440000      1.2873610000     -0.1597060000
C                  1.5208500000      0.5486790000     -0.1002330000
C                  1.5029790000     -0.8279300000      0.0092350000
C                  0.2918380000     -1.5994640000      0.0713020000
O                  0.2989360000     -2.8553120000      0.1715370000
C                 -0.9613260000     -0.8284810000      0.0109990000
C                 -2.1991830000     -1.4964100000      0.0649680000
C                 -3.3924220000     -0.7980640000      0.0102780000
C                 -3.3748420000      0.6075430000     -0.1014390000
C                 -2.1697860000      1.2827420000     -0.1559630000
C                 -0.9411680000      0.5896830000     -0.1017530000
C                  0.3115340000      1.3528590000     -0.1632650000
O                  0.3340450000      2.6066690000     -0.2628530000
H                  4.0247830000      0.0438520000      0.8321500000
H                  4.6816860000      1.3687330000     -0.1673030000
H                  4.0239100000     -0.0973490000     -0.9441540000
H                  2.4193840000     -1.4036980000      0.0545530000
H                 -2.1773670000     -2.5772170000      0.1507890000
H                 -4.3392120000     -1.3287280000      0.0531020000
H                 -4.3094930000      1.1598010000     -0.1446700000
H                 -2.1291620000      2.3627150000     -0.2417560000
$end

$rem
BASIS  =  6-311++G(d,p)
GUI  =  2
JOB_TYPE  =  SP
METHOD  =  B3LYP
SCF_CONVERGENCE  = 8
SOLVENT_METHOD = sm12
$end

$smx
solvent dimethylformamide
charges CM5
$end

--------------------------------------------------------------

             Standard Nuclear Orientation (Angstroms)
    I     Atom           X                Y                Z
 ----------------------------------------------------------------
    1      C       3.9072710000     0.6020160000    -0.1059150000
    2      O       2.6767440000     1.2873610000    -0.1597060000
    3      C       1.5208500000     0.5486790000    -0.1002330000
    4      C       1.5029790000    -0.8279300000     0.0092350000
    5      C       0.2918380000    -1.5994640000     0.0713020000
    6      O       0.2989360000    -2.8553120000     0.1715370000
    7      C      -0.9613260000    -0.8284810000     0.0109990000
    8      C      -2.1991830000    -1.4964100000     0.0649680000
    9      C      -3.3924220000    -0.7980640000     0.0102780000
   10      C      -3.3748420000     0.6075430000    -0.1014390000
   11      C      -2.1697860000     1.2827420000    -0.1559630000
   12      C      -0.9411680000     0.5896830000    -0.1017530000
   13      C       0.3115340000     1.3528590000    -0.1632650000
   14      O       0.3340450000     2.6066690000    -0.2628530000
   15      H       4.0247830000     0.0438520000     0.8321500000
   16      H       4.6816860000     1.3687330000    -0.1673030000
   17      H       4.0239100000    -0.0973490000    -0.9441540000
   18      H       2.4193840000    -1.4036980000     0.0545530000
   19      H      -2.1773670000    -2.5772170000     0.1507890000
   20      H      -4.3392120000    -1.3287280000     0.0531020000
   21      H      -4.3094930000     1.1598010000    -0.1446700000
   22      H      -2.1291620000     2.3627150000    -0.2417560000
 ----------------------------------------------------------------

   16    -649.8812552898      8.51e-09  Convergence criterion met
 Total energy in the final basis set =     -649.9705967275

                    Orbital Energies (a.u.)
 --------------------------------------------------------------

 Alpha MOs
 -- Occupied --
-19.1529 -19.0758 -19.0731 -10.2313 -10.2254 -10.2222 -10.2181 -10.1834
-10.1824 -10.1804 -10.1798 -10.1789 -10.1784 -10.1625  -1.0688  -0.9979
 -0.9962  -0.8645  -0.8083  -0.7581  -0.7500  -0.7165  -0.6660  -0.6271
 -0.6054  -0.5692  -0.5249  -0.5224  -0.4951  -0.4687  -0.4684  -0.4519
 -0.4360  -0.4258  -0.4181  -0.4105  -0.4034  -0.3985  -0.3789  -0.3625
 -0.3618  -0.3493  -0.3332  -0.3280  -0.2701  -0.2647  -0.2432  -0.2417
 -0.2375  -0.1501

 Beta MOs
 -- Occupied --
-19.1521 -19.0685 -19.0674 -10.2297 -10.2243 -10.2204 -10.2181 -10.1832
-10.1817 -10.1800 -10.1798 -10.1787 -10.1774 -10.1620  -1.0668  -0.9875
 -0.9843  -0.8624  -0.8036  -0.7562  -0.7480  -0.7141  -0.6588  -0.6255
 -0.6026  -0.5669  -0.5230  -0.5207  -0.4928  -0.4665  -0.4651  -0.4510
 -0.4352  -0.4237  -0.4078  -0.4061  -0.3990  -0.3942  -0.3611  -0.3596
 -0.3511  -0.3483  -0.3316  -0.3144  -0.2580  -0.2498  -0.2371  -0.2315
 -0.2308

          Ground-State Mulliken Net Atomic Charges

     Atom                 Charge (a.u.)    Spin (a.u.)
  --------------------------------------------------------
      1 C                     0.154049       0.000170
      2 O                    -0.139081       0.018405
      3 C                     0.016788       0.131845
      4 C                     0.558643       0.026559
      5 C                    -1.258925       0.049066
      6 O                    -0.374224       0.206459
      7 C                    -0.931526       0.056784
      8 C                     0.023921       0.006146
      9 C                     0.794956       0.054548
     10 C                     0.741761       0.013331
     11 C                    -0.123152       0.062883
     12 C                    -0.850408       0.016596
     13 C                    -1.167134       0.093754
     14 O                    -0.385764       0.275913
     15 H                     0.196889       0.001412
     16 H                     0.332598      -0.000066
     17 H                     0.196947       0.001407
     18 H                     0.210590      -0.005171
     19 H                     0.138627      -0.000958
     20 H                     0.363198      -0.003900
     21 H                     0.358913      -0.001530
     22 H                     0.142334      -0.003653
  --------------------------------------------------------
  Sum of atomic charges =    -1.000000

                    Cartesian Multipole Moments
 -----------------------------------------------------------------
    Charge (ESU x 10^10)
                -4.8032
    Dipole Moment (Debye)
         X       0.9243      Y       0.0462      Z       0.2624
       Tot       0.9620
    Quadrupole Moments (Debye-Ang)
        XX     -77.8885     XY      -2.0326     YY    -122.3639
        XZ       0.1055     YZ       2.7699     ZZ     -87.6585

 Total job time:  378.19s(wall), 2656.18s(cpu)
        *  Thank you very much for using Q-Chem.  Have a nice day.  *
