 Q-Chem 5.4, Q-Chem, Inc., Pleasanton, CA (2021)
 Q-Chem 5.4.0 for Intel X86 EM64T Linux

User input:
--------------------------------------------------------------
$molecule
0 1
C                  5.6806780000     -5.1079330000      1.2814440000
C                  6.6930630000     -5.0186240000      0.3377060000
C                  6.6040080000     -4.0723420000     -0.6980350000
C                  4.5727370000     -4.2602780000      1.2057720000
C                  4.4830850000     -3.3141170000      0.1707470000
C                  5.4978230000     -3.2208840000     -0.7795680000
C                  3.4883910000     -4.3677780000      2.2303630000
C                  2.3372900000     -3.4428890000      2.0998460000
C                  2.2523380000     -2.5404400000      1.1122110000
C                  3.3031710000     -2.3992240000      0.0759710000
O                  3.5390950000     -5.1784260000      3.1387630000
O                  3.1993270000     -1.5701000000     -0.8103390000
C                  7.6506530000     -3.9821630000     -1.6712860000
N                  8.4979240000     -3.9141600000     -2.4533140000
H                  5.7305950000     -5.8301570000      2.0868470000
H                  7.5544300000     -5.6727700000      0.3908360000
H                  5.4151160000     -2.4870960000     -1.5713740000
H                  1.5680830000     -3.5455090000      2.8575370000
H                  1.4099240000     -1.8640040000      1.0171600000
$end
$rem
MAX_SCF_CYCLES=200
BASIS  =  6-311++G(d,p)
GUI  =  2
JOB_TYPE  =  SP
METHOD  =  B3LYP
SOLVENT_METHOD = PCM
$end
$pcm
theory = CPCM
$end
$solvent
dielectric 37.219
opticaldielectric 1.43
$end

--------------------------------------------------------------

             Standard Nuclear Orientation (Angstroms)
    I     Atom           X                Y                Z
 ----------------------------------------------------------------
    1      C       5.6806780000    -5.1079330000     1.2814440000
    2      C       6.6930630000    -5.0186240000     0.3377060000
    3      C       6.6040080000    -4.0723420000    -0.6980350000
    4      C       4.5727370000    -4.2602780000     1.2057720000
    5      C       4.4830850000    -3.3141170000     0.1707470000
    6      C       5.4978230000    -3.2208840000    -0.7795680000
    7      C       3.4883910000    -4.3677780000     2.2303630000
    8      C       2.3372900000    -3.4428890000     2.0998460000
    9      C       2.2523380000    -2.5404400000     1.1122110000
   10      C       3.3031710000    -2.3992240000     0.0759710000
   11      O       3.5390950000    -5.1784260000     3.1387630000
   12      O       3.1993270000    -1.5701000000    -0.8103390000
   13      C       7.6506530000    -3.9821630000    -1.6712860000
   14      N       8.4979240000    -3.9141600000    -2.4533140000
   15      H       5.7305950000    -5.8301570000     2.0868470000
   16      H       7.5544300000    -5.6727700000     0.3908360000
   17      H       5.4151160000    -2.4870960000    -1.5713740000
   18      H       1.5680830000    -3.5455090000     2.8575370000
   19      H       1.4099240000    -1.8640040000     1.0171600000
 ----------------------------------------------------------------

    9    -627.5385670996      3.11e-06  Convergence criterion met
 Total energy in the final basis set =     -627.5385670996

                    Orbital Energies (a.u.)
 --------------------------------------------------------------

 Alpha MOs
 -- Occupied --
-19.1473 -19.1467 -14.3386 -10.2949 -10.2949 -10.2467 -10.2390 -10.2253
-10.2235 -10.2216 -10.2203 -10.2178 -10.2170 -10.2118  -1.0804  -1.0787
 -0.9409  -0.9088  -0.8541  -0.8062  -0.7951  -0.7164  -0.6853  -0.6624
 -0.6082  -0.5864  -0.5524  -0.5226  -0.5142  -0.4801  -0.4748  -0.4670
 -0.4640  -0.4542  -0.4401  -0.4300  -0.4204  -0.4128  -0.3972  -0.3921
 -0.3713  -0.3643  -0.3162  -0.2995  -0.2953  -0.2922  -0.2882

          Ground-State Mulliken Net Atomic Charges

     Atom                 Charge (a.u.)
  ----------------------------------------
      1 C                     0.561221
      2 C                    -0.902485
      3 C                     2.003212
      4 C                     0.181798
      5 C                    -0.054156
      6 C                     0.361084
      7 C                    -0.685700
      8 C                     0.174587
      9 C                     0.115003
     10 C                    -0.513689
     11 O                    -0.280157
     12 O                    -0.283602
     13 C                    -1.636684
     14 N                    -0.243461
     15 H                     0.211189
     16 H                     0.254531
     17 H                     0.217021
     18 H                     0.258464
     19 H                     0.261825
  ----------------------------------------
  Sum of atomic charges =     0.000000

                    Cartesian Multipole Moments
 -----------------------------------------------------------------
    Charge (ESU x 10^10)
                 0.0000
    Dipole Moment (Debye)
         X      -3.0636      Y      -0.8237      Z       3.5045
       Tot       4.7271
    Quadrupole Moments (Debye-Ang)
        XX    -115.8857     XY       2.6511     YY     -77.1129
        XZ      27.1905     YZ      -4.8036     ZZ     -96.2287

 Total job time:  25.80s(wall), 174.66s(cpu)
        *  Thank you very much for using Q-Chem.  Have a nice day.  *
