 Gaussian 16, Revision A.03,
 Gaussian 16:  ES64L-G16RevA.03 25-Dec-2016

 --------------------------------------
 #P UB3LYP/6-311++G(d,p) nosym opt freq
 --------------------------------------

 -------
 Reduced
 -------
 Symbolic Z-matrix:
 Charge = -2 Multiplicity = 1

 SCF Done:  E(UB3LYP) =  -5721.67024211     A.U. after   22 cycles
 SCF Done:  E(UB3LYP) =  -5721.67024808     A.U. after   18 cycles
 SCF Done:  E(UB3LYP) =  -5721.67028723     A.U. after   21 cycles
 SCF Done:  E(UB3LYP) =  -5721.66823800     A.U. after   24 cycles
 SCF Done:  E(UB3LYP) =  -5721.67082721     A.U. after   19 cycles
 SCF Done:  E(UB3LYP) =  -5721.66956258     A.U. after   22 cycles
 SCF Done:  E(UB3LYP) =  -5721.67090462     A.U. after   16 cycles
 SCF Done:  E(UB3LYP) =  -5721.67095813     A.U. after   17 cycles
 SCF Done:  E(UB3LYP) =  -5721.67099156     A.U. after   18 cycles
 SCF Done:  E(UB3LYP) =  -5721.67100022     A.U. after   17 cycles
 SCF Done:  E(UB3LYP) =  -5721.67100314     A.U. after   15 cycles
 SCF Done:  E(UB3LYP) =  -5721.67100341     A.U. after   15 cycles
 SCF Done:  E(UB3LYP) =  -5721.67100375     A.U. after   13 cycles
 SCF Done:  E(UB3LYP) =  -5721.67100438     A.U. after   15 cycles
 SCF Done:  E(UB3LYP) =  -5721.67100447     A.U. after   13 cycles
 SCF Done:  E(UB3LYP) =  -5721.67100451     A.U. after   13 cycles
 Optimization completed.
    -- Stationary point found.
 Normal termination of Gaussian 16 at Mon Jan 15 17:27:22 2024.

 ----------------------------------------------------------------------
 #P Geom=AllCheck Guess=TCheck SCRF=Check GenChk UB3LYP/6-311++G(d,p) F
 req
 ----------------------------------------------------------------------

 Structure from the checkpoint file:  "234-an.chk"
 -------
 Reduced
 -------
 Charge = -2 Multiplicity = 1

                          Input orientation:
 ---------------------------------------------------------------------
 Center     Atomic      Atomic             Coordinates (Angstroms)
 Number     Number       Type             X           Y           Z
 ---------------------------------------------------------------------
      1          6           0        5.713279   -5.240685    1.119908
      2          6           0        6.656585   -5.096933    0.129094
      3          6           0        6.521527   -4.073716   -0.835965
      4          6           0        4.629960   -4.340913    1.249271
      5          6           0        4.474947   -3.309532    0.240445
      6          6           0        5.470881   -3.186731   -0.750966
      7          6           0        3.696522   -4.505534    2.346149
      8          6           0        2.602593   -3.579079    2.328974
      9          6           0        2.467203   -2.583994    1.351538
     10          6           0        3.352533   -2.382344    0.250756
     11          8           0        3.831831   -5.404287    3.261136
     12          8           0        3.183005   -1.475544   -0.645413
     13          1           0        5.749757   -6.067034    1.821963
     14          1           0        5.383613   -2.345214   -1.430447
     15         35           0        7.942806   -6.586685   -0.137107
     16         35           0        8.025538   -3.603301   -2.044827
     17          6           0        1.594238   -3.696317    3.443880
     18          1           0        1.609581   -1.911448    1.400655
     19          1           0        2.057917   -3.515194    4.424062
     20          1           0        1.186097   -4.714275    3.499361
     21          1           0        0.769757   -2.985770    3.309374
 ---------------------------------------------------------------------

 SCF Done:  E(UB3LYP) =  -5721.67100451     A.U. after    2 cycles

 Alpha  occ. eigenvalues -- -482.60373-482.60336 -62.25650 -62.25612 -56.07653
 Alpha  occ. eigenvalues --  -56.07615 -56.07317 -56.07306 -56.07278 -56.07267
 Alpha  occ. eigenvalues --  -18.78332 -18.78229  -9.98805  -9.98661  -9.94384
 Alpha  occ. eigenvalues --   -9.94114  -9.93696  -9.93672  -9.93187  -9.91360
 Alpha  occ. eigenvalues --   -9.91309  -9.90951  -9.89691  -8.46596  -8.46557
 Alpha  occ. eigenvalues --   -6.29624  -6.29585  -6.28506  -6.28478  -6.28467
 Alpha  occ. eigenvalues --   -6.28440  -2.40733  -2.40693  -2.40418  -2.40398
 Alpha  occ. eigenvalues --   -2.40379  -2.40360  -2.39510  -2.39509  -2.39471
 Alpha  occ. eigenvalues --   -2.39470  -0.69995  -0.69573  -0.63139  -0.56698
 Alpha  occ. eigenvalues --   -0.56549  -0.54169  -0.49757  -0.49097  -0.44468
 Alpha  occ. eigenvalues --   -0.40287  -0.36579  -0.33916  -0.29946  -0.24987
 Alpha  occ. eigenvalues --   -0.23278  -0.21578  -0.19215  -0.18801  -0.18013
 Alpha  occ. eigenvalues --   -0.16728  -0.15926  -0.14667  -0.13794  -0.12394
 Alpha  occ. eigenvalues --   -0.11950  -0.11240  -0.09523  -0.09236  -0.08168
 Alpha  occ. eigenvalues --   -0.08014  -0.07748  -0.06236  -0.05658  -0.00652
 Alpha  occ. eigenvalues --    0.01064   0.01596   0.03858   0.04294   0.12241
 Alpha virt. eigenvalues --    0.15942   0.16737   0.17878   0.19428   0.19529
 Alpha virt. eigenvalues --    0.20623   0.20804   0.21204   0.21672   0.21917
 Alpha virt. eigenvalues --    0.22275   0.22335   0.23129   0.24459   0.24929

  Beta  occ. eigenvalues -- -482.60373-482.60336 -62.25650 -62.25612 -56.07653
  Beta  occ. eigenvalues --  -56.07615 -56.07317 -56.07306 -56.07278 -56.07267
  Beta  occ. eigenvalues --  -18.78332 -18.78229  -9.98805  -9.98661  -9.94384
  Beta  occ. eigenvalues --   -9.94114  -9.93696  -9.93672  -9.93187  -9.91360
  Beta  occ. eigenvalues --   -9.91309  -9.90951  -9.89691  -8.46596  -8.46557
  Beta  occ. eigenvalues --   -6.29624  -6.29585  -6.28506  -6.28478  -6.28467
  Beta  occ. eigenvalues --   -6.28440  -2.40733  -2.40693  -2.40418  -2.40398
  Beta  occ. eigenvalues --   -2.40379  -2.40360  -2.39510  -2.39509  -2.39471
  Beta  occ. eigenvalues --   -2.39470  -0.69995  -0.69573  -0.63139  -0.56698
  Beta  occ. eigenvalues --   -0.56549  -0.54169  -0.49757  -0.49097  -0.44468
  Beta  occ. eigenvalues --   -0.40287  -0.36579  -0.33916  -0.29946  -0.24987
  Beta  occ. eigenvalues --   -0.23278  -0.21578  -0.19215  -0.18801  -0.18013
  Beta  occ. eigenvalues --   -0.16728  -0.15926  -0.14667  -0.13794  -0.12394
  Beta  occ. eigenvalues --   -0.11950  -0.11240  -0.09523  -0.09236  -0.08168
  Beta  occ. eigenvalues --   -0.08014  -0.07748  -0.06236  -0.05658  -0.00652
  Beta  occ. eigenvalues --    0.01064   0.01596   0.03858   0.04294   0.12241
  Beta virt. eigenvalues --    0.15942   0.16737   0.17878   0.19428   0.19529
  Beta virt. eigenvalues --    0.20623   0.20804   0.21204   0.21672   0.21917
  Beta virt. eigenvalues --    0.22275   0.22335   0.23129   0.24459   0.24929

 Mulliken charges and spin densities:
               1          2
     1  C   -0.126010   0.000000
     2  C   -0.028181   0.000000
     3  C    0.228891  -0.000000
     4  C    0.299956  -0.000000
     5  C    0.538630   0.000000
     6  C   -0.280813  -0.000000
     7  C   -1.033009   0.000000
     8  C    1.171432  -0.000000
     9  C   -0.209087   0.000000
    10  C   -1.136495   0.000000
    11  O   -0.513254  -0.000000
    12  O   -0.529568   0.000000
    13  H    0.197123  -0.000000
    14  H    0.190482   0.000000
    15  Br  -0.373032   0.000000
    16  Br  -0.370850   0.000000
    17  C   -0.412828   0.000000
    18  H    0.046075  -0.000000
    19  H    0.113595   0.000000
    20  H    0.128824   0.000000
    21  H    0.098118  -0.000000
 Sum of Mulliken charges =  -2.00000   0.00000

 Dipole moment (field-independent basis, Debye):
    X=            -45.8817    Y=             37.6130    Z=             -6.1457  Tot=             59.6459
 Quadrupole moment (field-independent basis, Debye-Ang):
   XX=           -392.4866   YY=           -307.4669   ZZ=           -169.1611
   XY=            200.6115   XZ=             -6.1338   YZ=             42.2406

  Exact polarizability: 530.146-134.096 284.273-222.736   2.423 325.190
 Approx polarizability: 989.975-289.286 457.843-425.903  25.468 556.923

                      1                      2                      3
                      A                      A                      A
 Frequencies --     34.2760                62.3559                92.4407
 Red. masses --     15.5341                 4.6385                 1.0802
 Frc consts  --      0.0108                 0.0106                 0.0054
 IR Inten    --     16.0292                 3.5661                 2.2649

                      4                      5                      6
                      A                      A                      A
 Frequencies --    108.2034               123.4465               131.3724
 Red. masses --     42.2031                 9.9122                10.2562
 Frc consts  --      0.2911                 0.0890                 0.1043
 IR Inten    --     21.1399                 6.7206                 3.7746

                      7                      8                      9
                      A                      A                      A
 Frequencies --    181.4637               191.6709               199.6909
 Red. masses --      4.8628                13.0641                16.4956
 Frc consts  --      0.0943                 0.2828                 0.3876
 IR Inten    --     36.2559               117.7459                39.0358

                     10                     11                     12
                      A                      A                      A
 Frequencies --    208.9793               282.6630               288.8679
 Red. masses --      6.3670                 6.4724                 3.2069
 Frc consts  --      0.1638                 0.3047                 0.1577
 IR Inten    --     12.5237                 4.7293                 3.5654

                     13                     14                     15
                      A                      A                      A
 Frequencies --    366.2460               371.8461               376.5328
 Red. masses --      6.6268                 7.5191                 9.2230
 Frc consts  --      0.5237                 0.6125                 0.7704
 IR Inten    --     63.3472                27.0124                53.8570

                     16                     17                     18
                      A                      A                      A
 Frequencies --    427.4779               453.0634               491.0219
 Red. masses --      3.4606                 7.4811                 7.1318
 Frc consts  --      0.3726                 0.9048                 1.0131
 IR Inten    --     43.4048                 5.5181               278.5559

                     19                     20                     21
                      A                      A                      A
 Frequencies --    506.5061               553.0745               611.8876
 Red. masses --      6.6955                 7.3866                 4.0456
 Frc consts  --      1.0120                 1.3313                 0.8924
 IR Inten    --     83.7460               267.2681               200.4626

                     22                     23                     24
                      A                      A                      A
 Frequencies --    649.9974               663.0091               687.1262
 Red. masses --      4.6065                 6.6309                 3.7403
 Frc consts  --      1.1467                 1.7174                 1.0405
 IR Inten    --     12.2124                76.9736                15.0740

                     25                     26                     27
                      A                      A                      A
 Frequencies --    737.3224               775.8425               807.4511
 Red. masses --      6.6957                 4.1113                 5.7262
 Frc consts  --      2.1447                 1.4581                 2.1996
 IR Inten    --     63.3475                24.3178                38.6493

                     28                     29                     30
                      A                      A                      A
 Frequencies --    839.1649               909.0361               919.8245
 Red. masses --      1.6854                 1.4833                 1.4547
 Frc consts  --      0.6993                 0.7222                 0.7251
 IR Inten    --     36.7778                38.6506                27.6561

                     31                     32                     33
                      A                      A                      A
 Frequencies --    950.6308              1002.8747              1020.4384
 Red. masses --      5.0882                 1.6688                 2.4468
 Frc consts  --      2.7092                 0.9889                 1.5012
 IR Inten    --     96.7098               120.9552               537.7323

                     34                     35                     36
                      A                      A                      A
 Frequencies --   1037.9535              1100.8143              1147.6396
 Red. masses --      1.4768                 3.1834                 3.8919
 Frc consts  --      0.9374                 2.2729                 3.0201
 IR Inten    --      7.5745               102.1043                18.7027

                     37                     38                     39
                      A                      A                      A
 Frequencies --   1189.9950              1211.8684              1235.8753
 Red. masses --      5.3307                 1.3245                 2.0120
 Frc consts  --      4.4476                 1.1460                 1.8106
 IR Inten    --     44.1010                42.7104               120.4623

                     40                     41                     42
                      A                      A                      A
 Frequencies --   1333.4511              1339.4683              1370.0180
 Red. masses --      4.9963                 4.6995                 1.4810
 Frc consts  --      5.2342                 4.9678                 1.6378
 IR Inten    --    732.1302                12.5356               125.6513

                     43                     44                     45
                      A                      A                      A
 Frequencies --   1403.1229              1419.7041              1427.3470
 Red. masses --      3.3767                 4.8172                 6.4474
 Frc consts  --      3.9169                 5.7206                 7.7392
 IR Inten    --     22.5227               428.8635               153.9105

                     46                     47                     48
                      A                      A                      A
 Frequencies --   1452.7474              1456.7601              1486.2309
 Red. masses --      1.0543                 4.2186                 1.7106
 Frc consts  --      1.3110                 5.2747                 2.2263
 IR Inten    --      4.3992               172.6523                69.6856

                     49                     50                     51
                      A                      A                      A
 Frequencies --   1489.6709              1518.5442              1571.8205
 Red. masses --      3.7353                 5.3347                 5.9898
 Frc consts  --      4.8837                 7.2480                 8.7191
 IR Inten    --    172.3592               225.6766               816.7412

                     52                     53                     54
                      A                      A                      A
 Frequencies --   2966.1560              2992.9771              3036.8013
 Red. masses --      1.0380                 1.0935                 1.1009
 Frc consts  --      5.3807                 5.7712                 5.9818
 IR Inten    --    445.2144               144.0915                37.2614

                     55                     56                     57
                      A                      A                      A
 Frequencies --   3085.9261              3163.4569              3166.0303
 Red. masses --      1.0865                 1.0884                 1.0888
 Frc consts  --      6.0964                 6.4173                 6.4300
 IR Inten    --    180.7834                 3.3099                18.7823

 - Thermochemistry -
 -------------------
 Temperature   298.150 Kelvin.  Pressure   1.00000 Atm.
 Atom     1 has atomic number  6 and mass  12.00000

 Molecular mass:   327.87345 amu.
 Principal axes and moments of inertia in atomic units:
                           1         2         3
     Eigenvalues --  3288.701608525.24000**********
           X            0.82832  -0.10467   0.55038
           Y           -0.25033   0.80972   0.53074
           Z           -0.50121  -0.57740   0.64451
 This molecule is an asymmetric top.
 Rotational symmetry number  1.
 Warning -- assumption of classical behavior for rotation
           may cause significant error
 Rotational temperatures (Kelvin)      0.02634     0.01016     0.00740
 Rotational constants (GHZ):           0.54877     0.21169     0.15420
 Zero-point vibrational energy     350686.4 (Joules/Mol)
                                   83.81606 (Kcal/Mol)
 Warning -- explicit consideration of  21 degrees of freedom as
           vibrations may cause significant error
 Vibrational temperatures:     49.32    89.72   133.00   155.68   177.61
          (Kelvin)            189.02   261.09   275.77   287.31   300.67
                              406.69   415.62   526.95   535.00   541.75
                              615.05   651.86   706.47   728.75   795.75
                              880.37   935.20   953.92   988.62  1060.84
                             1116.26  1161.74  1207.37  1307.90  1323.42
                             1367.75  1442.91  1468.18  1493.38  1583.83
                             1651.20  1712.14  1743.61  1778.15  1918.54
                             1927.20  1971.15  2018.78  2042.64  2053.63
                             2090.18  2095.95  2138.35  2143.30  2184.85
                             2261.50  4267.64  4306.23  4369.28  4439.96
                             4551.51  4555.21

 Zero-point correction=                           0.133569 (Hartree/Particle)
 Thermal correction to Energy=                    0.147545
 Thermal correction to Enthalpy=                  0.148489
 Thermal correction to Gibbs Free Energy=         0.090482
 Sum of electronic and zero-point Energies=          -5721.537435
 Sum of electronic and thermal Energies=             -5721.523460
 Sum of electronic and thermal Enthalpies=           -5721.522516
 Sum of electronic and thermal Free Energies=        -5721.580523

                     E (Thermal)             CV                S
                      KCal/Mol        Cal/Mol-Kelvin    Cal/Mol-Kelvin
 Total                   92.586             50.527            122.087
 Electronic               0.000              0.000              0.000
 Translational            0.889              2.981             43.258
 Rotational               0.889              2.981             34.150
 Vibrational             90.808             44.566             44.679
 Vibration     1          0.594              1.983              5.565
 Vibration     2          0.597              1.972              4.381
 Vibration     3          0.602              1.955              3.608
 Vibration     4          0.606              1.943              3.301
 Vibration     5          0.610              1.929              3.046
 Vibration     6          0.612              1.922              2.926
 Vibration     7          0.630              1.865              2.313
 Vibration     8          0.634              1.851              2.212
 Vibration     9          0.638              1.840              2.136
 Vibration    10          0.642              1.827              2.053
 Vibration    11          0.682              1.706              1.518
 Vibration    12          0.685              1.694              1.481
 Vibration    13          0.739              1.542              1.095
 Vibration    14          0.744              1.530              1.072
 Vibration    15          0.747              1.520              1.053
 Vibration    16          0.789              1.410              0.867
 Vibration    17          0.812              1.354              0.787
 Vibration    18          0.847              1.270              0.681
 Vibration    19          0.862              1.236              0.642
 Vibration    20          0.908              1.133              0.538
 Vibration    21          0.971              1.007              0.430

 Optimization completed.
    -- Stationary point found.
 Normal termination of Gaussian 16 at Mon Jan 15 17:45:34 2024.
