 Q-Chem 5.4, Q-Chem, Inc., Pleasanton, CA (2021)
 Q-Chem 5.4.0 for Intel X86 EM64T Linux

User input:
--------------------------------------------------------------
$molecule
-2 1
C                  5.7132790000     -5.2406850000      1.1199080000
C                  6.6565850000     -5.0969330000      0.1290940000
C                  6.5215270000     -4.0737160000     -0.8359650000
C                  4.6299600000     -4.3409130000      1.2492710000
C                  4.4749470000     -3.3095320000      0.2404450000
C                  5.4708810000     -3.1867310000     -0.7509660000
C                  3.6965220000     -4.5055340000      2.3461490000
C                  2.6025930000     -3.5790790000      2.3289740000
C                  2.4672030000     -2.5839940000      1.3515380000
C                  3.3525330000     -2.3823440000      0.2507560000
O                  3.8318310000     -5.4042870000      3.2611360000
O                  3.1830050000     -1.4755440000     -0.6454130000
H                  5.7497570000     -6.0670340000      1.8219630000
H                  5.3836130000     -2.3452140000     -1.4304470000
Br                 7.9428060000     -6.5866850000     -0.1371070000
Br                 8.0255380000     -3.6033010000     -2.0448270000
C                  1.5942380000     -3.6963170000      3.4438800000
H                  1.6095810000     -1.9114480000      1.4006550000
H                  2.0579170000     -3.5151940000      4.4240620000
H                  1.1860970000     -4.7142750000      3.4993610000
H                  0.7697570000     -2.9857700000      3.3093740000
$end
$rem
MAX_SCF_CYCLES=200
BASIS  =  6-311++G(d,p)
GUI  =  2
JOB_TYPE  =  SP
METHOD  =  B3LYP
SOLVENT_METHOD = COSMO
$end
$solvent
dielectric 37.219
opticaldielectric 1.43
$end

--------------------------------------------------------------

             Standard Nuclear Orientation (Angstroms)
    I     Atom           X                Y                Z
 ----------------------------------------------------------------
    1      C       0.3375647680    -1.2852159051    -0.0942041980
    2      C      -0.9095200052    -0.7058347695    -0.0581445537
    3      C      -1.0374845994     0.6943636708     0.0819338395
    4      C       1.5182699838    -0.5074245964    -0.0645332186
    5      C       1.3866021112     0.9270366277     0.1100813961
    6      C       0.0905965685     1.4837041333     0.1288246747
    7      C       2.8058828220    -1.1662114898    -0.1625175448
    8      C       3.9275703821    -0.2808012673    -0.0477993682
    9      C       3.7867391690     1.1039031967     0.1154974787
   10      C       2.5459522015     1.8004544188     0.2225350384
   11      O       2.9386263027    -2.4370185316    -0.3377183484
   12      O       2.4530012186     3.0708600392     0.4002272829
   13      H       0.4617124443    -2.3627526905    -0.1180026813
   14      H       0.0235821305     2.5663483288     0.1580069532
   15      Br     -2.4713181993    -1.9041678104     0.2052425730
   16      Br     -2.7789160063     1.5980099383    -0.2271402191
   17      C       5.2978180169    -0.9030333449    -0.1415469260
   18      H       4.6847302805     1.7184203017     0.1944074778
   19      H       5.4557076974    -1.3786524053    -1.1200242468
   20      H       5.4149127769    -1.7088058029     0.5952809169
   21      H       6.0845831859    -0.1554083150     0.0159180096
 ----------------------------------------------------------------

   12   -5721.6671357396      7.35e-06  Convergence criterion met
 Total energy in the final basis set =    -5721.6671357396
    6   -5721.9297894424      7.38e-06  Convergence criterion met
 Total energy in the final basis set =    -5721.9297894424

                    Orbital Energies (a.u.)
 --------------------------------------------------------------

 Alpha MOs
 -- Occupied --
********-482.8230 -62.4760 -62.4758 -56.2964 -56.2962 -56.2927 -56.2926
-56.2925 -56.2923 -19.0309 -19.0280 -10.2219 -10.2206 -10.1837 -10.1785
-10.1699 -10.1690 -10.1522 -10.1518 -10.1421 -10.1403 -10.1293  -8.6845
 -8.6843  -6.5155  -6.5153  -6.5032  -6.5030  -6.5029  -6.5027  -2.6265
 -2.6263  -2.6230  -2.6227  -2.6227  -2.6226  -2.6130  -2.6130  -2.6128
 -2.6127  -0.9485  -0.9437  -0.8640  -0.7987  -0.7886  -0.7688  -0.7302
 -0.7176  -0.6729  -0.6367  -0.5988  -0.5709  -0.5338  -0.4826  -0.4642
 -0.4517  -0.4219  -0.4195  -0.4028  -0.3997  -0.3875  -0.3797  -0.3658
 -0.3595  -0.3535  -0.3482  -0.3290  -0.3264  -0.3216  -0.3085  -0.2990
 -0.2886  -0.2759  -0.2417  -0.2341  -0.2189  -0.2124  -0.2057  -0.1232

          Ground-State Mulliken Net Atomic Charges

     Atom                 Charge (a.u.)
  ----------------------------------------
      1 C                    -0.157732
      2 C                    -0.050309
      3 C                     0.257292
      4 C                     0.087385
      5 C                     0.439527
      6 C                    -0.413752
      7 C                    -0.514186
      8 C                     0.787724
      9 C                    -0.384953
     10 C                    -0.734368
     11 O                    -0.708763
     12 O                    -0.725539
     13 H                     0.194149
     14 H                     0.195796
     15 Br                   -0.255973
     16 Br                   -0.251838
     17 C                    -0.344907
     18 H                     0.123566
     19 H                     0.155567
     20 H                     0.156165
     21 H                     0.145147
  ----------------------------------------
  Sum of atomic charges =    -2.000000

                    Cartesian Multipole Moments
 -----------------------------------------------------------------
    Charge (ESU x 10^10)
                -9.6064
    Dipole Moment (Debye)
         X     -16.4742      Y      -2.5240      Z      -0.2751
       Tot      16.6687
    Quadrupole Moments (Debye-Ang)
        XX    -188.5947     XY      -3.1305     YY    -180.7623
        XZ      -0.1342     YZ      -7.6806     ZZ    -123.4791

 Total job time:  58.14s(wall), 445.55s(cpu)
        *  Thank you very much for using Q-Chem.  Have a nice day.  *
