 Gaussian 16, Revision A.03,
 Gaussian 16:  ES64L-G16RevA.03 25-Dec-2016

 --------------------------------------
 #P UB3LYP/6-311++G(d,p) nosym opt freq
 --------------------------------------

 -------
 Radical
 -------
 Symbolic Z-matrix:
 Charge = -1 Multiplicity = 2

 SCF Done:  E(UB3LYP) =  -612.756761116     A.U. after   25 cycles
 Optimization completed.
    -- Stationary point found.
 Normal termination of Gaussian 16 at Wed Jan 10 04:52:49 2024.

 ----------------------------------------------------------------------
 #P Geom=AllCheck Guess=TCheck SCRF=Check GenChk UB3LYP/6-311++G(d,p) F
 req
 ----------------------------------------------------------------------

 Structure from the checkpoint file:  "062-rad.chk"
 -------
 Radical
 -------
 Charge = -1 Multiplicity = 2

                          Input orientation:
 ---------------------------------------------------------------------
 Center     Atomic      Atomic             Coordinates (Angstroms)
 Number     Number       Type             X           Y           Z
 ---------------------------------------------------------------------
      1          6           0       -1.977943   -2.098873    1.289936
      2          6           0       -2.262457   -2.165474   -0.149761
      3          6           0       -1.481280   -1.444124   -1.035065
      4          6           0       -0.386910   -0.587065   -0.646713
      5          6           0       -0.133955   -0.519819    0.778997
      6          6           0       -0.881228   -1.228734    1.674179
      7          8           0       -2.632824   -2.733722    2.162343
      8          8           0        0.305519    0.053882   -1.489817
      9          6           0       -3.381906   -2.993400   -0.659467
     10          6           0       -3.746120   -4.213077   -0.056901
     11          6           0       -4.117489   -2.589312   -1.789904
     12          6           0       -5.145645   -3.371009   -2.310528
     13          6           0       -4.773469   -4.994839   -0.579086
     14          6           0       -5.480771   -4.584465   -1.709960
     15          1           0       -1.654444   -1.520467   -2.104283
     16          1           0        0.683921    0.117750    1.104232
     17          1           0       -0.682524   -1.174305    2.741097
     18          1           0       -3.221117   -4.526077    0.834084
     19          1           0       -3.886406   -1.637658   -2.254642
     20          1           0       -5.693771   -3.024788   -3.181802
     21          1           0       -5.025821   -5.933601   -0.094723
     22          1           0       -6.284279   -5.194564   -2.110494
 ---------------------------------------------------------------------

 SCF Done:  E(UB3LYP) =  -612.756761116     A.U. after    2 cycles

 Alpha  occ. eigenvalues --  -18.94108 -18.93849 -10.09040 -10.08314 -10.07015
 Alpha  occ. eigenvalues --  -10.07006 -10.06947 -10.06727 -10.06273 -10.05608
 Alpha  occ. eigenvalues --  -10.04776 -10.03537 -10.03462 -10.03337  -0.86452
 Alpha  occ. eigenvalues --   -0.85741  -0.74930  -0.69544  -0.65381  -0.63768
 Alpha  occ. eigenvalues --   -0.60226  -0.55035  -0.50370  -0.49751  -0.46032
 Alpha  occ. eigenvalues --   -0.43807  -0.40015  -0.35390  -0.35286  -0.33531
 Alpha  occ. eigenvalues --   -0.32547  -0.31586  -0.31215  -0.29427  -0.27464
 Alpha  occ. eigenvalues --   -0.26541  -0.25962  -0.25305  -0.23939  -0.23442
 Alpha  occ. eigenvalues --   -0.23039  -0.22660  -0.16809  -0.14771  -0.14324
 Alpha  occ. eigenvalues --   -0.11332  -0.10378  -0.09967  -0.02767
 Alpha virt. eigenvalues --    0.07356   0.08074   0.09152   0.09522   0.10212
 Alpha virt. eigenvalues --    0.10665   0.12185   0.12793   0.12947   0.13239
 Alpha virt. eigenvalues --    0.14119   0.15620   0.15968   0.16213   0.17212

  Beta  occ. eigenvalues --  -18.93422 -18.93073 -10.08936 -10.08234 -10.07021
  Beta  occ. eigenvalues --  -10.07020 -10.06929 -10.06735 -10.06251 -10.05590
  Beta  occ. eigenvalues --  -10.04669 -10.03440 -10.03361 -10.03174  -0.85267
  Beta  occ. eigenvalues --   -0.84391  -0.74883  -0.69023  -0.65182  -0.63747
  Beta  occ. eigenvalues --   -0.59986  -0.54084  -0.50151  -0.49690  -0.45727
  Beta  occ. eigenvalues --   -0.43555  -0.39891  -0.35276  -0.35169  -0.33166
  Beta  occ. eigenvalues --   -0.32375  -0.31440  -0.31142  -0.29253  -0.26575
  Beta  occ. eigenvalues --   -0.25827  -0.25276  -0.24802  -0.23622  -0.22830
  Beta  occ. eigenvalues --   -0.22452  -0.20700  -0.16127  -0.14711  -0.11603
  Beta  occ. eigenvalues --   -0.10136  -0.09703  -0.09265
  Beta virt. eigenvalues --    0.04288   0.07355   0.08773   0.09151   0.09574
  Beta virt. eigenvalues --    0.10223   0.10669   0.12209   0.12893   0.13014
  Beta virt. eigenvalues --    0.14070   0.14233   0.15658   0.16018   0.16967

 Mulliken charges and spin densities:
               1          2
     1  C   -1.258488   0.026123
     2  C    1.767015   0.113604
     3  C   -0.593418   0.080361
     4  C   -0.779357   0.090971
     5  C    0.158183   0.072532
     6  C    0.083653   0.096761
     7  O   -0.373021   0.249676
     8  O   -0.411858   0.275923
     9  C    1.302962  -0.012483
    10  C   -0.451184   0.004437
    11  C   -0.775085   0.023062
    12  C   -0.245234  -0.009175
    13  C   -0.094446   0.000326
    14  C   -0.492924   0.017080
    15  H    0.135662  -0.010992
    16  H    0.148940  -0.006194
    17  H    0.152116  -0.007504
    18  H    0.180268  -0.002504
    19  H    0.145452  -0.001689
    20  H    0.136475   0.000636
    21  H    0.142878   0.000357
    22  H    0.121413  -0.001308
 Sum of Mulliken charges =  -1.00000   1.00000

 Dipole moment (field-independent basis, Debye):
    X=              7.6407    Y=              7.8076    Z=             -0.0577  Tot=             10.9244
 Quadrupole moment (field-independent basis, Debye-Ang):
   XX=           -116.1988   YY=           -110.4233   ZZ=           -101.9716
   XY=            -26.3560   XZ=             11.3134   YZ=              7.2874

  Exact polarizability: 191.400  79.575 166.546  21.104  -9.049 175.190
 Approx polarizability: 280.923 113.255 262.577   4.342 -49.624 300.065

                      1                      2                      3
                      A                      A                      A
 Frequencies --     54.7334                80.0944               108.1090
 Red. masses --      4.4687                 4.5323                 6.5371
 Frc consts  --      0.0079                 0.0171                 0.0450
 IR Inten    --      0.5304                 2.1827                 4.2810

                      4                      5                      6
                      A                      A                      A
 Frequencies --    138.0727               246.4264               279.7878
 Red. masses --      7.2159                 5.1423                 8.1219
 Frc consts  --      0.0811                 0.1840                 0.3746
 IR Inten    --      5.3223                 0.3630                 5.8153

                      7                      8                      9
                      A                      A                      A
 Frequencies --    306.4606               341.4739               416.0808
 Red. masses --      5.8069                 4.8663                 5.9952
 Frc consts  --      0.3213                 0.3343                 0.6115
 IR Inten    --      1.2371                 0.4628                 5.3929

                     10                     11                     12
                      A                      A                      A
 Frequencies --    418.6378               437.3687               478.7890
 Red. masses --      3.5570                 3.7659                11.4227
 Frc consts  --      0.3673                 0.4244                 1.5428
 IR Inten    --      0.4596                 2.8844                 0.7769

                     13                     14                     15
                      A                      A                      A
 Frequencies --    511.2771               553.7689               617.9863
 Red. masses --      2.7918                 4.6929                 2.8184
 Frc consts  --      0.4300                 0.8479                 0.6342
 IR Inten    --      1.2745                 3.8045                12.8290

                     16                     17                     18
                      A                      A                      A
 Frequencies --    632.6541               642.0803               700.0433
 Red. masses --      5.8847                 6.2659                 1.7329
 Frc consts  --      1.3877                 1.5220                 0.5004
 IR Inten    --      2.7472                 2.2866                42.2143

                     19                     20                     21
                      A                      A                      A
 Frequencies --    708.9209               747.3539               766.6981
 Red. masses --      5.8513                 3.3099                 1.9649
 Frc consts  --      1.7326                 1.0892                 0.6805
 IR Inten    --      5.2072                10.9504                17.5151

                     22                     23                     24
                      A                      A                      A
 Frequencies --    816.5271               828.5060               842.3979
 Red. masses --      5.2871                 2.0489                 1.2596
 Frc consts  --      2.0769                 0.8286                 0.5266
 IR Inten    --     27.7771                27.2969                 1.5664

                     25                     26                     27
                      A                      A                      A
 Frequencies --    880.7562               887.8891               916.2720
 Red. masses --      2.7916                 2.0741                 1.6139
 Frc consts  --      1.2759                 0.9634                 0.7983
 IR Inten    --     12.1480                20.9679                 3.0164

                     28                     29                     30
                      A                      A                      A
 Frequencies --    958.9612               972.2852               977.7296
 Red. masses --      1.2784                 1.3304                 1.3032
 Frc consts  --      0.6927                 0.7410                 0.7340
 IR Inten    --      0.2529                 0.0658                 3.2545

                     31                     32                     33
                      A                      A                      A
 Frequencies --   1002.0336              1012.4468              1051.0532
 Red. masses --      3.2263                 6.0615                 2.0820
 Frc consts  --      1.9086                 3.6608                 1.3551
 IR Inten    --     25.6567                 5.5657                 8.6156

                     34                     35                     36
                      A                      A                      A
 Frequencies --   1095.5310              1098.9861              1172.7488
 Red. masses --      1.6557                 1.6931                 1.0948
 Frc consts  --      1.1708                 1.2048                 0.8872
 IR Inten    --      4.8426                 3.1394                 0.3789

                     37                     38                     39
                      A                      A                      A
 Frequencies --   1188.4395              1203.4769              1253.1130
 Red. masses --      1.7804                 1.2214                 1.4755
 Frc consts  --      1.4816                 1.0423                 1.3651
 IR Inten    --     44.0488                 4.2691                23.9007

                     40                     41                     42
                      A                      A                      A
 Frequencies --   1258.5149              1305.2011              1344.5261
 Red. masses --      4.3932                 3.0619                 2.9332
 Frc consts  --      4.0997                 3.0733                 3.1242
 IR Inten    --     10.0904                 2.2701                 5.7282

                     43                     44                     45
                      A                      A                      A
 Frequencies --   1355.9123              1420.6070              1468.8370
 Red. masses --      1.5657                 3.8204                 2.4837
 Frc consts  --      1.6960                 4.5426                 3.1571
 IR Inten    --      6.2117                41.4952                 5.3006

                     46                     47                     48
                      A                      A                      A
 Frequencies --   1480.9141              1506.7009              1520.4632
 Red. masses --      7.1495                 4.5513                 2.5897
 Frc consts  --      9.2382                 6.0875                 3.5274
 IR Inten    --     69.2113                21.8309               113.1920

                     49                     50                     51
                      A                      A                      A
 Frequencies --   1529.2648              1601.9376              1629.5006
 Red. masses --      5.7085                 5.2517                 5.5436
 Frc consts  --      7.8657                 7.9403                 8.6726
 IR Inten    --    371.0396                 5.5589                80.7611

                     52                     53                     54
                      A                      A                      A
 Frequencies --   1638.3127              3132.5255              3135.1150
 Red. masses --      6.6956                 1.0850                 1.0837
 Frc consts  --     10.5885                 6.2732                 6.2756
 IR Inten    --      0.6754                18.6215                 1.9827

                     55                     56                     57
                      A                      A                      A
 Frequencies --   3145.6794              3150.9853              3155.9309
 Red. masses --      1.0889                 1.0896                 1.0941
 Frc consts  --      6.3482                 6.3737                 6.4206
 IR Inten    --     42.7235                24.6370                33.2443

                     58                     59                     60
                      A                      A                      A
 Frequencies --   3163.4131              3177.7656              3218.9533
 Red. masses --      1.0944                 1.0927                 1.0920
 Frc consts  --      6.4525                 6.5014                 6.6667
 IR Inten    --     63.2794                17.1813                 4.3055

 - Thermochemistry -
 -------------------
 Temperature   298.150 Kelvin.  Pressure   1.00000 Atm.
 Atom     1 has atomic number  6 and mass  12.00000

 Molecular mass:   184.05243 amu.
 Principal axes and moments of inertia in atomic units:
                           1         2         3
     Eigenvalues --  1236.526403997.992345077.81010
           X            0.76637  -0.04354  -0.64092
           Y            0.59847  -0.31420   0.73696
           Z            0.23347   0.94836   0.21473
 This molecule is an asymmetric top.
 Rotational symmetry number  1.
 Warning -- assumption of classical behavior for rotation
           may cause significant error
 Rotational temperatures (Kelvin)      0.07005     0.02166     0.01706
 Rotational constants (GHZ):           1.45953     0.45141     0.35542
 Zero-point vibrational energy     428783.7 (Joules/Mol)
                                  102.48176 (Kcal/Mol)
 Warning -- explicit consideration of  15 degrees of freedom as
           vibrations may cause significant error
 Vibrational temperatures:     78.75   115.24   155.54   198.66   354.55
          (Kelvin)            402.55   440.93   491.30   598.65   602.33
                              629.28   688.87   735.61   796.75   889.14
                              910.25   923.81  1007.21  1019.98  1075.28
                             1103.11  1174.80  1192.04  1212.02  1267.21
                             1277.47  1318.31  1379.73  1398.90  1406.73
                             1441.70  1456.69  1512.23  1576.22  1581.20
                             1687.32  1709.90  1731.53  1802.95  1810.72
                             1877.89  1934.47  1950.86  2043.94  2113.33
                             2130.71  2167.81  2187.61  2200.27  2304.83
                             2344.49  2357.17  4507.01  4510.73  4525.93
                             4533.56  4540.68  4551.45  4572.10  4631.36

 Zero-point correction=                           0.163315 (Hartree/Particle)
 Thermal correction to Energy=                    0.173993
 Thermal correction to Enthalpy=                  0.174937
 Thermal correction to Gibbs Free Energy=         0.125569
 Sum of electronic and zero-point Energies=           -612.593446
 Sum of electronic and thermal Energies=              -612.582768
 Sum of electronic and thermal Enthalpies=            -612.581824
 Sum of electronic and thermal Free Energies=         -612.631192

                     E (Thermal)             CV                S
                      KCal/Mol        Cal/Mol-Kelvin    Cal/Mol-Kelvin
 Total                  109.182             42.583            103.904
 Electronic               0.000              0.000              1.377
 Translational            0.889              2.981             41.536
 Rotational               0.889              2.981             31.596
 Vibrational            107.405             36.622             29.394
 Vibration     1          0.596              1.976              4.639
 Vibration     2          0.600              1.963              3.889
 Vibration     3          0.606              1.943              3.303
 Vibration     4          0.614              1.915              2.830
 Vibration     5          0.661              1.769              1.756
 Vibration     6          0.680              1.711              1.535
 Vibration     7          0.697              1.661              1.381
 Vibration     8          0.721              1.593              1.205
 Vibration     9          0.779              1.435              0.905
 Vibration    10          0.781              1.430              0.897
 Vibration    11          0.798              1.389              0.835
 Vibration    12          0.835              1.297              0.713
 Vibration    13          0.866              1.225              0.631
 Vibration    14          0.909              1.131              0.536
 Vibration    15          0.978              0.994              0.420

 Optimization completed.
    -- Stationary point found.
 Normal termination of Gaussian 16 at Wed Jan 10 05:17:12 2024.
