 Q-Chem 5.4, Q-Chem, Inc., Pleasanton, CA (2021)
 Q-Chem 5.4.0 for Intel X86 EM64T Linux

User input:
--------------------------------------------------------------
$molecule
-1 2
C                 -1.9779430000     -2.0988730000      1.2899360000
C                 -2.2624570000     -2.1654740000     -0.1497610000
C                 -1.4812800000     -1.4441240000     -1.0350650000
C                 -0.3869100000     -0.5870650000     -0.6467130000
C                 -0.1339550000     -0.5198190000      0.7789970000
C                 -0.8812280000     -1.2287340000      1.6741790000
O                 -2.6328240000     -2.7337220000      2.1623430000
O                  0.3055190000      0.0538820000     -1.4898170000
C                 -3.3819060000     -2.9934000000     -0.6594670000
C                 -3.7461200000     -4.2130770000     -0.0569010000
C                 -4.1174890000     -2.5893120000     -1.7899040000
C                 -5.1456450000     -3.3710090000     -2.3105280000
C                 -4.7734690000     -4.9948390000     -0.5790860000
C                 -5.4807710000     -4.5844650000     -1.7099600000
H                 -1.6544440000     -1.5204670000     -2.1042830000
H                  0.6839210000      0.1177500000      1.1042320000
H                 -0.6825240000     -1.1743050000      2.7410970000
H                 -3.2211170000     -4.5260770000      0.8340840000
H                 -3.8864060000     -1.6376580000     -2.2546420000
H                 -5.6937710000     -3.0247880000     -3.1818020000
H                 -5.0258210000     -5.9336010000     -0.0947230000
H                 -6.2842790000     -5.1945640000     -2.1104940000
$end
$rem
MAX_SCF_CYCLES=200
BASIS  =  6-311++G(d,p)
GUI  =  2
JOB_TYPE  =  SP
METHOD  =  B3LYP
SOLVENT_METHOD = PCM
$end
$pcm
theory = CPCM
$end
$solvent
dielectric 37.219
opticaldielectric 1.43
$end

--------------------------------------------------------------

             Standard Nuclear Orientation (Angstroms)
    I     Atom           X                Y                Z
 ----------------------------------------------------------------
    1      C      -1.9779430000    -2.0988730000     1.2899360000
    2      C      -2.2624570000    -2.1654740000    -0.1497610000
    3      C      -1.4812800000    -1.4441240000    -1.0350650000
    4      C      -0.3869100000    -0.5870650000    -0.6467130000
    5      C      -0.1339550000    -0.5198190000     0.7789970000
    6      C      -0.8812280000    -1.2287340000     1.6741790000
    7      O      -2.6328240000    -2.7337220000     2.1623430000
    8      O       0.3055190000     0.0538820000    -1.4898170000
    9      C      -3.3819060000    -2.9934000000    -0.6594670000
   10      C      -3.7461200000    -4.2130770000    -0.0569010000
   11      C      -4.1174890000    -2.5893120000    -1.7899040000
   12      C      -5.1456450000    -3.3710090000    -2.3105280000
   13      C      -4.7734690000    -4.9948390000    -0.5790860000
   14      C      -5.4807710000    -4.5844650000    -1.7099600000
   15      H      -1.6544440000    -1.5204670000    -2.1042830000
   16      H       0.6839210000     0.1177500000     1.1042320000
   17      H      -0.6825240000    -1.1743050000     2.7410970000
   18      H      -3.2211170000    -4.5260770000     0.8340840000
   19      H      -3.8864060000    -1.6376580000    -2.2546420000
   20      H      -5.6937710000    -3.0247880000    -3.1818020000
   21      H      -5.0258210000    -5.9336010000    -0.0947230000
   22      H      -6.2842790000    -5.1945640000    -2.1104940000
 ----------------------------------------------------------------

    9    -612.8398423484      5.34e-06  Convergence criterion met
 Total energy in the final basis set =     -612.8398423484

                    Orbital Energies (a.u.)
 --------------------------------------------------------------

 Alpha MOs
 -- Occupied --
-19.0807 -19.0799 -10.2256 -10.2210 -10.1838 -10.1791 -10.1726 -10.1720
-10.1714 -10.1713 -10.1680 -10.1651 -10.1644 -10.1627  -1.0044  -0.9996
 -0.8601  -0.8240  -0.7732  -0.7448  -0.7234  -0.6825  -0.6219  -0.6072
 -0.5819  -0.5598  -0.5102  -0.4783  -0.4721  -0.4591  -0.4442  -0.4348
 -0.4189  -0.4165  -0.4074  -0.4050  -0.3839  -0.3787  -0.3682  -0.3613
 -0.3481  -0.3397  -0.2924  -0.2762  -0.2575  -0.2451  -0.2400  -0.2341
 -0.1650

 Beta MOs
 -- Occupied --
-19.0740 -19.0730 -10.2242 -10.2196 -10.1839 -10.1779 -10.1726 -10.1719
-10.1713 -10.1712 -10.1678 -10.1641 -10.1634 -10.1616  -0.9926  -0.9874
 -0.8593  -0.8186  -0.7712  -0.7445  -0.7213  -0.6724  -0.6192  -0.6064
 -0.5793  -0.5570  -0.5091  -0.4763  -0.4686  -0.4571  -0.4429  -0.4322
 -0.4184  -0.4138  -0.3995  -0.3921  -0.3790  -0.3677  -0.3596  -0.3499
 -0.3448  -0.3392  -0.2805  -0.2567  -0.2527  -0.2389  -0.2342  -0.2265

          Ground-State Mulliken Net Atomic Charges

     Atom                 Charge (a.u.)    Spin (a.u.)
  --------------------------------------------------------
      1 C                    -1.041768       0.057196
      2 C                     1.552842       0.124406
      3 C                    -0.639576       0.036901
      4 C                    -0.492119       0.135143
      5 C                     0.024894       0.070125
      6 C                    -0.022558       0.098437
      7 O                    -0.473957       0.243242
      8 O                    -0.531780       0.239730
      9 C                     1.184359      -0.018421
     10 C                    -0.468025       0.008657
     11 C                    -0.679050       0.023436
     12 C                    -0.306368      -0.008736
     13 C                    -0.162450      -0.000862
     14 C                    -0.514005       0.016534
     15 H                     0.181476      -0.008410
     16 H                     0.203082      -0.005862
     17 H                     0.203846      -0.007414
     18 H                     0.183168      -0.002437
     19 H                     0.190039      -0.001500
     20 H                     0.204983       0.000527
     21 H                     0.208477       0.000387
     22 H                     0.194489      -0.001077
  --------------------------------------------------------
  Sum of atomic charges =    -1.000000

                    Cartesian Multipole Moments
 -----------------------------------------------------------------
    Charge (ESU x 10^10)
                -4.8032
    Dipole Moment (Debye)
         X       5.8154      Y       6.5062      Z      -0.9492
       Tot       8.7779
    Quadrupole Moments (Debye-Ang)
        XX    -102.9693     XY     -16.6035     YY    -101.8304
        XZ      19.9863     YZ      13.1612     ZZ     -99.4877

 Total job time:  32.73s(wall), 247.68s(cpu)
        *  Thank you very much for using Q-Chem.  Have a nice day.  *
