 Gaussian 16, Revision A.03,
 Gaussian 16:  ES64L-G16RevA.03 25-Dec-2016

 ----------------------------------------------------------------------
 #P UB3LYP/6-311++G(d,p) nosym opt freq SCRF=(PCM,Solvent=n,n-DiMethylF
 ormamide)
 ----------------------------------------------------------------------

 -------
 Reduced
 -------
 Symbolic Z-matrix:
 Charge = -2 Multiplicity = 1

 SCF Done:  E(UB3LYP) =  -539.119362155     A.U. after   17 cycles
 SCF Done:  E(UB3LYP) =  -539.120747694     A.U. after   14 cycles
 SCF Done:  E(UB3LYP) =  -539.120918703     A.U. after   13 cycles
 SCF Done:  E(UB3LYP) =  -539.121015724     A.U. after   12 cycles
 SCF Done:  E(UB3LYP) =  -539.121049395     A.U. after   11 cycles
 SCF Done:  E(UB3LYP) =  -539.121050742     A.U. after   10 cycles
 SCF Done:  E(UB3LYP) =  -539.121051775     A.U. after   10 cycles
 SCF Done:  E(UB3LYP) =  -539.121052908     A.U. after   10 cycles
 SCF Done:  E(UB3LYP) =  -539.121040955     A.U. after   12 cycles
 SCF Done:  E(UB3LYP) =  -539.121055729     A.U. after   12 cycles
 SCF Done:  E(UB3LYP) =  -539.121061446     A.U. after   11 cycles
 SCF Done:  E(UB3LYP) =  -539.121063745     A.U. after   11 cycles
 SCF Done:  E(UB3LYP) =  -539.121063712     A.U. after   10 cycles
 SCF Done:  E(UB3LYP) =  -539.121064793     A.U. after   11 cycles
 SCF Done:  E(UB3LYP) =  -539.121064873     A.U. after   10 cycles
 SCF Done:  E(UB3LYP) =  -539.121064901     A.U. after    9 cycles
 SCF Done:  E(UB3LYP) =  -539.121064908     A.U. after    9 cycles
 SCF Done:  E(UB3LYP) =  -539.121065008     A.U. after    9 cycles
 SCF Done:  E(UB3LYP) =  -539.121065029     A.U. after    9 cycles
 Optimization completed.
    -- Stationary point found.
 Normal termination of Gaussian 16 at Sat Feb 10 12:50:36 2024.

 ----------------------------------------------------------------------
 #P Geom=AllCheck Guess=TCheck SCRF=Check GenChk UB3LYP/6-311++G(d,p) F
 req
 ----------------------------------------------------------------------

 Structure from the checkpoint file:  "034-an.chk"
 -------
 Reduced
 -------
 Charge = -2 Multiplicity = 1

                          Input orientation:
 ---------------------------------------------------------------------
 Center     Atomic      Atomic             Coordinates (Angstroms)
 Number     Number       Type             X           Y           Z
 ---------------------------------------------------------------------
      1          6           0       -2.472178    1.390774    0.376456
      2          6           0       -1.965681   -0.064136    0.412738
      3          6           0       -2.780680   -0.949208   -0.549799
      4          6           0       -0.460968   -0.163285    0.182523
      5          6           0        0.343116   -0.655220    1.225916
      6          6           0        1.756188   -0.798613    1.177928
      7          8           0        2.462712   -1.267504    2.193621
      8          6           0        2.352521   -0.395393   -0.055272
      9          6           0        1.555505    0.093673   -1.100826
     10          6           0        0.139279    0.239155   -1.055700
     11          8           0       -0.545528    0.709153   -2.082557
     12          6           0        3.850155   -0.495860   -0.223182
     13          1           0       -2.268864    1.830826   -0.601924
     14          1           0       -3.550905    1.439903    0.568634
     15          1           0       -1.968950    1.997202    1.136675
     16          1           0       -2.153071   -0.441620    1.427005
     17          1           0       -2.613989   -0.632358   -1.581040
     18          1           0       -2.482703   -1.999170   -0.460997
     19          1           0       -3.853348   -0.886043   -0.329698
     20          1           0       -0.147358   -0.952594    2.154575
     21          1           0        2.046448    0.391710   -2.028755
     22          1           0        4.389136    0.145133    0.486928
     23          1           0        4.154638   -0.203286   -1.232831
     24          1           0        4.214524   -1.514130   -0.040420
 ---------------------------------------------------------------------

 SCF Done:  E(UB3LYP) =  -539.121065029     A.U. after    1 cycles

 Alpha  occ. eigenvalues --  -19.00453 -18.99950 -10.15486 -10.15371 -10.14873
 Alpha  occ. eigenvalues --  -10.13698 -10.13393 -10.13359 -10.12107 -10.11777
 Alpha  occ. eigenvalues --  -10.11047 -10.11012  -0.90641  -0.90184  -0.78462
 Alpha  occ. eigenvalues --   -0.76063  -0.71021  -0.66044  -0.65306  -0.62525
 Alpha  occ. eigenvalues --   -0.55959  -0.54482  -0.48683  -0.44457  -0.42121
 Alpha  occ. eigenvalues --   -0.40595  -0.39904  -0.39072  -0.38477  -0.37838
 Alpha  occ. eigenvalues --   -0.36551  -0.35177  -0.34031  -0.33188  -0.33051
 Alpha  occ. eigenvalues --   -0.31449  -0.30500  -0.29897  -0.29364  -0.28966
 Alpha  occ. eigenvalues --   -0.20869  -0.19586  -0.18396  -0.17818  -0.10917
 Alpha virt. eigenvalues --    0.00093   0.00872   0.01740   0.02060   0.02799
 Alpha virt. eigenvalues --    0.03050   0.03468   0.04690   0.04939   0.05624
 Alpha virt. eigenvalues --    0.05726   0.05833   0.06719   0.07123   0.07780

  Beta  occ. eigenvalues --  -19.00453 -18.99950 -10.15486 -10.15371 -10.14873
  Beta  occ. eigenvalues --  -10.13698 -10.13393 -10.13359 -10.12107 -10.11777
  Beta  occ. eigenvalues --  -10.11047 -10.11012  -0.90641  -0.90184  -0.78462
  Beta  occ. eigenvalues --   -0.76063  -0.71021  -0.66044  -0.65306  -0.62525
  Beta  occ. eigenvalues --   -0.55959  -0.54482  -0.48683  -0.44457  -0.42121
  Beta  occ. eigenvalues --   -0.40595  -0.39904  -0.39072  -0.38477  -0.37838
  Beta  occ. eigenvalues --   -0.36551  -0.35177  -0.34031  -0.33188  -0.33051
  Beta  occ. eigenvalues --   -0.31449  -0.30500  -0.29897  -0.29364  -0.28966
  Beta  occ. eigenvalues --   -0.20869  -0.19586  -0.18396  -0.17818  -0.10917
  Beta virt. eigenvalues --    0.00093   0.00872   0.01740   0.02060   0.02799
  Beta virt. eigenvalues --    0.03050   0.03468   0.04690   0.04939   0.05624
  Beta virt. eigenvalues --    0.05726   0.05833   0.06719   0.07123   0.07780

 Mulliken charges and spin densities:
               1          2
     1  C   -0.683724   0.000000
     2  C    0.185202   0.000000
     3  C   -0.678960   0.000000
     4  C    1.150088  -0.000000
     5  C   -0.204602  -0.000000
     6  C   -0.955278   0.000000
     7  O   -0.771557  -0.000000
     8  C    1.011526  -0.000000
     9  C   -0.665800  -0.000000
    10  C   -0.848378   0.000000
    11  O   -0.719037  -0.000000
    12  C   -0.401717   0.000000
    13  H    0.172761  -0.000000
    14  H    0.125463  -0.000000
    15  H    0.117810   0.000000
    16  H    0.146818  -0.000000
    17  H    0.173864  -0.000000
    18  H    0.116664  -0.000000
    19  H    0.127042  -0.000000
    20  H    0.109195  -0.000000
    21  H    0.092461   0.000000
    22  H    0.137124  -0.000000
    23  H    0.126345   0.000000
    24  H    0.136691  -0.000000
 Sum of Mulliken charges =  -2.00000   0.00000

 Dipole moment (field-independent basis, Debye):
    X=             -8.9527    Y=              2.7637    Z=             -0.8159  Tot=              9.4050
 Quadrupole moment (field-independent basis, Debye-Ang):
   XX=           -114.7283   YY=            -93.5482   ZZ=           -122.3801
   XY=             15.0127   XZ=            -26.8294   YZ=             17.5669

  Exact polarizability: 259.080 -16.817 163.617  11.481 -31.005 227.533
 Approx polarizability: 265.945 -17.422 172.272  13.044 -36.988 248.947

                      1                      2                      3
                      A                      A                      A
 Frequencies --     68.9180                73.0062               140.4860
 Red. masses --      3.3302                 2.8464                 1.4023
 Frc consts  --      0.0093                 0.0089                 0.0163
 IR Inten    --      5.7844                12.9094                 1.2888

                      4                      5                      6
                      A                      A                      A
 Frequencies --    162.3709               163.9213               201.5902
 Red. masses --      2.0038                 2.6897                 3.3056
 Frc consts  --      0.0311                 0.0426                 0.0791
 IR Inten    --      9.7515                15.5869                 0.8426

                      7                      8                      9
                      A                      A                      A
 Frequencies --    223.7021               257.4001               268.8825
 Red. masses --      1.3552                 1.1327                 3.0609
 Frc consts  --      0.0400                 0.0442                 0.1304
 IR Inten    --      4.8452                 2.1804                 9.2924

                     10                     11                     12
                      A                      A                      A
 Frequencies --    273.8733               301.4811               362.4998
 Red. masses --      2.7572                 4.7276                 7.3203
 Frc consts  --      0.1218                 0.2532                 0.5668
 IR Inten    --      5.5165                 0.0460                14.3208

                     13                     14                     15
                      A                      A                      A
 Frequencies --    403.7523               419.7203               452.3512
 Red. masses --      4.1873                 2.5864                 4.3283
 Frc consts  --      0.4022                 0.2685                 0.5218
 IR Inten    --      0.2219                 2.9781                 2.3339

                     16                     17                     18
                      A                      A                      A
 Frequencies --    500.5169               515.0587               638.0971
 Red. masses --      3.1213                 6.7057                 4.0162
 Frc consts  --      0.4607                 1.0481                 0.9635
 IR Inten    --      7.6373                 0.4627                11.2857

                     19                     20                     21
                      A                      A                      A
 Frequencies --    682.9959               686.8165               728.2672
 Red. masses --      3.4392                 3.9179                 6.4057
 Frc consts  --      0.9452                 1.0889                 2.0017
 IR Inten    --     48.4070                 0.4620                20.0995

                     22                     23                     24
                      A                      A                      A
 Frequencies --    733.9228               821.4310               830.9666
 Red. masses --      2.5319                 4.0412                 1.8195
 Frc consts  --      0.8035                 1.6066                 0.7402
 IR Inten    --      0.8220               148.3191                 4.4103

                     25                     26                     27
                      A                      A                      A
 Frequencies --    850.3518               890.9692               914.4804
 Red. masses --      1.5916                 2.3819                 1.1538
 Frc consts  --      0.6781                 1.1140                 0.5685
 IR Inten    --     78.9817                19.2496                 3.0485

                     28                     29                     30
                      A                      A                      A
 Frequencies --    950.5183               988.4420              1033.7323
 Red. masses --      1.5802                 1.5735                 1.4972
 Frc consts  --      0.8411                 0.9058                 0.9426
 IR Inten    --      0.2994               188.9551                 7.5881

                     31                     32                     33
                      A                      A                      A
 Frequencies --   1034.9961              1114.8709              1117.2770
 Red. masses --      1.9099                 2.3394                 2.4968
 Frc consts  --      1.2054                 1.7132                 1.8364
 IR Inten    --     41.5990                 5.4801                42.0887

                     34                     35                     36
                      A                      A                      A
 Frequencies --   1156.2155              1179.9030              1201.6489
 Red. masses --      2.0352                 2.7218                 2.9720
 Frc consts  --      1.6030                 2.2325                 2.5284
 IR Inten    --     76.6292                82.6576               460.1829

                     37                     38                     39
                      A                      A                      A
 Frequencies --   1237.3425              1264.4251              1300.5226
 Red. masses --      1.3395                 5.0457                 5.2172
 Frc consts  --      1.2083                 4.7529                 5.1990
 IR Inten    --     11.2618               283.6078               150.4295

                     40                     41                     42
                      A                      A                      A
 Frequencies --   1330.0131              1344.9144              1362.7613
 Red. masses --      2.4543                 1.2877                 1.2414
 Frc consts  --      2.5580                 1.3723                 1.3583
 IR Inten    --    398.4433                10.6006                12.5203

                     43                     44                     45
                      A                      A                      A
 Frequencies --   1374.7310              1385.1638              1399.6562
 Red. masses --      1.3330                 1.3322                 2.2017
 Frc consts  --      1.4843                 1.5059                 2.5412
 IR Inten    --     70.7576                49.3728               510.8247

                     46                     47                     48
                      A                      A                      A
 Frequencies --   1455.0411              1461.9544              1468.2997
 Red. masses --      1.0511                 2.5417                 1.0433
 Frc consts  --      1.3111                 3.2006                 1.3253
 IR Inten    --      5.9854               515.0808                 0.4063

                     49                     50                     51
                      A                      A                      A
 Frequencies --   1478.4542              1482.4417              1492.7719
 Red. masses --      1.2572                 1.1195                 1.0576
 Frc consts  --      1.6191                 1.4496                 1.3885
 IR Inten    --     10.8407                30.1432                 2.4870

                     52                     53                     54
                      A                      A                      A
 Frequencies --   1503.6649              1504.7740              1603.2707
 Red. masses --      1.1052                 3.7058                 6.3398
 Frc consts  --      1.4723                 4.9440                 9.6016
 IR Inten    --      2.3000                 3.6424                 0.4414

                     55                     56                     57
                      A                      A                      A
 Frequencies --   2977.3654              2982.3871              2994.7389
 Red. masses --      1.0811                 1.0400                 1.0388
 Frc consts  --      5.6463                 5.4502                 5.4890
 IR Inten    --     64.5121               186.9187                81.6163

                     58                     59                     60
                      A                      A                      A
 Frequencies --   3002.4774              3012.8054              3050.9206
 Red. masses --      1.0409                 1.0964                 1.0987
 Frc consts  --      5.5287                 5.8633                 6.0254
 IR Inten    --    175.8100                88.2333                64.8836

                     61                     62                     63
                      A                      A                      A
 Frequencies --   3053.5545              3061.7087              3077.4206
 Red. masses --      1.0980                 1.0982                 1.0865
 Frc consts  --      6.0320                 6.0655                 6.0625
 IR Inten    --    128.6494                37.7770               266.1981

                     64                     65                     66
                      A                      A                      A
 Frequencies --   3082.6391              3091.3264              3098.7263
 Red. masses --      1.0872                 1.0998                 1.0982
 Frc consts  --      6.0872                 6.1922                 6.2131
 IR Inten    --     17.7480                 1.5252                69.4649

 - Thermochemistry -
 -------------------
 Temperature   298.150 Kelvin.  Pressure   1.00000 Atm.
 Atom     1 has atomic number  6 and mass  12.00000

 Molecular mass:   164.08373 amu.
 Principal axes and moments of inertia in atomic units:
                           1         2         3
     Eigenvalues --  1053.421992925.732513576.65171
           X            0.96474  -0.23896   0.11038
           Y           -0.18504  -0.31746   0.93004
           Z            0.18720   0.91767   0.35048
 This molecule is an asymmetric top.
 Rotational symmetry number  1.
 Warning -- assumption of classical behavior for rotation
           may cause significant error
 Rotational temperatures (Kelvin)      0.08222     0.02960     0.02422
 Rotational constants (GHZ):           1.71322     0.61685     0.50459
 Zero-point vibrational energy     504116.6 (Joules/Mol)
                                  120.48675 (Kcal/Mol)
 Warning -- explicit consideration of  17 degrees of freedom as
           vibrations may cause significant error
 Vibrational temperatures:     99.16   105.04   202.13   233.62   235.85
          (Kelvin)            290.04   321.86   370.34   386.86   394.04
                              433.76   521.56   580.91   603.88   650.83
                              720.13   741.05   918.08   982.68   988.18
                             1047.81  1055.95  1181.86  1195.58  1223.47
                             1281.91  1315.73  1367.58  1422.15  1487.31
                             1489.13  1604.05  1607.51  1663.54  1697.62
                             1728.90  1780.26  1819.23  1871.16  1913.59
                             1935.03  1960.71  1977.93  1992.94  2013.79
                             2093.48  2103.43  2112.56  2127.17  2132.90
                             2147.77  2163.44  2165.03  2306.75  4283.76
                             4290.99  4308.76  4319.90  4334.76  4389.59
                             4393.38  4405.12  4427.72  4435.23  4447.73
                             4458.38

 Zero-point correction=                           0.192008 (Hartree/Particle)
 Thermal correction to Energy=                    0.204139
 Thermal correction to Enthalpy=                  0.205083
 Thermal correction to Gibbs Free Energy=         0.154368
 Sum of electronic and zero-point Energies=           -538.929057
 Sum of electronic and thermal Energies=              -538.916926
 Sum of electronic and thermal Enthalpies=            -538.915982
 Sum of electronic and thermal Free Energies=         -538.966697

                     E (Thermal)             CV                S
                      KCal/Mol        Cal/Mol-Kelvin    Cal/Mol-Kelvin
 Total                  128.099             45.957            106.738
 Electronic               0.000              0.000              0.000
 Translational            0.889              2.981             41.194
 Rotational               0.889              2.981             30.778
 Vibrational            126.322             39.995             34.766
 Vibration     1          0.598              1.969              4.184
 Vibration     2          0.599              1.967              4.071
 Vibration     3          0.615              1.913              2.797
 Vibration     4          0.622              1.889              2.522
 Vibration     5          0.623              1.887              2.504
 Vibration     6          0.638              1.838              2.119
 Vibration     7          0.649              1.805              1.929
 Vibration     8          0.667              1.750              1.679
 Vibration     9          0.673              1.730              1.603
 Vibration    10          0.676              1.722              1.572
 Vibration    11          0.693              1.671              1.409
 Vibration    12          0.736              1.549              1.111
 Vibration    13          0.769              1.462              0.949
 Vibration    14          0.782              1.427              0.893
 Vibration    15          0.811              1.356              0.789
 Vibration    16          0.856              1.249              0.657
 Vibration    17          0.870              1.217              0.622

 Optimization completed.
    -- Stationary point found.
 Normal termination of Gaussian 16 at Sat Feb 10 13:08:51 2024.
