 Q-Chem 5.4, Q-Chem, Inc., Pleasanton, CA (2021)
 Q-Chem 5.4.0 for Intel X86 EM64T Linux

User input:
--------------------------------------------------------------
$molecule
-2 1
C                 -1.0551280000      2.6136910000      0.6237490000
C                  0.2670920000      2.7303410000      0.0590650000
C                  0.9253500000      1.6548030000     -0.5511250000
C                  0.3340140000      0.3430620000     -0.6398980000
C                 -0.9815020000      0.2286240000     -0.0611140000
C                 -1.6417920000      1.3020160000      0.5291140000
O                 -1.6830220000      3.6117340000      1.1517980000
O                  0.9296400000     -0.6701250000     -1.1801390000
O                 -2.9491070000      1.1048980000      0.9771790000
O                 -1.6029870000     -1.0207480000     -0.0238200000
C                 -3.1226150000      1.3160920000      2.3686860000
C                 -1.8852080000     -1.5662070000     -1.3014500000
C                  2.3120180000      1.8063490000     -1.1329660000
C                  0.8779600000      4.1217020000      0.1062480000
C                  1.7194910000      4.3754080000      1.3336470000
C                  2.9467020000      4.9106750000      1.4336560000
C                  3.7849560000      5.3743550000      0.2665180000
C                  3.6277700000      5.0752430000      2.7741120000
H                 -2.8045730000      2.3258920000      2.6449760000
H                 -2.5582430000      0.5695860000      2.9504360000
H                 -4.1922770000      1.1881560000      2.5757430000
H                 -2.3041760000     -2.5657970000     -1.1319040000
H                 -0.9693710000     -1.6376760000     -1.8961910000
H                 -2.6347250000     -0.9547830000     -1.8301300000
H                  3.0127210000      2.2692010000     -0.4252660000
H                  2.3205050000      2.4299790000     -2.0402640000
H                  2.6801120000      0.8147020000     -1.4063300000
H                  0.0316210000      4.8212130000      0.1475670000
H                  1.4486690000      4.3286770000     -0.8047870000
H                  1.2253210000      4.0798280000      2.2577590000
H                  3.2920930000      5.2207630000     -0.6939310000
H                  4.7481520000      4.8429040000      0.2424190000
H                  4.0287160000      6.4424270000      0.3569090000
H                  2.9916340000      4.7390380000      3.5973900000
H                  3.9028740000      6.1228730000      2.9632930000
H                  4.5690320000      4.5050520000      2.8187150000
$end
$rem
MAX_SCF_CYCLES=200
BASIS  =  6-311++G(d,p)
GUI  =  2
JOB_TYPE  =  SP
METHOD  =  B3LYP
SOLVENT_METHOD = PCM
$end
$pcm
theory = CPCM
$end
$solvent
dielectric 37.219
opticaldielectric 1.43
$end

--------------------------------------------------------------

             Standard Nuclear Orientation (Angstroms)
    I     Atom           X                Y                Z
 ----------------------------------------------------------------
    1      C      -1.0551280000     2.6136910000     0.6237490000
    2      C       0.2670920000     2.7303410000     0.0590650000
    3      C       0.9253500000     1.6548030000    -0.5511250000
    4      C       0.3340140000     0.3430620000    -0.6398980000
    5      C      -0.9815020000     0.2286240000    -0.0611140000
    6      C      -1.6417920000     1.3020160000     0.5291140000
    7      O      -1.6830220000     3.6117340000     1.1517980000
    8      O       0.9296400000    -0.6701250000    -1.1801390000
    9      O      -2.9491070000     1.1048980000     0.9771790000
   10      O      -1.6029870000    -1.0207480000    -0.0238200000
   11      C      -3.1226150000     1.3160920000     2.3686860000
   12      C      -1.8852080000    -1.5662070000    -1.3014500000
   13      C       2.3120180000     1.8063490000    -1.1329660000
   14      C       0.8779600000     4.1217020000     0.1062480000
   15      C       1.7194910000     4.3754080000     1.3336470000
   16      C       2.9467020000     4.9106750000     1.4336560000
   17      C       3.7849560000     5.3743550000     0.2665180000
   18      C       3.6277700000     5.0752430000     2.7741120000
   19      H      -2.8045730000     2.3258920000     2.6449760000
   20      H      -2.5582430000     0.5695860000     2.9504360000
   21      H      -4.1922770000     1.1881560000     2.5757430000
   22      H      -2.3041760000    -2.5657970000    -1.1319040000
   23      H      -0.9693710000    -1.6376760000    -1.8961910000
   24      H      -2.6347250000    -0.9547830000    -1.8301300000
   25      H       3.0127210000     2.2692010000    -0.4252660000
   26      H       2.3205050000     2.4299790000    -2.0402640000
   27      H       2.6801120000     0.8147020000    -1.4063300000
   28      H       0.0316210000     4.8212130000     0.1475670000
   29      H       1.4486690000     4.3286770000    -0.8047870000
   30      H       1.2253210000     4.0798280000     2.2577590000
   31      H       3.2920930000     5.2207630000    -0.6939310000
   32      H       4.7481520000     4.8429040000     0.2424190000
   33      H       4.0287160000     6.4424270000     0.3569090000
   34      H       2.9916340000     4.7390380000     3.5973900000
   35      H       3.9028740000     6.1228730000     2.9632930000
   36      H       4.5690320000     4.5050520000     2.8187150000
 ----------------------------------------------------------------

    9    -845.6520753960      7.15e-06  Convergence criterion met
 Total energy in the final basis set =     -845.6520753960

                    Orbital Energies (a.u.)
 --------------------------------------------------------------

 Alpha MOs
 -- Occupied --
-19.1106 -19.1102 -19.0119 -19.0104 -10.1879 -10.1873 -10.1681 -10.1675
-10.1620 -10.1618 -10.1618 -10.1516 -10.1511 -10.1464 -10.1407 -10.1313
-10.1211 -10.1200  -1.0297  -1.0122  -0.9274  -0.9242  -0.8022  -0.7801
 -0.7392  -0.7118  -0.6799  -0.6782  -0.6710  -0.6434  -0.6087  -0.5994
 -0.5311  -0.5226  -0.5006  -0.4796  -0.4637  -0.4553  -0.4416  -0.4396
 -0.4246  -0.4220  -0.4203  -0.4156  -0.4062  -0.3880  -0.3805  -0.3729
 -0.3649  -0.3602  -0.3574  -0.3557  -0.3535  -0.3399  -0.3306  -0.3266
 -0.3163  -0.3138  -0.3057  -0.3036  -0.2601  -0.2570  -0.2258  -0.2143
 -0.1922  -0.1880  -0.1843  -0.1103

          Ground-State Mulliken Net Atomic Charges

     Atom                 Charge (a.u.)
  ----------------------------------------
      1 C                    -0.465074
      2 C                     0.787506
      3 C                     0.586582
      4 C                    -0.595044
      5 C                    -0.377775
      6 C                    -0.246156
      7 O                    -0.714350
      8 O                    -0.739053
      9 O                    -0.238645
     10 O                    -0.237206
     11 C                    -0.228481
     12 C                    -0.245005
     13 C                    -0.644837
     14 C                     0.195498
     15 C                    -0.727393
     16 C                     0.496446
     17 C                    -0.701076
     18 C                    -0.649650
     19 H                     0.161026
     20 H                     0.120834
     21 H                     0.143453
     22 H                     0.144196
     23 H                     0.167444
     24 H                     0.120836
     25 H                     0.151679
     26 H                     0.149050
     27 H                     0.161056
     28 H                     0.164767
     29 H                     0.165886
     30 H                     0.201911
     31 H                     0.137145
     32 H                     0.151061
     33 H                     0.151091
     34 H                     0.155446
     35 H                     0.145200
     36 H                     0.151632
  ----------------------------------------
  Sum of atomic charges =    -2.000000

                    Cartesian Multipole Moments
 -----------------------------------------------------------------
    Charge (ESU x 10^10)
                -9.6064
    Dipole Moment (Debye)
         X       5.2086      Y     -12.8821      Z      -0.7176
       Tot      13.9137
    Quadrupole Moments (Debye-Ang)
        XX    -141.9115     XY      25.4777     YY    -177.0743
        XZ      11.4943     YZ     -16.8950     ZZ    -124.0244

 Total job time:  73.61s(wall), 488.51s(cpu)
        *  Thank you very much for using Q-Chem.  Have a nice day.  *
