 Q-Chem 5.4, Q-Chem, Inc., Pleasanton, CA (2021)
 Q-Chem 5.4.0 for Intel X86 EM64T Linux

User input:
--------------------------------------------------------------
$molecule
0 1
C                  1.1171240000      1.5343310000     -0.1857020000
C                 -0.0716280000      1.0570890000      0.5614590000
C                 -0.2439000000     -0.2356320000      0.8549740000
C                  0.7431230000     -1.2554300000      0.4393510000
C                  1.9309000000     -0.8055010000     -0.3805320000
C                  2.0628490000      0.4947550000     -0.6987050000
O                  1.3171740000      2.7239450000     -0.3377570000
O                  0.6062500000     -2.4259040000      0.7369380000
S                  3.3974290000      1.0600520000     -1.8261030000
C                  4.4912810000      2.0404040000     -0.7934500000
C                  4.3888060000      3.4290220000     -0.8232400000
C                  5.4361380000      1.3794650000     -0.0084600000
C                  6.2976090000      2.1420440000      0.7757310000
C                  5.2646570000      4.1761780000     -0.0399690000
C                  6.2130350000      3.5345980000      0.7569410000
O                  2.7765170000      1.9144480000     -2.8365320000
O                  4.1102000000     -0.1595580000     -2.2190880000
H                 -0.7651090000      1.8301110000      0.8733240000
H                 -1.0925110000     -0.6045640000      1.4200520000
H                  3.6389610000      3.9004510000     -1.4442460000
H                  5.4953750000      0.2978710000     -0.0165760000
H                  7.0389170000      1.6484440000      1.3929700000
H                  5.2057060000      5.2581270000     -0.0529460000
H                  6.8901870000      4.1226020000      1.3662000000
C                  2.9511280000     -1.9240500000     -0.6177500000
C                  2.7587560000     -2.8735860000     -1.7349400000
C                  1.8005340000     -2.6557750000     -2.7306600000
C                  3.5632540000     -4.0195170000     -1.7843980000
C                  1.6469310000     -3.5722680000     -3.7656560000
C                  2.4487110000     -4.7119650000     -3.8085690000
C                  3.4069090000     -4.9343840000     -2.8171430000
O                  3.8158430000     -2.0259360000      0.2277970000
H                  1.1847250000     -1.7638040000     -2.7112450000
H                  4.3003490000     -4.1732940000     -1.0060290000
H                  0.9088280000     -3.3963690000     -4.5393470000
H                  2.3292460000     -5.4263550000     -4.6154560000
H                  4.0289840000     -5.8212720000     -2.8534180000
$end
$rem
MAX_SCF_CYCLES=200
BASIS  =  6-311++G(d,p)
GUI  =  2
JOB_TYPE  =  SP
METHOD  =  B3LYP
SOLVENT_METHOD = PCM
$end
$pcm
theory = CPCM
$end
$solvent
dielectric 37.219
opticaldielectric 1.43
$end

--------------------------------------------------------------

             Standard Nuclear Orientation (Angstroms)
    I     Atom           X                Y                Z
 ----------------------------------------------------------------
    1      C       1.1171240000     1.5343310000    -0.1857020000
    2      C      -0.0716280000     1.0570890000     0.5614590000
    3      C      -0.2439000000    -0.2356320000     0.8549740000
    4      C       0.7431230000    -1.2554300000     0.4393510000
    5      C       1.9309000000    -0.8055010000    -0.3805320000
    6      C       2.0628490000     0.4947550000    -0.6987050000
    7      O       1.3171740000     2.7239450000    -0.3377570000
    8      O       0.6062500000    -2.4259040000     0.7369380000
    9      S       3.3974290000     1.0600520000    -1.8261030000
   10      C       4.4912810000     2.0404040000    -0.7934500000
   11      C       4.3888060000     3.4290220000    -0.8232400000
   12      C       5.4361380000     1.3794650000    -0.0084600000
   13      C       6.2976090000     2.1420440000     0.7757310000
   14      C       5.2646570000     4.1761780000    -0.0399690000
   15      C       6.2130350000     3.5345980000     0.7569410000
   16      O       2.7765170000     1.9144480000    -2.8365320000
   17      O       4.1102000000    -0.1595580000    -2.2190880000
   18      H      -0.7651090000     1.8301110000     0.8733240000
   19      H      -1.0925110000    -0.6045640000     1.4200520000
   20      H       3.6389610000     3.9004510000    -1.4442460000
   21      H       5.4953750000     0.2978710000    -0.0165760000
   22      H       7.0389170000     1.6484440000     1.3929700000
   23      H       5.2057060000     5.2581270000    -0.0529460000
   24      H       6.8901870000     4.1226020000     1.3662000000
   25      C       2.9511280000    -1.9240500000    -0.6177500000
   26      C       2.7587560000    -2.8735860000    -1.7349400000
   27      C       1.8005340000    -2.6557750000    -2.7306600000
   28      C       3.5632540000    -4.0195170000    -1.7843980000
   29      C       1.6469310000    -3.5722680000    -3.7656560000
   30      C       2.4487110000    -4.7119650000    -3.8085690000
   31      C       3.4069090000    -4.9343840000    -2.8171430000
   32      O       3.8158430000    -2.0259360000     0.2277970000
   33      H       1.1847250000    -1.7638040000    -2.7112450000
   34      H       4.3003490000    -4.1732940000    -1.0060290000
   35      H       0.9088280000    -3.3963690000    -4.5393470000
   36      H       2.3292460000    -5.4263550000    -4.6154560000
   37      H       4.0289840000    -5.8212720000    -2.8534180000
 ----------------------------------------------------------------

    9   -1505.7881817302      5.34e-06  Convergence criterion met
 Total energy in the final basis set =    -1505.7881817302

                    Orbital Energies (a.u.)
 --------------------------------------------------------------

 Alpha MOs
 -- Occupied --
-89.0788 -19.1632 -19.1592 -19.1452 -19.1443 -19.1430 -10.3107 -10.3101
-10.3019 -10.2591 -10.2561 -10.2276 -10.2243 -10.2230 -10.2053 -10.2040
-10.2025 -10.1970 -10.1969 -10.1947 -10.1945 -10.1937 -10.1935 -10.1890
-10.1888  -8.1425  -6.1052  -6.1045  -6.1035  -1.1407  -1.0974  -1.0926
 -1.0809  -1.0368  -0.8919  -0.8879  -0.8789  -0.8268  -0.7966  -0.7826
 -0.7739  -0.7666  -0.7437  -0.7036  -0.6807  -0.6486  -0.6374  -0.6327
 -0.6219  -0.6015  -0.5803  -0.5598  -0.5513  -0.5431  -0.5302  -0.5106
 -0.5005  -0.4976  -0.4937  -0.4832  -0.4810  -0.4712  -0.4686  -0.4633
 -0.4591  -0.4547  -0.4518  -0.4468  -0.4407  -0.4378  -0.4338  -0.4235
 -0.3984  -0.3904  -0.3823  -0.3762  -0.3703  -0.3678  -0.3607  -0.3565
 -0.3424  -0.3355  -0.3314  -0.3204  -0.3123  -0.3081  -0.2861  -0.2810
 -0.2786  -0.2762  -0.2744

          Ground-State Mulliken Net Atomic Charges

     Atom                 Charge (a.u.)
  ----------------------------------------
      1 C                    -0.208699
      2 C                     0.205185
      3 C                    -0.340285
      4 C                    -0.028928
      5 C                     0.867667
      6 C                    -0.425919
      7 O                    -0.219958
      8 O                    -0.227270
      9 S                     0.283409
     10 C                     0.683195
     11 C                    -0.094340
     12 C                    -0.265447
     13 C                    -0.522918
     14 C                    -0.486848
     15 C                    -0.302836
     16 O                    -0.122076
     17 O                    -0.120762
     18 H                     0.285389
     19 H                     0.277322
     20 H                     0.278915
     21 H                     0.257031
     22 H                     0.240088
     23 H                     0.237417
     24 H                     0.216620
     25 C                    -0.386921
     26 C                     0.611873
     27 C                    -1.002411
     28 C                     0.548014
     29 C                    -0.229261
     30 C                    -0.367176
     31 C                    -0.495403
     32 O                    -0.241318
     33 H                     0.190825
     34 H                     0.234320
     35 H                     0.239579
     36 H                     0.205633
     37 H                     0.226292
  ----------------------------------------
  Sum of atomic charges =     0.000001

                    Cartesian Multipole Moments
 -----------------------------------------------------------------
    Charge (ESU x 10^10)
                -0.0000
    Dipole Moment (Debye)
         X      -2.1069      Y       0.9624      Z       2.6589
       Tot       3.5264
    Quadrupole Moments (Debye-Ang)
        XX    -139.8446     XY      10.5382     YY    -138.3540
        XZ      15.9415     YZ      26.0510     ZZ    -153.3829

 Total job time:  115.38s(wall), 807.46s(cpu)
        *  Thank you very much for using Q-Chem.  Have a nice day.  *
