 Gaussian 16, Revision A.03,
 Gaussian 16:  ES64L-G16RevA.03 25-Dec-2016

 --------------------------------------
 #P UB3LYP/6-311++G(d,p) nosym opt freq
 --------------------------------------

 -------
 Radical
 -------
 Symbolic Z-matrix:
 Charge = -1 Multiplicity = 2

 SCF Done:  E(UB3LYP) =  -10675.7920360     A.U. after   23 cycles
 SCF Done:  E(UB3LYP) =  -10675.8031763     A.U. after   19 cycles
 SCF Done:  E(UB3LYP) =  -10675.8059132     A.U. after   18 cycles
 SCF Done:  E(UB3LYP) =  -10675.8064875     A.U. after   16 cycles
 SCF Done:  E(UB3LYP) =  -10675.8065440     A.U. after   14 cycles
 SCF Done:  E(UB3LYP) =  -10675.8065502     A.U. after   14 cycles
 Optimization completed.
    -- Stationary point found.
 Normal termination of Gaussian 16 at Sat Jan  6 01:54:17 2024.

 ----------------------------------------------------------------------
 #P Geom=AllCheck Guess=TCheck SCRF=Check GenChk UB3LYP/6-311++G(d,p) F
 req
 ----------------------------------------------------------------------

 Structure from the checkpoint file:  "318-rad.chk"
 -------
 Radical
 -------
 Charge = -1 Multiplicity = 2

                          Input orientation:
 ---------------------------------------------------------------------
 Center     Atomic      Atomic             Coordinates (Angstroms)
 Number     Number       Type             X           Y           Z
 ---------------------------------------------------------------------
      1         35           0       -2.336588    2.134108    0.809237
      2          6           0       -0.985646    0.853136    0.335958
      3          6           0       -1.298990   -0.490973    0.253432
      4         35           0       -3.066164   -1.151716    0.599053
      5          6           0       -0.328047   -1.513013   -0.098816
      6          8           0       -0.604159   -2.714995   -0.173649
      7          6           0        1.085655   -1.040030   -0.381843
      8          8           0        1.961116   -1.856842   -0.687187
      9          6           0        1.329424    0.388378   -0.272695
     10          6           0        0.346568    1.298470    0.069293
     11         35           0        0.763133    3.170147    0.189072
     12         35           0        3.133698    0.923330   -0.641853
 ---------------------------------------------------------------------

 SCF Done:  E(UB3LYP) =  -10675.8065502     A.U. after    1 cycles

 Alpha  occ. eigenvalues -- -482.73145-482.73139-482.71595-482.71592 -62.38428
 Alpha  occ. eigenvalues --  -62.38423 -62.36870 -62.36866 -56.20469 -56.20464
 Alpha  occ. eigenvalues --  -56.20088 -56.20082 -56.20048 -56.20043 -56.18905
 Alpha  occ. eigenvalues --  -56.18902 -56.18536 -56.18533 -56.18492 -56.18489
 Alpha  occ. eigenvalues --  -18.97098 -18.97097 -10.13946 -10.13904 -10.12147
 Alpha  occ. eigenvalues --  -10.12124 -10.11733 -10.11731  -8.59404  -8.59398
 Alpha  occ. eigenvalues --   -8.57837  -8.57834  -6.42562  -6.42556  -6.41281
 Alpha  occ. eigenvalues --   -6.41275  -6.41181  -6.41175  -6.40978  -6.40975
 Alpha  occ. eigenvalues --   -6.39736  -6.39733  -6.39610  -6.39607  -2.53653
 Alpha  occ. eigenvalues --   -2.53647  -2.53304  -2.53298  -2.53230  -2.53225
 Alpha  occ. eigenvalues --   -2.52208  -2.52207  -2.52202  -2.52202  -2.52074
 Alpha  occ. eigenvalues --   -2.52071  -2.51740  -2.51737  -2.51645  -2.51642
 Alpha  occ. eigenvalues --   -2.50654  -2.50653  -2.50651  -2.50649  -0.91489
 Alpha  occ. eigenvalues --   -0.88677  -0.78086  -0.72368  -0.69649  -0.67805
 Alpha  occ. eigenvalues --   -0.66021  -0.58903  -0.57549  -0.46757  -0.46514
 Alpha  occ. eigenvalues --   -0.40136  -0.35974  -0.32509  -0.31958  -0.30199
 Alpha  occ. eigenvalues --   -0.30031  -0.28152  -0.27028  -0.26915  -0.26009
 Alpha  occ. eigenvalues --   -0.21729  -0.21673  -0.19997  -0.19672  -0.19182
 Alpha  occ. eigenvalues --   -0.17291  -0.17157  -0.16455  -0.13954  -0.11933
 Alpha  occ. eigenvalues --   -0.11701  -0.06139
 Alpha virt. eigenvalues --    0.03943   0.08377   0.09930   0.10110   0.10420
 Alpha virt. eigenvalues --    0.10444   0.10500   0.12836   0.13092   0.13174
 Alpha virt. eigenvalues --    0.14388   0.14797   0.14911   0.14983   0.15319

  Beta  occ. eigenvalues -- -482.73142-482.73137-482.71593-482.71590 -62.38426
  Beta  occ. eigenvalues --  -62.38421 -62.36868 -62.36865 -56.20470 -56.20465
  Beta  occ. eigenvalues --  -56.20079 -56.20073 -56.20047 -56.20042 -56.18906
  Beta  occ. eigenvalues --  -56.18903 -56.18528 -56.18525 -56.18491 -56.18488
  Beta  occ. eigenvalues --  -18.96451 -18.96449 -10.13792 -10.13752 -10.12111
  Beta  occ. eigenvalues --  -10.12088 -10.11575 -10.11572  -8.59400  -8.59394
  Beta  occ. eigenvalues --   -8.57834  -8.57830  -6.42564  -6.42559  -6.41265
  Beta  occ. eigenvalues --   -6.41260  -6.41179  -6.41174  -6.40981  -6.40978
  Beta  occ. eigenvalues --   -6.39722  -6.39719  -6.39609  -6.39606  -2.53653
  Beta  occ. eigenvalues --   -2.53647  -2.53296  -2.53291  -2.53232  -2.53226
  Beta  occ. eigenvalues --   -2.52199  -2.52199  -2.52194  -2.52193  -2.52074
  Beta  occ. eigenvalues --   -2.52071  -2.51733  -2.51730  -2.51647  -2.51644
  Beta  occ. eigenvalues --   -2.50646  -2.50645  -2.50643  -2.50642  -0.90441
  Beta  occ. eigenvalues --   -0.87495  -0.77660  -0.72183  -0.69413  -0.67711
  Beta  occ. eigenvalues --   -0.65837  -0.58620  -0.56748  -0.46350  -0.46033
  Beta  occ. eigenvalues --   -0.39921  -0.35739  -0.31510  -0.31046  -0.30080
  Beta  occ. eigenvalues --   -0.29441  -0.27755  -0.26731  -0.25360  -0.24669
  Beta  occ. eigenvalues --   -0.21684  -0.20397  -0.19620  -0.19490  -0.18225
  Beta  occ. eigenvalues --   -0.17138  -0.16537  -0.16228  -0.13521  -0.11094
  Beta  occ. eigenvalues --   -0.10535
  Beta virt. eigenvalues --    0.00568   0.04070   0.08462   0.10069   0.10153
  Beta virt. eigenvalues --    0.10523   0.12264   0.12494   0.12876   0.13125
  Beta virt. eigenvalues --    0.13181   0.14393   0.14802   0.14945   0.15021

 Mulliken charges and spin densities:
               1          2
     1  Br  -0.184585   0.007562
     2  C   -0.467847   0.068024
     3  C    0.840607   0.127096
     4  Br  -0.154818   0.007552
     5  C   -0.250806   0.046117
     6  O   -0.281165   0.243810
     7  C   -0.251751   0.046072
     8  O   -0.281202   0.243786
     9  C    0.839797   0.127042
    10  C   -0.468667   0.067845
    11  Br  -0.184820   0.007534
    12  Br  -0.154743   0.007561
 Sum of Mulliken charges =  -1.00000   1.00000

 Dipole moment (field-independent basis, Debye):
    X=             -1.3012    Y=              4.3885    Z=              0.8260  Tot=              4.6513
 Quadrupole moment (field-independent basis, Debye-Ang):
   XX=           -142.9853   YY=           -149.9061   ZZ=           -123.3022
   XY=              1.3856   XZ=              5.2793   YZ=             -3.6490

  Exact polarizability: 226.427  12.189 206.563 -30.741  10.506 100.626
 Approx polarizability: 337.135   6.103 342.873 -44.849  21.525 160.044

                      1                      2                      3
                      A                      A                      A
 Frequencies --     34.3762                43.4893                75.8207
 Red. masses --     55.6484                26.3550                17.4533
 Frc consts  --      0.0387                 0.0294                 0.0591
 IR Inten    --      0.0000                 2.5485                 0.0000

                      4                      5                      6
                      A                      A                      A
 Frequencies --    137.1675               137.4133               149.7683
 Red. masses --     64.6721                51.7695                74.6977
 Frc consts  --      0.7169                 0.5759                 0.9872
 IR Inten    --      0.7649                 1.5577                 0.1264

                      7                      8                      9
                      A                      A                      A
 Frequencies --    158.2127               198.6488               210.1944
 Red. masses --     13.3157                62.9068                63.3470
 Frc consts  --      0.1964                 1.4626                 1.6490
 IR Inten    --      0.6896                 0.2991                 1.5678

                     10                     11                     12
                      A                      A                      A
 Frequencies --    247.3146               267.7906               319.6192
 Red. masses --     19.1593                12.3124                19.1994
 Frc consts  --      0.6904                 0.5202                 1.1556
 IR Inten    --      1.2253                 0.0000                 0.0753

                     13                     14                     15
                      A                      A                      A
 Frequencies --    339.1532               383.3330               420.0318
 Red. masses --     12.3939                15.8017                15.2969
 Frc consts  --      0.8399                 1.3681                 1.5901
 IR Inten    --      3.3295                 1.8537                 0.0810

                     16                     17                     18
                      A                      A                      A
 Frequencies --    490.6202               561.6384               586.4679
 Red. masses --     12.0171                12.2308                13.2308
 Frc consts  --      1.7043                 2.2731                 2.6812
 IR Inten    --      0.0000                 7.7162                78.9678

                     19                     20                     21
                      A                      A                      A
 Frequencies --    706.0288               713.7456               753.5556
 Red. masses --     12.7251                12.7091                12.2043
 Frc consts  --      3.7373                 3.8146                 4.0831
 IR Inten    --     36.7414                51.4260                 0.0000

                     22                     23                     24
                      A                      A                      A
 Frequencies --    860.5014               915.0880              1139.1791
 Red. masses --     12.6558                12.3609                12.0399
 Frc consts  --      5.5213                 6.0986                 9.2057
 IR Inten    --      0.3423                23.0936                 3.1526

                     25                     26                     27
                      A                      A                      A
 Frequencies --   1159.7484              1266.3102              1438.3979
 Red. masses --     12.1686                12.0344                12.0615
 Frc consts  --      9.6431                11.3699                14.7031
 IR Inten    --     68.9357                76.3178                40.0531

                     28                     29                     30
                      A                      A                      A
 Frequencies --   1467.0016              1578.2489              1588.6809
 Red. masses --     12.0063                13.1544                13.1867
 Frc consts  --     15.2238                19.3051                19.6091
 IR Inten    --      0.0101                78.8810               566.9176

 - Thermochemistry -
 -------------------
 Temperature   298.150 Kelvin.  Pressure   1.00000 Atm.
 Atom     1 has atomic number 35 and mass  78.91834

 Molecular mass:   419.66317 amu.
 Principal axes and moments of inertia in atomic units:
                           1         2         3
     Eigenvalues --  4413.873368279.62751**********
           X            0.93162  -0.28035   0.23128
           Y            0.31198   0.94331  -0.11326
           Z           -0.18642   0.17767   0.96627
 This molecule is an asymmetric top.
 Rotational symmetry number  1.
 Warning -- assumption of classical behavior for rotation
           may cause significant error
 Rotational temperatures (Kelvin)      0.01962     0.01046     0.00682
 Rotational constants (GHZ):           0.40888     0.21797     0.14218
 Zero-point vibrational energy     109742.7 (Joules/Mol)
                                   26.22913 (Kcal/Mol)
 Warning -- explicit consideration of  18 degrees of freedom as
           vibrations may cause significant error
 Vibrational temperatures:     49.46    62.57   109.09   197.35   197.71
          (Kelvin)            215.48   227.63   285.81   302.42   355.83
                              385.29   459.86   487.97   551.53   604.33
                              705.89   808.07   843.80  1015.82  1026.92
                             1084.20  1238.07  1316.61  1639.02  1668.62
                             1821.94  2069.53  2110.69  2270.75  2285.76

 Zero-point correction=                           0.041799 (Hartree/Particle)
 Thermal correction to Energy=                    0.054258
 Thermal correction to Enthalpy=                  0.055202
 Thermal correction to Gibbs Free Energy=        -0.002015
 Sum of electronic and zero-point Energies=         -10675.764751
 Sum of electronic and thermal Energies=            -10675.752292
 Sum of electronic and thermal Enthalpies=          -10675.751348
 Sum of electronic and thermal Free Energies=       -10675.808565

                     E (Thermal)             CV                S
                      KCal/Mol        Cal/Mol-Kelvin    Cal/Mol-Kelvin
 Total                   34.047             40.618            120.424
 Electronic               0.000              0.000              1.377
 Translational            0.889              2.981             43.993
 Rotational               0.889              2.981             34.494
 Vibrational             32.270             34.656             40.559
 Vibration     1          0.594              1.983              5.559
 Vibration     2          0.595              1.980              5.093
 Vibration     3          0.599              1.965              3.996
 Vibration     4          0.614              1.916              2.843
 Vibration     5          0.614              1.916              2.840
 Vibration     6          0.618              1.903              2.675
 Vibration     7          0.621              1.893              2.571
 Vibration     8          0.637              1.842              2.146
 Vibration     9          0.642              1.825              2.042
 Vibration    10          0.661              1.767              1.750
 Vibration    11          0.673              1.732              1.610
 Vibration    12          0.706              1.636              1.312
 Vibration    13          0.719              1.597              1.216
 Vibration    14          0.753              1.506              1.026
 Vibration    15          0.783              1.427              0.892
 Vibration    16          0.846              1.271              0.682
 Vibration    17          0.917              1.114              0.521
 Vibration    18          0.944              1.061              0.474

 Optimization completed.
    -- Stationary point found.
 Normal termination of Gaussian 16 at Sat Jan  6 02:23:47 2024.
