 Q-Chem 5.4, Q-Chem, Inc., Pleasanton, CA (2021)
 Q-Chem 5.4.0 for Intel X86 EM64T Linux

User input:
--------------------------------------------------------------
$molecule
-2 1
C                 -2.8843430000     -1.9256500000     -0.1399690000
C                 -2.3917450000     -0.4940100000     -0.0503840000
C                 -3.3514160000      0.4996790000      0.0495630000
C                 -2.9957740000      1.8747440000      0.1380710000
C                 -1.6678480000      2.2241300000      0.1236060000
C                 -0.6322060000      1.2569960000      0.0233770000
C                  0.7284020000      1.7460540000      0.0179440000
O                  1.0207300000      3.0016830000      0.0989360000
C                  1.7355600000      0.7202780000     -0.0853430000
C                  3.1082530000      1.0848350000     -0.1003040000
C                  4.1194270000      0.1519860000     -0.1968450000
C                  3.7904770000     -1.2326100000     -0.2856410000
C                  2.4653880000     -1.6186260000     -0.2736850000
C                  1.3993560000     -0.6867970000     -0.1756110000
C                  0.0372440000     -1.1821670000     -0.1704800000
O                 -0.2093850000     -2.4479010000     -0.2532060000
C                 -0.9881120000     -0.1621640000     -0.0676740000
H                 -3.9843070000     -1.9377750000     -0.1088890000
H                 -2.4865440000     -2.5394440000      0.6709340000
H                 -2.5367710000     -2.4140540000     -1.0527850000
H                 -4.4031650000      0.2149510000      0.0598890000
H                 -3.7724310000      2.6346710000      0.2158680000
H                 -1.3448710000      3.2585020000      0.1883500000
H                  3.3215750000      2.1475360000     -0.0309530000
H                  5.1619260000      0.4683670000     -0.2053660000
H                  4.5803790000     -1.9788840000     -0.3622880000
H                  2.1802020000     -2.6643340000     -0.3397380000
$end
$rem
MAX_SCF_CYCLES=200
BASIS  =  6-311++G(d,p)
GUI  =  2
JOB_TYPE  =  SP
METHOD  =  B3LYP
SOLVENT_METHOD = COSMO
$end
$solvent
dielectric 37.219
opticaldielectric 1.43
$end

--------------------------------------------------------------

             Standard Nuclear Orientation (Angstroms)
    I     Atom           X                Y                Z
 ----------------------------------------------------------------
    1      C       2.8986954142    -2.2517764769     0.0018699541
    2      C       2.5017865145    -0.7879691048     0.0002408142
    3      C       3.5257518863     0.1446993167    -0.0001978484
    4      C       3.2617937801     1.5430713909    -0.0007570448
    5      C       1.9591461133     1.9775553063    -0.0005158891
    6      C       0.8610934880     1.0763180078    -0.0001385803
    7      C      -0.4649309928     1.6526168812     0.0001054993
    8      O      -0.6736176771     2.9273989576     0.0003789562
    9      C      -1.5384201129     0.6909137325     0.0001845575
   10      C      -2.8847664135     1.1434213006     0.0006843565
   11      C      -3.9561019191     0.2749510956     0.0005530498
   12      C      -3.7193838741    -1.1311652217    -0.0000673856
   13      C      -2.4219884634    -1.6020973956    -0.0005055315
   14      C      -1.2959515044    -0.7381594550    -0.0003592764
   15      C       0.0311600035    -1.3208615987    -0.0007085446
   16      O       0.1935635483    -2.6028041587    -0.0013208979
   17      C       1.1224147361    -0.3661401975    -0.0001840223
   18      H       3.9960634467    -2.3343408647     0.0024235151
   19      H       2.4903770779    -2.7802647928    -0.8621480032
   20      H       2.4897965927    -2.7782572611     0.8668540869
   21      H       4.5569305146    -0.2074698511     0.0001668738
   22      H       4.0875545572     2.2536039128    -0.0011913092
   23      H       1.7052196863     3.0329948742    -0.0007408470
   24      H      -3.0273605406     2.2201366660     0.0011190603
   25      H      -4.9759736196     0.6581420255     0.0009208559
   26      H      -4.5574446552    -1.8271529559    -0.0001952505
   27      H      -2.2065219633    -2.6664156318    -0.0008980990
 ----------------------------------------------------------------

   11    -728.2450070314      7.83e-06  Convergence criterion met
 Total energy in the final basis set =     -728.2450070314
    6    -728.5178357752      2.77e-06  Convergence criterion met
 Total energy in the final basis set =     -728.5178357752

                    Orbital Energies (a.u.)
 --------------------------------------------------------------

 Alpha MOs
 -- Occupied --
-19.0244 -19.0201 -10.1793 -10.1747 -10.1609 -10.1507 -10.1495 -10.1471
-10.1469 -10.1467 -10.1434 -10.1422 -10.1415 -10.1393 -10.1382 -10.1381
-10.1375  -0.9414  -0.9377  -0.8281  -0.8218  -0.7543  -0.7442  -0.7239
 -0.7050  -0.6636  -0.6334  -0.6029  -0.5884  -0.5482  -0.5183  -0.5064
 -0.4896  -0.4405  -0.4390  -0.4312  -0.4257  -0.3991  -0.3986  -0.3876
 -0.3763  -0.3732  -0.3723  -0.3701  -0.3521  -0.3454  -0.3359  -0.3237
 -0.3166  -0.3140  -0.3032  -0.2999  -0.2331  -0.2278  -0.2222  -0.2166
 -0.2056  -0.1955  -0.1093

          Ground-State Mulliken Net Atomic Charges

     Atom                 Charge (a.u.)
  ----------------------------------------
      1 C                    -0.541385
      2 C                     0.691416
      3 C                    -0.453165
      4 C                    -0.423694
      5 C                    -0.132693
      6 C                     0.370988
      7 C                    -0.473189
      8 O                    -0.710409
      9 C                     0.085261
     10 C                    -0.036457
     11 C                    -0.514820
     12 C                    -0.536193
     13 C                     0.049881
     14 C                     0.073477
     15 C                    -0.662766
     16 O                    -0.652899
     17 C                     0.294387
     18 H                     0.136488
     19 H                     0.154634
     20 H                     0.154321
     21 H                     0.120103
     22 H                     0.189714
     23 H                     0.146413
     24 H                     0.154895
     25 H                     0.177979
     26 H                     0.178210
     27 H                     0.159502
  ----------------------------------------
  Sum of atomic charges =    -2.000000

                    Cartesian Multipole Moments
 -----------------------------------------------------------------
    Charge (ESU x 10^10)
                -9.6064
    Dipole Moment (Debye)
         X       2.2058      Y      -2.6488      Z       0.0006
       Tot       3.4470
    Quadrupole Moments (Debye-Ang)
        XX    -124.5847     XY       5.6411     YY    -162.2334
        XZ       0.0027     YZ      -0.0159     ZZ    -112.4076

 Total job time:  67.15s(wall), 513.47s(cpu)
        *  Thank you very much for using Q-Chem.  Have a nice day.  *
