 Gaussian 16, Revision A.03,
 Gaussian 16:  ES64L-G16RevA.03 25-Dec-2016

 ----------------------------------------------------------------
 #P UB3LYP/6-311++G(d,p) SCRF=(PCM,Solvent=n,n-DiMethylFormamide)
 ----------------------------------------------------------------

 -------
 Reduced
 -------
 Symbolic Z-matrix:
 Charge = -2 Multiplicity = 1

                         Standard orientation:
 ---------------------------------------------------------------------
 Center     Atomic      Atomic             Coordinates (Angstroms)
 Number     Number       Type             X           Y           Z
 ---------------------------------------------------------------------
      1          8           0       -2.454724   -1.282100    0.000442
      2          6           0       -1.193343   -0.673000    0.000013
      3          6           0       -0.003172   -1.403643    0.000208
      4          6           0        1.256234   -0.746834   -0.000167
      5          8           0        2.456310   -1.315275   -0.000566
      6          6           0        1.193333    0.673046    0.000222
      7          6           0        0.003211    1.403629   -0.000009
      8          6           0       -1.256279    0.746818   -0.000317
      9          8           0       -2.456237    1.315362   -0.000467
     10          8           0        2.454703    1.282046    0.000475
     11          1           0       -3.004473   -0.456723    0.000461
     12          1           0       -0.032586   -2.492564    0.000283
     13          1           0        0.032502    2.492548    0.000477
     14          1           0        3.004239    0.456385    0.000012
 ---------------------------------------------------------------------

 SCF Done:  E(UB3LYP) =  -532.346026351     A.U. after   14 cycles

 The electronic state is 1-A.
 Alpha  occ. eigenvalues --  -19.10621 -19.10621 -19.02582 -19.02580 -10.17300
 Alpha  occ. eigenvalues --  -10.17299 -10.16735 -10.16734 -10.12554 -10.12552
 Alpha  occ. eigenvalues --   -1.01366  -1.01207  -0.91850  -0.91759  -0.77813
 Alpha  occ. eigenvalues --   -0.69139  -0.64278  -0.56631  -0.54285  -0.49925
 Alpha  occ. eigenvalues --   -0.45082  -0.43369  -0.41716  -0.39883  -0.38675
 Alpha  occ. eigenvalues --   -0.36106  -0.35569  -0.34513  -0.33858  -0.30522
 Alpha  occ. eigenvalues --   -0.29949  -0.29467  -0.22019  -0.21601  -0.21033
 Alpha  occ. eigenvalues --   -0.18650  -0.11834
 Alpha virt. eigenvalues --    0.00504   0.01853   0.02024   0.03094   0.03616
 Alpha virt. eigenvalues --    0.05804   0.06557   0.07115   0.08227   0.08430
 Alpha virt. eigenvalues --    0.08813   0.09129   0.10038   0.12708   0.12718

  Beta  occ. eigenvalues --  -19.10621 -19.10621 -19.02582 -19.02580 -10.17300
  Beta  occ. eigenvalues --  -10.17299 -10.16735 -10.16734 -10.12554 -10.12552
  Beta  occ. eigenvalues --   -1.01366  -1.01207  -0.91850  -0.91759  -0.77813
  Beta  occ. eigenvalues --   -0.69139  -0.64278  -0.56631  -0.54285  -0.49925
  Beta  occ. eigenvalues --   -0.45082  -0.43369  -0.41716  -0.39883  -0.38675
  Beta  occ. eigenvalues --   -0.36106  -0.35569  -0.34513  -0.33858  -0.30522
  Beta  occ. eigenvalues --   -0.29949  -0.29467  -0.22019  -0.21601  -0.21033
  Beta  occ. eigenvalues --   -0.18650  -0.11834
  Beta virt. eigenvalues --    0.00504   0.01853   0.02024   0.03094   0.03616
  Beta virt. eigenvalues --    0.05804   0.06557   0.07115   0.08227   0.08430
  Beta virt. eigenvalues --    0.08813   0.09129   0.10038   0.12708   0.12718

 Mulliken charges and spin densities:
               1          2
     1  O   -0.377138  -0.000000
     2  C   -0.194454  -0.000000
     3  C    0.175120   0.000000
     4  C   -0.269198  -0.000000
     5  O   -0.757098  -0.000000
     6  C   -0.194499   0.000000
     7  C    0.175236  -0.000000
     8  C   -0.269143   0.000000
     9  O   -0.757120  -0.000000
    10  O   -0.377142  -0.000000
    11  H    0.268002  -0.000000
    12  H    0.154718   0.000000
    13  H    0.154707  -0.000000
    14  H    0.268009  -0.000000
 Sum of Mulliken charges =  -2.00000  -0.00000

 Dipole moment (field-independent basis, Debye):
    X=             -0.0007    Y=             -0.0006    Z=              0.0025  Tot=              0.0026
 Quadrupole moment (field-independent basis, Debye-Ang):
   XX=           -114.7540   YY=            -87.0372   ZZ=            -66.4646
   XY=             12.6058   XZ=             -0.0019   YZ=              0.0005

 Normal termination of Gaussian 16 at Wed Jan 24 22:48:43 2024.
