 Gaussian 16, Revision A.03,
 Gaussian 16:  ES64L-G16RevA.03 25-Dec-2016

 --------------------------------------
 #P UB3LYP/6-311++G(d,p) nosym opt freq
 --------------------------------------

 --------
 Oxidized
 --------
 Symbolic Z-matrix:
 Charge =  0 Multiplicity = 1

 SCF Done:  E(UB3LYP) =  -649.827780483     A.U. after   16 cycles
 SCF Done:  E(UB3LYP) =  -649.829666006     A.U. after   13 cycles
 SCF Done:  E(UB3LYP) =  -649.829795052     A.U. after   12 cycles
 SCF Done:  E(UB3LYP) =  -649.829805441     A.U. after   11 cycles
 SCF Done:  E(UB3LYP) =  -649.829806351     A.U. after    9 cycles
 SCF Done:  E(UB3LYP) =  -649.829805991     A.U. after   10 cycles
 SCF Done:  E(UB3LYP) =  -649.829806324     A.U. after    9 cycles
 Optimization completed.
    -- Stationary point found.
 Normal termination of Gaussian 16 at Thu Dec 28 20:03:14 2023.

 ----------------------------------------------------------------------
 #P Geom=AllCheck Guess=TCheck SCRF=Check GenChk UB3LYP/6-311++G(d,p) F
 req
 ----------------------------------------------------------------------

 Structure from the checkpoint file:  "308.chk"
 --------
 Oxidized
 --------
 Charge =  0 Multiplicity = 1

                          Input orientation:
 ---------------------------------------------------------------------
 Center     Atomic      Atomic             Coordinates (Angstroms)
 Number     Number       Type             X           Y           Z
 ---------------------------------------------------------------------
      1          6           0       -4.077829    3.602720    1.535927
      2          6           0       -4.561476    3.822752    0.249479
      3          6           0       -3.974929    3.182744   -0.832241
      4          6           0       -2.893187    2.309363   -0.654040
      5          6           0       -2.387454    2.072675    0.643933
      6          6           0       -3.004606    2.738311    1.727073
      7          6           0       -2.513602    2.528118    3.126656
      8          6           0       -1.380200    1.613713    3.323300
      9          6           0       -0.775352    0.968418    2.311170
     10          6           0       -1.240326    1.154881    0.891723
     11          8           0       -3.033593    3.093908    4.077009
     12          8           0       -0.663655    0.550300    0.004157
     13          1           0       -4.515064    4.087698    2.398815
     14          1           0       -4.351704    3.353760   -1.836788
     15          8           0       -2.331190    1.691951   -1.719466
     16          6           0        0.380364    0.035930    2.507719
     17          1           0       -5.397061    4.493777    0.086701
     18          1           0       -1.057383    1.490472    4.352263
     19          1           0       -2.792360    1.961423   -2.522133
     20          1           0        0.647927   -0.038591    3.562325
     21          1           0        1.249377    0.376855    1.938445
     22          1           0        0.139243   -0.959711    2.125592
 ---------------------------------------------------------------------

 SCF Done:  E(UB3LYP) =  -649.829806324     A.U. after    2 cycles

 Alpha  occ. eigenvalues --  -19.17863 -19.12543 -19.12426 -10.27760 -10.27552
 Alpha  occ. eigenvalues --  -10.27298 -10.21868 -10.21143 -10.21095 -10.20808
 Alpha  occ. eigenvalues --  -10.20607 -10.20000 -10.19463 -10.18046  -1.09616
 Alpha  occ. eigenvalues --   -1.05861  -1.05669  -0.89087  -0.84676  -0.79288
 Alpha  occ. eigenvalues --   -0.77550  -0.73187  -0.68498  -0.66408  -0.62846
 Alpha  occ. eigenvalues --   -0.60726  -0.55713  -0.54653  -0.51008  -0.50631
 Alpha  occ. eigenvalues --   -0.48410  -0.46989  -0.46287  -0.45059  -0.43618
 Alpha  occ. eigenvalues --   -0.43180  -0.42312  -0.42007  -0.40626  -0.39940
 Alpha  occ. eigenvalues --   -0.39629  -0.38643  -0.38284  -0.36134  -0.29560
 Alpha  occ. eigenvalues --   -0.28424  -0.27750  -0.26473  -0.25596
 Alpha virt. eigenvalues --   -0.11952  -0.04889  -0.03700  -0.02258  -0.00399
 Alpha virt. eigenvalues --   -0.00060   0.01906   0.02238   0.03034   0.03242
 Alpha virt. eigenvalues --    0.03268   0.04711   0.04990   0.05105   0.06054

  Beta  occ. eigenvalues --  -19.17863 -19.12543 -19.12426 -10.27760 -10.27552
  Beta  occ. eigenvalues --  -10.27298 -10.21868 -10.21143 -10.21095 -10.20808
  Beta  occ. eigenvalues --  -10.20607 -10.20000 -10.19463 -10.18046  -1.09616
  Beta  occ. eigenvalues --   -1.05861  -1.05669  -0.89087  -0.84676  -0.79288
  Beta  occ. eigenvalues --   -0.77550  -0.73187  -0.68498  -0.66408  -0.62846
  Beta  occ. eigenvalues --   -0.60726  -0.55713  -0.54653  -0.51008  -0.50631
  Beta  occ. eigenvalues --   -0.48410  -0.46989  -0.46287  -0.45059  -0.43618
  Beta  occ. eigenvalues --   -0.43180  -0.42312  -0.42007  -0.40626  -0.39940
  Beta  occ. eigenvalues --   -0.39629  -0.38643  -0.38284  -0.36134  -0.29560
  Beta  occ. eigenvalues --   -0.28424  -0.27750  -0.26473  -0.25596
  Beta virt. eigenvalues --   -0.11952  -0.04889  -0.03700  -0.02258  -0.00399
  Beta virt. eigenvalues --   -0.00060   0.01906   0.02238   0.03034   0.03242
  Beta virt. eigenvalues --    0.03268   0.04711   0.04990   0.05105   0.06054

 Mulliken charges and spin densities:
               1          2
     1  C   -0.077151   0.000000
     2  C   -0.234947   0.000000
     3  C   -0.181574  -0.000000
     4  C    0.242609  -0.000000
     5  C   -0.112793   0.000000
     6  C    0.865533  -0.000000
     7  C   -1.028036   0.000000
     8  C   -0.319246  -0.000000
     9  C    0.688017   0.000000
    10  C   -0.470524   0.000000
    11  O   -0.227617  -0.000000
    12  O   -0.195940  -0.000000
    13  H    0.178146   0.000000
    14  H    0.125668  -0.000000
    15  O   -0.154457  -0.000000
    16  C   -0.268115  -0.000000
    17  H    0.190291   0.000000
    18  H    0.178455  -0.000000
    19  H    0.265449   0.000000
    20  H    0.160380  -0.000000
    21  H    0.187947  -0.000000
    22  H    0.187906  -0.000000
 Sum of Mulliken charges =  -0.00000   0.00000

 Dipole moment (field-independent basis, Debye):
    X=             -1.2489    Y=              0.7108    Z=             -2.3113  Tot=              2.7216
 Quadrupole moment (field-independent basis, Debye-Ang):
   XX=            -70.3533   YY=            -78.2188   ZZ=            -83.9743
   XY=             -7.0084   XZ=             18.1160   YZ=            -15.3391

  Exact polarizability: 136.082 -52.761 116.152   7.578   7.372 168.092
 Approx polarizability: 216.360 -89.056 192.581 -20.253  42.590 295.081

                      1                      2                      3
                      A                      A                      A
 Frequencies --     43.5293                69.8688               134.0243
 Red. masses --      6.3447                 6.9243                 1.6528
 Frc consts  --      0.0071                 0.0199                 0.0175
 IR Inten    --     10.9574                 0.3352                 0.0000

                      4                      5                      6
                      A                      A                      A
 Frequencies --    159.7099               194.7076               233.4921
 Red. masses --      2.0041                 3.2761                 4.6034
 Frc consts  --      0.0301                 0.0732                 0.1479
 IR Inten    --      0.1831                 1.1091                 3.8460

                      7                      8                      9
                      A                      A                      A
 Frequencies --    239.6108               312.6663               353.4296
 Red. masses --      4.4641                 4.0202                 2.5277
 Frc consts  --      0.1510                 0.2316                 0.1860
 IR Inten    --      2.9884                 0.0879                15.1301

                     10                     11                     12
                      A                      A                      A
 Frequencies --    368.5492               387.0570               389.6524
 Red. masses --      8.6981                 8.2030                 1.3411
 Frc consts  --      0.6961                 0.7241                 0.1200
 IR Inten    --      4.2615                 1.0115                76.0630

                     13                     14                     15
                      A                      A                      A
 Frequencies --    410.7860               471.6985               472.1294
 Red. masses --      7.8256                 4.1467                 6.5598
 Frc consts  --      0.7780                 0.5436                 0.8615
 IR Inten    --     25.5762                 0.6543                 3.1929

                     16                     17                     18
                      A                      A                      A
 Frequencies --    521.0921               543.0271               575.0102
 Red. masses --      7.4944                 4.4592                 5.9830
 Frc consts  --      1.1990                 0.7747                 1.1655
 IR Inten    --      9.0023                 3.1383                 0.5776

                     19                     20                     21
                      A                      A                      A
 Frequencies --    663.7155               688.3688               706.7478
 Red. masses --      4.1702                 3.4595                 6.2872
 Frc consts  --      1.0824                 0.9658                 1.8503
 IR Inten    --      1.6494                14.1321                12.3898

                     22                     23                     24
                      A                      A                      A
 Frequencies --    715.1073               782.0205               784.1041
 Red. masses --      3.4804                 2.2499                 5.0693
 Frc consts  --      1.0486                 0.8107                 1.8363
 IR Inten    --      4.7166                23.2511                 7.2943

                     25                     26                     27
                      A                      A                      A
 Frequencies --    811.2787               902.8567               905.3408
 Red. masses --      2.7619                 5.6948                 1.3540
 Frc consts  --      1.0710                 2.7350                 0.6539
 IR Inten    --     29.0991                29.8934                10.4207

                     28                     29                     30
                      A                      A                      A
 Frequencies --    919.4808               988.8056               993.0747
 Red. masses --      1.5441                 5.6682                 1.3096
 Frc consts  --      0.7691                 3.2653                 0.7609
 IR Inten    --      9.0827                26.4841                 0.2338

                     31                     32                     33
                      A                      A                      A
 Frequencies --   1032.2306              1057.2492              1090.6175
 Red. masses --      1.6071                 1.5359                 2.3871
 Frc consts  --      1.0089                 1.0115                 1.6729
 IR Inten    --     20.2791                 2.7785                 0.2679

                     34                     35                     36
                      A                      A                      A
 Frequencies --   1153.6931              1168.8122              1191.1350
 Red. masses --      2.2852                 2.2172                 1.1613
 Frc consts  --      1.7921                 1.7846                 0.9707
 IR Inten    --     72.5674                26.2542                 6.3066

                     37                     38                     39
                      A                      A                      A
 Frequencies --   1224.1761              1270.2788              1305.6139
 Red. masses --      1.8011                 2.6478                 2.2945
 Frc consts  --      1.5903                 2.5173                 2.3044
 IR Inten    --      5.5385               228.8705                91.4363

                     40                     41                     42
                      A                      A                      A
 Frequencies --   1317.6808              1363.3192              1371.7409
 Red. masses --      4.6469                 2.7484                 5.1088
 Frc consts  --      4.7537                 3.0097                 5.6639
 IR Inten    --    228.4406                 5.1937                 7.3537

                     43                     44                     45
                      A                      A                      A
 Frequencies --   1414.7361              1465.8600              1477.9086
 Red. masses --      1.2847                 1.0437                 1.0905
 Frc consts  --      1.5150                 1.3213                 1.4034
 IR Inten    --     14.7416                 8.9518                16.7206

                     46                     47                     48
                      A                      A                      A
 Frequencies --   1485.9671              1498.6952              1615.9261
 Red. masses --      2.6686                 2.8025                 5.9901
 Frc consts  --      3.4718                 3.7088                 9.2156
 IR Inten    --     29.1493                11.4327                19.5941

                     49                     50                     51
                      A                      A                      A
 Frequencies --   1627.7199              1682.5333              1716.7103
 Red. masses --      6.3409                 8.3711                10.1801
 Frc consts  --      9.8983                13.9623                17.6764
 IR Inten    --    143.4196                63.6959                25.5002

                     52                     53                     54
                      A                      A                      A
 Frequencies --   1721.1879              3037.2724              3088.5475
 Red. masses --     12.0961                 1.0355                 1.0985
 Frc consts  --     21.1131                 5.6282                 6.1740
 IR Inten    --    405.0933                 9.0320                 5.7563

                     55                     56                     57
                      A                      A                      A
 Frequencies --   3121.4605              3148.7770              3168.8156
 Red. masses --      1.1036                 1.0891                 1.0918
 Frc consts  --      6.3353                 6.3623                 6.4592
 IR Inten    --     13.1654                11.4754                 7.9588

                     58                     59                     60
                      A                      A                      A
 Frequencies --   3181.9906              3208.5332              3810.9630
 Red. masses --      1.0919                 1.0933                 1.0660
 Frc consts  --      6.5137                 6.6313                 9.1218
 IR Inten    --      8.6161                 3.0929                72.4146

 - Thermochemistry -
 -------------------
 Temperature   298.150 Kelvin.  Pressure   1.00000 Atm.
 Atom     1 has atomic number  6 and mass  12.00000

 Molecular mass:   188.04734 amu.
 Principal axes and moments of inertia in atomic units:
                           1         2         3
     Eigenvalues --  1845.780222483.195474317.98490
           X            0.63978  -0.43254   0.63528
           Y           -0.44283   0.46813   0.76470
           Z            0.62816   0.77056  -0.10796
 This molecule is an asymmetric top.
 Rotational symmetry number  1.
 Warning -- assumption of classical behavior for rotation
           may cause significant error
 Rotational temperatures (Kelvin)      0.04693     0.03488     0.02006
 Rotational constants (GHZ):           0.97777     0.72678     0.41796
 Zero-point vibrational energy     429226.7 (Joules/Mol)
                                  102.58763 (Kcal/Mol)
 Warning -- explicit consideration of  18 degrees of freedom as
           vibrations may cause significant error
 Vibrational temperatures:     62.63   100.53   192.83   229.79   280.14
          (Kelvin)            335.94   344.75   449.86   508.51   530.26
                              556.89   560.62   591.03   678.67   679.29
                              749.74   781.29   827.31   954.94   990.41
                             1016.85  1028.88  1125.15  1128.15  1167.25
                             1299.01  1302.58  1322.93  1422.67  1428.81
                             1485.15  1521.15  1569.16  1659.91  1681.66
                             1713.78  1761.32  1827.65  1878.49  1895.85
                             1961.51  1973.63  2035.49  2109.05  2126.38
                             2137.98  2156.29  2324.96  2341.93  2420.79
                             2469.96  2476.41  4369.96  4443.73  4491.09
                             4530.39  4559.22  4578.17  4616.36  5483.13

 Zero-point correction=                           0.163484 (Hartree/Particle)
 Thermal correction to Energy=                    0.175138
 Thermal correction to Enthalpy=                  0.176082
 Thermal correction to Gibbs Free Energy=         0.125598
 Sum of electronic and zero-point Energies=           -649.666323
 Sum of electronic and thermal Energies=              -649.654668
 Sum of electronic and thermal Enthalpies=            -649.653724
 Sum of electronic and thermal Free Energies=         -649.704209

                     E (Thermal)             CV                S
                      KCal/Mol        Cal/Mol-Kelvin    Cal/Mol-Kelvin
 Total                  109.901             45.118            106.254
 Electronic               0.000              0.000              0.000
 Translational            0.889              2.981             41.600
 Rotational               0.889              2.981             31.360
 Vibrational            108.123             39.156             33.294
 Vibration     1          0.595              1.980              5.092
 Vibration     2          0.598              1.968              4.157
 Vibration     3          0.613              1.919              2.887
 Vibration     4          0.622              1.892              2.553
 Vibration     5          0.635              1.847              2.183
 Vibration     6          0.654              1.790              1.852
 Vibration     7          0.657              1.780              1.806
 Vibration     8          0.701              1.650              1.348
 Vibration     9          0.730              1.568              1.151
 Vibration    10          0.741              1.537              1.086
 Vibration    11          0.755              1.498              1.011
 Vibration    12          0.758              1.492              1.001
 Vibration    13          0.775              1.447              0.924
 Vibration    14          0.829              1.313              0.733
 Vibration    15          0.829              1.312              0.732
 Vibration    16          0.876              1.203              0.607
 Vibration    17          0.898              1.155              0.559
 Vibration    18          0.931              1.085              0.495

 Optimization completed.
    -- Stationary point found.
 Normal termination of Gaussian 16 at Thu Dec 28 20:25:28 2023.
