 Q-Chem 5.4, Q-Chem, Inc., Pleasanton, CA (2021)
 Q-Chem 5.4.0 for Intel X86 EM64T Linux

User input:
--------------------------------------------------------------
$molecule
-2 1
C                 -1.7862620000      1.1306190000      0.6301910000
C                 -1.1358370000     -0.0936430000     -0.0593010000
C                 -1.6833650000     -1.3652380000      0.6182730000
C                 -1.5778150000     -0.1310560000     -1.5450930000
C                  0.4024410000      0.0272360000      0.0150330000
C                  1.1774050000     -0.9498060000      0.6526380000
C                  2.6082300000     -0.9227550000      0.7827900000
O                  3.2810640000     -1.8539940000      1.3832940000
C                  3.2111420000      0.2359980000      0.1957240000
C                  2.4633530000      1.2235260000     -0.4369490000
C                  1.0394480000      1.1895860000     -0.5810440000
O                  0.3944610000      2.1388160000     -1.1953580000
H                 -2.8805900000      1.1037520000      0.5338720000
H                 -1.5377640000      1.1351370000      1.6987900000
H                 -1.3994500000      2.0442300000      0.1722990000
H                 -2.7768550000     -1.3968050000      0.5296630000
H                 -1.4316250000     -1.3975780000      1.6831050000
H                 -1.2836650000     -2.2735520000      0.1543970000
H                 -1.1611760000     -1.0179610000     -2.0362700000
H                 -2.6754240000     -0.1822020000     -1.6282190000
H                 -1.2075580000      0.7610290000     -2.0532340000
H                  0.7023780000     -1.8200760000      1.0962630000
H                  4.2964630000      0.3244880000      0.2630220000
H                  2.9610010000      2.0902460000     -0.8738830000
$end
$rem
MAX_SCF_CYCLES=200
BASIS  =  6-311++G(d,p)
GUI  =  2
JOB_TYPE  =  SP
METHOD  =  B3LYP
SOLVENT_METHOD = PCM
$end
$pcm
theory = CPCM
$end
$solvent
dielectric 37.219
opticaldielectric 1.43
$end

--------------------------------------------------------------

             Standard Nuclear Orientation (Angstroms)
    I     Atom           X                Y                Z
 ----------------------------------------------------------------
    1      C      -1.7862620000     1.1306190000     0.6301910000
    2      C      -1.1358370000    -0.0936430000    -0.0593010000
    3      C      -1.6833650000    -1.3652380000     0.6182730000
    4      C      -1.5778150000    -0.1310560000    -1.5450930000
    5      C       0.4024410000     0.0272360000     0.0150330000
    6      C       1.1774050000    -0.9498060000     0.6526380000
    7      C       2.6082300000    -0.9227550000     0.7827900000
    8      O       3.2810640000    -1.8539940000     1.3832940000
    9      C       3.2111420000     0.2359980000     0.1957240000
   10      C       2.4633530000     1.2235260000    -0.4369490000
   11      C       1.0394480000     1.1895860000    -0.5810440000
   12      O       0.3944610000     2.1388160000    -1.1953580000
   13      H      -2.8805900000     1.1037520000     0.5338720000
   14      H      -1.5377640000     1.1351370000     1.6987900000
   15      H      -1.3994500000     2.0442300000     0.1722990000
   16      H      -2.7768550000    -1.3968050000     0.5296630000
   17      H      -1.4316250000    -1.3975780000     1.6831050000
   18      H      -1.2836650000    -2.2735520000     0.1543970000
   19      H      -1.1611760000    -1.0179610000    -2.0362700000
   20      H      -2.6754240000    -0.1822020000    -1.6282190000
   21      H      -1.2075580000     0.7610290000    -2.0532340000
   22      H       0.7023780000    -1.8200760000     1.0962630000
   23      H       4.2964630000     0.3244880000     0.2630220000
   24      H       2.9610010000     2.0902460000    -0.8738830000
 ----------------------------------------------------------------

    9    -539.1221041412      6.84e-06  Convergence criterion met
 Total energy in the final basis set =     -539.1221041412

                    Orbital Energies (a.u.)
 --------------------------------------------------------------

 Alpha MOs
 -- Occupied --
-19.0125 -19.0068 -10.1624 -10.1613 -10.1602 -10.1371 -10.1307 -10.1303
-10.1268 -10.1160 -10.1153 -10.1136  -0.9247  -0.9198  -0.7978  -0.7600
 -0.6871  -0.6635  -0.6591  -0.6347  -0.5676  -0.5303  -0.4938  -0.4377
 -0.4292  -0.4159  -0.4142  -0.3975  -0.3880  -0.3763  -0.3584  -0.3489
 -0.3462  -0.3389  -0.3346  -0.3151  -0.3085  -0.3005  -0.2990  -0.2937
 -0.2199  -0.2071  -0.1928  -0.1847  -0.1124

          Ground-State Mulliken Net Atomic Charges

     Atom                 Charge (a.u.)
  ----------------------------------------
      1 C                    -0.685052
      2 C                     0.656410
      3 C                    -0.523615
      4 C                    -0.686107
      5 C                     0.954443
      6 C                    -0.523538
      7 C                    -0.538911
      8 O                    -0.772907
      9 C                     0.027906
     10 C                    -0.149237
     11 C                    -0.731969
     12 O                    -0.713812
     13 H                     0.135131
     14 H                     0.123749
     15 H                     0.170096
     16 H                     0.163388
     17 H                     0.129555
     18 H                     0.128438
     19 H                     0.125435
     20 H                     0.136091
     21 H                     0.169793
     22 H                     0.144214
     23 H                     0.130544
     24 H                     0.129955
  ----------------------------------------
  Sum of atomic charges =    -2.000000

                    Cartesian Multipole Moments
 -----------------------------------------------------------------
    Charge (ESU x 10^10)
                -9.6064
    Dipole Moment (Debye)
         X     -17.5670      Y      -0.9288      Z      -1.1734
       Tot      17.6306
    Quadrupole Moments (Debye-Ang)
        XX    -136.1234     XY      21.2639     YY    -116.9625
        XZ     -17.2110     YZ      20.4855     ZZ     -98.4534

 Total job time:  25.94s(wall), 195.47s(cpu)
        *  Thank you very much for using Q-Chem.  Have a nice day.  *
