 Q-Chem 5.4, Q-Chem, Inc., Pleasanton, CA (2021)
 Q-Chem 5.4.0 for Intel X86 EM64T Linux

User input:
--------------------------------------------------------------
$molecule
-1 2
C                 -1.3082680000      1.9071850000     -4.2523390000
C                 -1.2332440000      0.5308320000     -4.3306320000
C                 -0.9674030000     -0.2264890000     -3.1688940000
C                 -1.1248790000      2.5779560000     -3.0230000000
C                 -0.8589890000      1.8186630000     -1.8578860000
C                 -0.7834590000      0.4113690000     -1.9585880000
C                 -1.2062360000      4.0346480000     -2.9798400000
C                 -0.6596760000      2.4579160000     -0.5623680000
C                 -1.0213220000      4.6847180000     -1.6911190000
C                 -0.7630550000      3.9090300000     -0.4988850000
C                 -1.0659740000      6.1233570000     -1.6031540000
C                 -0.8050110000      6.7335190000     -0.3749180000
C                 -0.5613940000      5.9806220000      0.7781610000
C                 -0.5681920000      4.5871560000      0.7568350000
O                 -1.4244890000      4.6708310000     -4.0613220000
O                 -0.3938190000      1.7293650000      0.4493500000
H                 -1.5090960000      2.5147280000     -5.1265470000
H                 -1.3781800000      0.0302940000     -5.2835310000
H                 -0.9082950000     -1.3093240000     -3.2286850000
H                 -0.5776350000     -0.1432310000     -1.0510260000
H                 -0.3858760000      6.5039960000      1.7102390000
H                 -0.8055420000      7.8140360000     -0.2999380000
N                 -1.3672860000      6.8776330000     -2.7168780000
C                 -1.2208420000      8.3049590000     -2.7631770000
H                 -1.4233740000      6.3209930000     -3.5729300000
H                 -0.2031580000      8.6447710000     -2.5048160000
H                 -1.9157610000      8.8185640000     -2.0820950000
H                 -1.4426380000      8.6449810000     -3.7772020000
N                 -0.4075140000      3.8534920000      1.9253870000
C                  0.1595710000      4.4232590000      3.1177730000
C                  0.2931330000      3.3538770000      4.1995620000
O                  0.8957010000      3.8664430000      5.3945990000
H                 -0.2524310000      2.8593030000      1.7190240000
H                 -0.4684990000      5.2332950000      3.5111240000
H                  1.1595920000      4.8683980000      2.9336550000
H                  0.8673630000      2.5011200000      3.8145100000
H                 -0.6914900000      2.9877250000      4.4941620000
H                  1.7549970000      4.2289830000      5.1561140000
$end
$rem
MAX_SCF_CYCLES=200
BASIS  =  6-311++G(d,p)
GUI  =  2
JOB_TYPE  =  SP
METHOD  =  B3LYP
SOLVENT_METHOD = COSMO
$end
$solvent
dielectric 37.219
opticaldielectric 1.43
$end

--------------------------------------------------------------

             Standard Nuclear Orientation (Angstroms)
    I     Atom           X                Y                Z
 ----------------------------------------------------------------
    1      C       3.8726203673     1.1672822042    -0.0641869440
    2      C       4.2114551805     2.5055069787    -0.0854330585
    3      C       3.1979683139     3.4883657893    -0.0594591387
    4      C       2.5215525816     0.7586326576    -0.0145782423
    5      C       1.5052182496     1.7440580837     0.0121657342
    6      C       1.8717041576     3.1083844826    -0.0128069001
    7      C       2.2013972641    -0.6653336724     0.0013526503
    8      C       0.0939077334     1.3801009565     0.0619130419
    9      C       0.7972801643    -1.0424554332     0.0631616778
   10      C      -0.2402202984    -0.0365998650     0.1039414926
   11      C       0.4305125701    -2.4370185678     0.0537271683
   12      C      -0.9226683339    -2.7795411848     0.0304307476
   13      C      -1.9243240881    -1.8046558820     0.0760236425
   14      C      -1.6203566873    -0.4464483490     0.1476101003
   15      O       3.1529875142    -1.5103282250    -0.0479088955
   16      O      -0.7815636802     2.3066721190     0.0544631836
   17      H       4.6277995521     0.3907787757    -0.0848469047
   18      H       5.2553366478     2.8030395421    -0.1221358315
   19      H       3.4627962624     4.5415500870    -0.0758710018
   20      H       1.0728288556     3.8398224643     0.0074463331
   21      H      -2.9589540903    -2.1256471828     0.0773095595
   22      H      -1.2132522473    -3.8222789778    -0.0069611492
   23      N       1.4056401754    -3.4111164456     0.0727490393
   24      C       1.1318566106    -4.8024248181    -0.1511985552
   25      H       2.3503336155    -3.0324585831    -0.0272084886
   26      H       0.6127197167    -4.9936964630    -1.1060887944
   27      H       0.5131563907    -5.2401525378     0.6464101738
   28      H       2.0794423951    -5.3454338996    -0.1678552372
   29      N      -2.6242313849     0.5049847647     0.2764692600
   30      C      -3.9958016779     0.2230919688    -0.0511518436
   31      C      -4.8431064645     1.4841133812     0.1024180300
   32      O      -6.2126998877     1.2618895442    -0.2564077659
   33      H      -2.2559221412     1.4526990823     0.1307501273
   34      H      -4.4119488779    -0.5524608658     0.6051213954
   35      H      -4.1084859946    -0.1558302080    -1.0883646455
   36      H      -4.4155474076     2.2981069900    -0.4974213606
   37      H      -4.8554157984     1.8079183756     1.1442134538
   38      H      -6.2285138388     0.9407452808    -1.1637755213
 ----------------------------------------------------------------

    9    -992.9708075819      9.56e-06  Convergence criterion met
 Total energy in the final basis set =     -992.9708075819
    4    -993.0563398225      5.95e-06  Convergence criterion met
 Total energy in the final basis set =     -993.0563398225

                    Orbital Energies (a.u.)
 --------------------------------------------------------------

 Alpha MOs
 -- Occupied --
-19.1311 -19.0767 -19.0766 -14.3044 -14.3043 -10.2248 -10.2248 -10.2171
-10.2057 -10.2052 -10.1966 -10.1876 -10.1722 -10.1713 -10.1710 -10.1705
-10.1700 -10.1696 -10.1677 -10.1676 -10.1615 -10.1604  -1.0292  -1.0048
 -1.0022  -0.9268  -0.9207  -0.8572  -0.8306  -0.7810  -0.7553  -0.7488
 -0.7387  -0.7125  -0.6745  -0.6615  -0.6412  -0.6238  -0.6102  -0.5780
 -0.5650  -0.5322  -0.5251  -0.5141  -0.5014  -0.4864  -0.4774  -0.4663
 -0.4598  -0.4576  -0.4500  -0.4359  -0.4323  -0.4218  -0.4189  -0.4174
 -0.4115  -0.4067  -0.3962  -0.3883  -0.3806  -0.3791  -0.3736  -0.3684
 -0.3608  -0.3468  -0.3451  -0.3382  -0.3347  -0.3104  -0.2891  -0.2695
 -0.2556  -0.2520  -0.2468  -0.2412  -0.2376  -0.1843  -0.1345

 Beta MOs
 -- Occupied --
-19.1311 -19.0722 -19.0722 -14.3037 -14.3035 -10.2231 -10.2229 -10.2171
-10.2053 -10.2047 -10.1966 -10.1876 -10.1722 -10.1714 -10.1706 -10.1701
-10.1693 -10.1689 -10.1677 -10.1676 -10.1603 -10.1590  -1.0292  -0.9973
 -0.9944  -0.9249  -0.9190  -0.8552  -0.8289  -0.7772  -0.7540  -0.7471
 -0.7370  -0.7114  -0.6716  -0.6561  -0.6399  -0.6224  -0.6088  -0.5769
 -0.5633  -0.5301  -0.5241  -0.5132  -0.5004  -0.4855  -0.4751  -0.4654
 -0.4588  -0.4566  -0.4487  -0.4330  -0.4312  -0.4215  -0.4140  -0.4120
 -0.4099  -0.4035  -0.3946  -0.3866  -0.3787  -0.3726  -0.3657  -0.3627
 -0.3596  -0.3453  -0.3419  -0.3340  -0.3287  -0.3047  -0.2890  -0.2546
 -0.2495  -0.2445  -0.2421  -0.2373  -0.2337  -0.1716

          Ground-State Mulliken Net Atomic Charges

     Atom                 Charge (a.u.)    Spin (a.u.)
  --------------------------------------------------------
      1 C                    -0.043523       0.021672
      2 C                    -0.426768       0.036803
      3 C                    -0.439605       0.031612
      4 C                     0.249733       0.035654
      5 C                     0.203155       0.024449
      6 C                    -0.085016       0.025332
      7 C                    -0.375552       0.091947
      8 C                    -0.435314       0.098405
      9 C                     0.163778      -0.016103
     10 C                     0.353043      -0.005378
     11 C                     0.070053       0.039434
     12 C                    -0.258878       0.107429
     13 C                    -0.419985       0.086537
     14 C                    -0.224029       0.049224
     15 O                    -0.505448       0.154669
     16 O                    -0.483451       0.160530
     17 H                     0.182368      -0.000436
     18 H                     0.200961      -0.002915
     19 H                     0.200790      -0.002544
     20 H                     0.171674      -0.000994
     21 H                     0.193619      -0.006982
     22 H                     0.208143      -0.007757
     23 N                    -0.324254       0.037008
     24 C                    -0.394078      -0.002490
     25 H                     0.400684      -0.003356
     26 H                     0.158905       0.003972
     27 H                     0.155369       0.002616
     28 H                     0.163333      -0.000108
     29 N                    -0.136567       0.035874
     30 C                    -0.205849       0.001685
     31 C                    -0.364316      -0.000863
     32 O                    -0.354954       0.000020
     33 H                     0.422861      -0.001478
     34 H                     0.167533       0.001692
     35 H                     0.162638       0.004594
     36 H                     0.164375       0.000467
     37 H                     0.195896      -0.000212
     38 H                     0.288672      -0.000005
  --------------------------------------------------------
  Sum of atomic charges =    -1.000003

                    Cartesian Multipole Moments
 -----------------------------------------------------------------
    Charge (ESU x 10^10)
                -4.8032
    Dipole Moment (Debye)
         X      -3.6958      Y      -3.0830      Z      -2.3514
       Tot       5.3566
    Quadrupole Moments (Debye-Ang)
        XX    -168.6938     XY      16.7107     YY    -138.5705
        XZ       9.2756     YZ      -0.1356     ZZ    -136.4990

 Total job time:  216.54s(wall), 1233.11s(cpu)
        *  Thank you very much for using Q-Chem.  Have a nice day.  *
