 Gaussian 16, Revision A.03,
 Gaussian 16:  ES64L-G16RevA.03 25-Dec-2016

 ----------------------------------------------------------------------
 #P UB3LYP/6-311++G(d,p) nosym opt freq SCRF=(PCM,Solvent=n,n-DiMethylF
 ormamide)
 ----------------------------------------------------------------------

 -------
 Radical
 -------
 Symbolic Z-matrix:
 Charge = -1 Multiplicity = 2

 SCF Done:  E(UB3LYP) =  -763.355835158     A.U. after   19 cycles
 SCF Done:  E(UB3LYP) =  -763.356211752     A.U. after   18 cycles
 SCF Done:  E(UB3LYP) =  -763.356555377     A.U. after   16 cycles
 SCF Done:  E(UB3LYP) =  -763.356774038     A.U. after   15 cycles
 SCF Done:  E(UB3LYP) =  -763.356777982     A.U. after   13 cycles
 SCF Done:  E(UB3LYP) =  -763.356793543     A.U. after   12 cycles
 SCF Done:  E(UB3LYP) =  -763.356791467     A.U. after   12 cycles
 SCF Done:  E(UB3LYP) =  -763.356794625     A.U. after   12 cycles
 SCF Done:  E(UB3LYP) =  -763.356796798     A.U. after   11 cycles
 SCF Done:  E(UB3LYP) =  -763.356797480     A.U. after   10 cycles
 SCF Done:  E(UB3LYP) =  -763.356797979     A.U. after   10 cycles
 SCF Done:  E(UB3LYP) =  -763.356798640     A.U. after   10 cycles
 SCF Done:  E(UB3LYP) =  -763.356798911     A.U. after   10 cycles
 Optimization completed.
    -- Stationary point found.
 Normal termination of Gaussian 16 at Sun Feb 11 02:25:33 2024.

 ----------------------------------------------------------------------
 #P Geom=AllCheck Guess=TCheck SCRF=Check GenChk UB3LYP/6-311++G(d,p) F
 req
 ----------------------------------------------------------------------

 Structure from the checkpoint file:  "262-rad.chk"
 -------
 Radical
 -------
 Charge = -1 Multiplicity = 2

                          Input orientation:
 ---------------------------------------------------------------------
 Center     Atomic      Atomic             Coordinates (Angstroms)
 Number     Number       Type             X           Y           Z
 ---------------------------------------------------------------------
      1          6           0        3.693856   -1.341748    0.304672
      2          6           0        2.563944   -0.571107   -0.312140
      3          8           0        2.295021   -0.526279   -1.489152
      4          8           0        1.876560    0.116972    0.637556
      5          6           0        0.677698    0.750400    0.283421
      6          6           0        0.726596    2.126781    0.187358
      7          6           0       -0.444621    2.848651   -0.082990
      8          6           0       -1.638543    2.173820   -0.248078
      9          6           0       -1.703413    0.771315   -0.146134
     10          6           0       -3.014072    0.114257   -0.318314
     11          8           0       -4.059588    0.783964   -0.569558
     12          6           0       -3.030840   -1.310079   -0.181481
     13          6           0       -1.896426   -2.038263    0.086783
     14          6           0       -0.594158   -1.456093    0.250208
     15          8           0        0.417842   -2.180920    0.482405
     16          6           0       -0.521771    0.014628    0.128053
     17          1           0        4.233517   -0.725437    1.025352
     18          1           0        4.369575   -1.695724   -0.471236
     19          1           0        3.271634   -2.195114    0.840461
     20          1           0        1.676724    2.628472    0.327000
     21          1           0       -0.405649    3.929222   -0.159705
     22          1           0       -2.556759    2.708666   -0.455356
     23          1           0       -3.988626   -1.807702   -0.300503
     24          1           0       -1.948501   -3.118685    0.181379
 ---------------------------------------------------------------------

 SCF Done:  E(UB3LYP) =  -763.356798911     A.U. after    1 cycles

 Alpha  occ. eigenvalues --  -19.17412 -19.11916 -19.07800 -19.07763 -10.31303
 Alpha  occ. eigenvalues --  -10.24232 -10.22773 -10.22404 -10.18712 -10.18181
 Alpha  occ. eigenvalues --  -10.17982 -10.17901 -10.17610 -10.17324 -10.16521
 Alpha  occ. eigenvalues --  -10.16421  -1.11759  -1.03351  -1.00044  -0.99785
 Alpha  occ. eigenvalues --   -0.86637  -0.80892  -0.77850  -0.74893  -0.73761
 Alpha  occ. eigenvalues --   -0.68136  -0.64402  -0.62393  -0.60258  -0.53618
 Alpha  occ. eigenvalues --   -0.51301  -0.50918  -0.49785  -0.48668  -0.47601
 Alpha  occ. eigenvalues --   -0.46879  -0.45282  -0.42922  -0.42282  -0.41669
 Alpha  occ. eigenvalues --   -0.41120  -0.40126  -0.39956  -0.39103  -0.38369
 Alpha  occ. eigenvalues --   -0.37731  -0.35994  -0.35801  -0.35131  -0.32416
 Alpha  occ. eigenvalues --   -0.29105  -0.27991  -0.25874  -0.25717  -0.24539
 Alpha  occ. eigenvalues --   -0.23870  -0.15758
 Alpha virt. eigenvalues --   -0.03825  -0.02374  -0.00353  -0.00125   0.00693
 Alpha virt. eigenvalues --    0.01035   0.02468   0.03052   0.03534   0.03620
 Alpha virt. eigenvalues --    0.04561   0.05011   0.05326   0.05739   0.06678

  Beta  occ. eigenvalues --  -19.17409 -19.11915 -19.07159 -19.07096 -10.31301
  Beta  occ. eigenvalues --  -10.24222 -10.22633 -10.22255 -10.18672 -10.18123
  Beta  occ. eigenvalues --  -10.17944 -10.17868 -10.17611 -10.17320 -10.16365
  Beta  occ. eigenvalues --  -10.16279  -1.11750  -1.03342  -0.98911  -0.98628
  Beta  occ. eigenvalues --   -0.86457  -0.80347  -0.77777  -0.74675  -0.73658
  Beta  occ. eigenvalues --   -0.67229  -0.64304  -0.62059  -0.60036  -0.53400
  Beta  occ. eigenvalues --   -0.51131  -0.50718  -0.49747  -0.48564  -0.47470
  Beta  occ. eigenvalues --   -0.46683  -0.45177  -0.42705  -0.41808  -0.41229
  Beta  occ. eigenvalues --   -0.40696  -0.39594  -0.39559  -0.38841  -0.38218
  Beta  occ. eigenvalues --   -0.35824  -0.35542  -0.35104  -0.34429  -0.32282
  Beta  occ. eigenvalues --   -0.29093  -0.25327  -0.25186  -0.24814  -0.23932
  Beta  occ. eigenvalues --   -0.23280
  Beta virt. eigenvalues --   -0.09013  -0.03058  -0.01254  -0.00285  -0.00076
  Beta virt. eigenvalues --    0.00706   0.01048   0.02485   0.03073   0.03610
  Beta virt. eigenvalues --    0.03647   0.05029   0.05351   0.05759   0.05876

 Mulliken charges and spin densities:
               1          2
     1  C   -0.489445   0.001089
     2  C    0.056440   0.001787
     3  O   -0.305110  -0.000608
     4  O    0.003474  -0.002897
     5  C   -0.278881   0.047848
     6  C    0.163738   0.028083
     7  C   -0.564245   0.028083
     8  C    0.000312   0.034007
     9  C    0.337580   0.031223
    10  C   -0.393502   0.093674
    11  O   -0.494328   0.230390
    12  C   -0.085660   0.090664
    13  C   -0.144499   0.097992
    14  C   -0.301645   0.075509
    15  O   -0.480612   0.243834
    16  C    0.500087   0.025508
    17  H    0.176972   0.000277
    18  H    0.168234  -0.000180
    19  H    0.197453  -0.000437
    20  H    0.197134  -0.002101
    21  H    0.196759  -0.002295
    22  H    0.172382  -0.002009
    23  H    0.183817  -0.009112
    24  H    0.183546  -0.010328
 Sum of Mulliken charges =  -1.00000   1.00000

 Dipole moment (field-independent basis, Debye):
    X=              8.3724    Y=              2.8874    Z=              2.7181  Tot=              9.2640
 Quadrupole moment (field-independent basis, Debye-Ang):
   XX=           -128.4105   YY=            -99.3599   ZZ=           -104.8019
   XY=             10.4879   XZ=              0.1193   YZ=              1.6644

  Exact polarizability: 310.174 -17.164 292.215  28.108 -13.878 139.191
 Approx polarizability: 342.497 -27.164 325.354  37.244 -17.570 165.095

                      1                      2                      3
                      A                      A                      A
 Frequencies --     47.7524                55.2466                84.7406
 Red. masses --      6.5310                 3.5495                 4.9497
 Frc consts  --      0.0088                 0.0064                 0.0209
 IR Inten    --      4.2312                 1.4535                10.2868

                      4                      5                      6
                      A                      A                      A
 Frequencies --    106.6204               110.9566               133.5002
 Red. masses --      1.5952                 2.6016                 7.4118
 Frc consts  --      0.0107                 0.0189                 0.0778
 IR Inten    --      4.9499                12.7354                 2.7804

                      7                      8                      9
                      A                      A                      A
 Frequencies --    189.4371               270.1039               280.1675
 Red. masses --      5.2590                 9.1134                 5.7188
 Frc consts  --      0.1112                 0.3917                 0.2645
 IR Inten    --      0.4114                 2.9888                 1.6546

                     10                     11                     12
                      A                      A                      A
 Frequencies --    305.2837               329.4952               364.8925
 Red. masses --      3.8508                 5.0065                 9.4275
 Frc consts  --      0.2114                 0.3202                 0.7396
 IR Inten    --      5.0326                 0.1178                18.2108

                     13                     14                     15
                      A                      A                      A
 Frequencies --    404.1833               460.5100               478.3370
 Red. masses --      7.4497                10.0984                 5.9000
 Frc consts  --      0.7170                 1.2618                 0.7954
 IR Inten    --     12.7993                 3.3376                 3.4712

                     16                     17                     18
                      A                      A                      A
 Frequencies --    479.1950               518.0815               536.3950
 Red. masses --      4.0973                 4.4512                 5.8169
 Frc consts  --      0.5543                 0.7039                 0.9861
 IR Inten    --      0.3563                 2.9044                12.0806

                     19                     20                     21
                      A                      A                      A
 Frequencies --    575.6258               609.2657               631.3714
 Red. masses --      2.9952                 5.6279                 4.5147
 Frc consts  --      0.5847                 1.2309                 1.0604
 IR Inten    --     14.9240                 6.8867                 1.0813

                     22                     23                     24
                      A                      A                      A
 Frequencies --    640.1040               663.3949               721.9639
 Red. masses --      2.6729                 5.4228                 4.2951
 Frc consts  --      0.6453                 1.4061                 1.3190
 IR Inten    --      0.7781                 7.5987                18.1785

                     25                     26                     27
                      A                      A                      A
 Frequencies --    762.8192               767.3961               791.1830
 Red. masses --      6.5759                 2.0801                 4.6050
 Frc consts  --      2.2545                 0.7217                 1.6984
 IR Inten    --     64.6278                64.7287                15.4466

                     28                     29                     30
                      A                      A                      A
 Frequencies --    817.0675               833.2696               887.2556
 Red. masses --      2.8593                 1.9560                 3.7597
 Frc consts  --      1.1247                 0.8002                 1.7438
 IR Inten    --     36.0358                40.4961                43.4638

                     31                     32                     33
                      A                      A                      A
 Frequencies --    928.3163               945.3207               958.4191
 Red. masses --      1.6977                 1.2885                 5.0764
 Frc consts  --      0.8620                 0.6784                 2.7474
 IR Inten    --     16.6555                 0.3158                82.9380

                     34                     35                     36
                      A                      A                      A
 Frequencies --    996.2415              1021.6627              1054.8175
 Red. masses --      1.2980                 1.9556                 1.7850
 Frc consts  --      0.7590                 1.2027                 1.1702
 IR Inten    --      1.3657               144.7266                30.8903

                     37                     38                     39
                      A                      A                      A
 Frequencies --   1062.0094              1094.3711              1131.8502
 Red. masses --      3.1269                 1.6329                 2.4141
 Frc consts  --      2.0779                 1.1523                 1.8222
 IR Inten    --     44.9617                 1.8688               143.4722

                     40                     41                     42
                      A                      A                      A
 Frequencies --   1168.1111              1176.4883              1210.6037
 Red. masses --      1.2510                 2.0442                 3.6829
 Frc consts  --      1.0058                 1.6671                 3.1801
 IR Inten    --     65.2574                89.7237               595.5960

                     43                     44                     45
                      A                      A                      A
 Frequencies --   1236.2367              1242.9366              1308.9835
 Red. masses --      2.9890                 2.9655                 2.1121
 Frc consts  --      2.6914                 2.6993                 2.1322
 IR Inten    --    121.5102                41.7401                 5.0167

                     46                     47                     48
                      A                      A                      A
 Frequencies --   1336.5705              1386.0962              1416.7262
 Red. masses --      7.9359                 1.3169                 3.2717
 Frc consts  --      8.3527                 1.4906                 3.8690
 IR Inten    --      9.1390               127.7173               146.3983

                     49                     50                     51
                      A                      A                      A
 Frequencies --   1426.8705              1453.3505              1462.2998
 Red. masses --      4.4511                 2.3929                 1.0595
 Frc consts  --      5.3393                 2.9779                 1.3348
 IR Inten    --    328.9655               302.5685                41.4998

                     52                     53                     54
                      A                      A                      A
 Frequencies --   1464.4548              1481.6368              1529.3068
 Red. masses --      1.0894                 9.4493                 4.6827
 Frc consts  --      1.3766                12.2218                 6.4527
 IR Inten    --     20.5538                 2.3076              1142.5241

                     55                     56                     57
                      A                      A                      A
 Frequencies --   1553.0766              1620.9597              1632.4348
 Red. masses --      5.2749                 7.1041                 6.8149
 Frc consts  --      7.4964                10.9977                10.6999
 IR Inten    --     98.5302                 9.1841                16.6938

                     58                     59                     60
                      A                      A                      A
 Frequencies --   1764.8913              3054.0512              3119.3781
 Red. masses --     11.3854                 1.0359                 1.0999
 Frc consts  --     20.8946                 5.6927                 6.3058
 IR Inten    --    483.5552                 2.5169                 5.8062

                     61                     62                     63
                      A                      A                      A
 Frequencies --   3147.1537              3154.3883              3165.6726
 Red. masses --      1.0859                 1.1041                 1.0946
 Frc consts  --      6.3370                 6.4725                 6.4629
 IR Inten    --     37.1035                14.0667                35.6887

                     64                     65                     66
                      A                      A                      A
 Frequencies --   3172.9686              3190.2881              3199.2445
 Red. masses --      1.0873                 1.0923                 1.0942
 Frc consts  --      6.4498                 6.5500                 6.5987
 IR Inten    --     12.9635                 9.0233                19.0213

 - Thermochemistry -
 -------------------
 Temperature   298.150 Kelvin.  Pressure   1.00000 Atm.
 Atom     1 has atomic number  6 and mass  12.00000

 Molecular mass:   216.04226 amu.
 Principal axes and moments of inertia in atomic units:
                           1         2         3
     Eigenvalues --  1860.712624102.653105553.47791
           X            0.98082   0.19212  -0.03305
           Y           -0.19053   0.98061   0.04580
           Z            0.04121  -0.03863   0.99840
 This molecule is an asymmetric top.
 Rotational symmetry number  1.
 Warning -- assumption of classical behavior for rotation
           may cause significant error
 Rotational temperatures (Kelvin)      0.04655     0.02111     0.01560
 Rotational constants (GHZ):           0.96992     0.43990     0.32497
 Zero-point vibrational energy     449340.1 (Joules/Mol)
                                  107.39487 (Kcal/Mol)
 Warning -- explicit consideration of  20 degrees of freedom as
           vibrations may cause significant error
 Vibrational temperatures:     68.71    79.49   121.92   153.40   159.64
          (Kelvin)            192.08   272.56   388.62   403.10   439.24
                              474.07   525.00   581.53   662.57   688.22
                              689.45   745.40   771.75   828.20   876.60
                              908.40   920.97   954.48  1038.75  1097.53
                             1104.11  1138.34  1175.58  1198.89  1276.56
                             1335.64  1360.11  1378.95  1433.37  1469.94
                             1517.65  1527.99  1574.56  1628.48  1680.65
                             1692.70  1741.79  1778.67  1788.31  1883.34
                             1923.03  1994.28  2038.35  2052.95  2091.05
                             2103.92  2107.02  2131.74  2200.33  2234.53
                             2332.20  2348.71  2539.29  4394.10  4488.09
                             4528.05  4538.46  4554.70  4565.19  4590.11
                             4603.00

 Zero-point correction=                           0.171145 (Hartree/Particle)
 Thermal correction to Energy=                    0.184369
 Thermal correction to Enthalpy=                  0.185313
 Thermal correction to Gibbs Free Energy=         0.129968
 Sum of electronic and zero-point Energies=           -763.185654
 Sum of electronic and thermal Energies=              -763.172430
 Sum of electronic and thermal Enthalpies=            -763.171486
 Sum of electronic and thermal Free Energies=         -763.226831

                     E (Thermal)             CV                S
                      KCal/Mol        Cal/Mol-Kelvin    Cal/Mol-Kelvin
 Total                  115.693             50.512            116.483
 Electronic               0.000              0.000              1.377
 Translational            0.889              2.981             42.014
 Rotational               0.889              2.981             32.117
 Vibrational            113.916             44.550             40.975
 Vibration     1          0.595              1.978              4.908
 Vibration     2          0.596              1.975              4.620
 Vibration     3          0.601              1.960              3.778
 Vibration     4          0.605              1.944              3.330
 Vibration     5          0.607              1.940              3.252
 Vibration     6          0.613              1.920              2.895
 Vibration     7          0.633              1.854              2.233
 Vibration     8          0.674              1.728              1.596
 Vibration     9          0.680              1.710              1.533
 Vibration    10          0.696              1.664              1.388
 Vibration    11          0.712              1.617              1.263
 Vibration    12          0.738              1.545              1.101
 Vibration    13          0.769              1.461              0.947
 Vibration    14          0.818              1.338              0.765
 Vibration    15          0.835              1.298              0.715
 Vibration    16          0.836              1.296              0.712
 Vibration    17          0.873              1.210              0.614
 Vibration    18          0.891              1.170              0.573
 Vibration    19          0.932              1.084              0.494
 Vibration    20          0.968              1.012              0.434

 Optimization completed.
    -- Stationary point found.
 Normal termination of Gaussian 16 at Sun Feb 11 03:11:07 2024.
