 Gaussian 16, Revision A.03,
 Gaussian 16:  ES64L-G16RevA.03 25-Dec-2016

 ----------------------------------------------------------------------
 #P UB3LYP/6-311++G(d,p) nosym opt freq SCRF=(PCM,Solvent=n,n-DiMethylF
 ormamide)
 ----------------------------------------------------------------------

 --------
 Oxidized
 --------
 Symbolic Z-matrix:
 Charge =  0 Multiplicity = 1

 SCF Done:  E(UB3LYP) =  -617.525749597     A.U. after   15 cycles
 SCF Done:  E(UB3LYP) =  -617.525836188     A.U. after   11 cycles
 SCF Done:  E(UB3LYP) =  -617.525806147     A.U. after   11 cycles
 SCF Done:  E(UB3LYP) =  -617.525818471     A.U. after   11 cycles
 SCF Done:  E(UB3LYP) =  -617.525849516     A.U. after   11 cycles
 SCF Done:  E(UB3LYP) =  -617.525852334     A.U. after   10 cycles
 SCF Done:  E(UB3LYP) =  -617.525852635     A.U. after    9 cycles
 SCF Done:  E(UB3LYP) =  -617.525852943     A.U. after    8 cycles
 Optimization completed.
    -- Stationary point found.
 Normal termination of Gaussian 16 at Sat Feb 10 10:23:53 2024.

 ----------------------------------------------------------------------
 #P Geom=AllCheck Guess=TCheck SCRF=Check GenChk UB3LYP/6-311++G(d,p) F
 req
 ----------------------------------------------------------------------

 Structure from the checkpoint file:  "047.chk"
 --------
 Oxidized
 --------
 Charge =  0 Multiplicity = 1

                          Input orientation:
 ---------------------------------------------------------------------
 Center     Atomic      Atomic             Coordinates (Angstroms)
 Number     Number       Type             X           Y           Z
 ---------------------------------------------------------------------
      1          6           0        2.674115    1.392754    0.920522
      2          6           0        2.391291    0.523455   -0.325986
      3          6           0        3.653757   -0.227870   -0.764851
      4          6           0        1.204208   -0.379019   -0.068577
      5          6           0        1.297621   -1.679768    0.258193
      6          6           0        0.111510   -2.504212    0.546197
      7          8           0        0.223136   -3.691204    0.846563
      8          6           0       -1.214194   -1.864927    0.470517
      9          6           0       -1.380067   -0.572566    0.136078
     10          6           0       -2.760554    0.051754    0.063148
     11          6           0       -2.943578    1.200873    1.074118
     12          6           0       -3.137523    0.485298   -1.367645
     13          6           0       -0.161555    0.248411   -0.179974
     14          8           0       -0.269195    1.412022   -0.537273
     15          1           0        3.482354    2.096755    0.705851
     16          1           0        2.981524    0.766742    1.763302
     17          1           0        1.795393    1.967012    1.219521
     18          1           0        2.095574    1.201747   -1.131835
     19          1           0        4.433893    0.490883   -1.027303
     20          1           0        3.465191   -0.856355   -1.639038
     21          1           0        4.050271   -0.861816    0.033530
     22          1           0        2.250666   -2.190156    0.333464
     23          1           0       -2.060865   -2.503739    0.700609
     24          1           0       -3.453878   -0.745210    0.351300
     25          1           0       -2.318123    2.057935    0.821158
     26          1           0       -3.987773    1.525288    1.071064
     27          1           0       -2.695631    0.877522    2.088647
     28          1           0       -4.182293    0.807526   -1.386579
     29          1           0       -3.028831   -0.343345   -2.072467
     30          1           0       -2.516443    1.314208   -1.709112
 ---------------------------------------------------------------------

 SCF Done:  E(UB3LYP) =  -617.525852943     A.U. after    1 cycles

 Alpha  occ. eigenvalues --  -19.14257 -19.13704 -10.28804 -10.28159 -10.21677
 Alpha  occ. eigenvalues --  -10.21641 -10.20199 -10.20082 -10.19290 -10.19169
 Alpha  occ. eigenvalues --  -10.16579 -10.16434 -10.16213 -10.16209  -1.07402
 Alpha  occ. eigenvalues --   -1.06348  -0.86990  -0.83660  -0.79373  -0.75810
 Alpha  occ. eigenvalues --   -0.70415  -0.69140  -0.68961  -0.64911  -0.62649
 Alpha  occ. eigenvalues --   -0.57585  -0.56599  -0.52952  -0.50583  -0.47882
 Alpha  occ. eigenvalues --   -0.47007  -0.45640  -0.45269  -0.44809  -0.44252
 Alpha  occ. eigenvalues --   -0.42798  -0.42153  -0.41686  -0.41570  -0.40405
 Alpha  occ. eigenvalues --   -0.38930  -0.38480  -0.36422  -0.36003  -0.35479
 Alpha  occ. eigenvalues --   -0.35233  -0.34578  -0.34271  -0.30230  -0.28692
 Alpha  occ. eigenvalues --   -0.28459  -0.27398
 Alpha virt. eigenvalues --   -0.13292  -0.02550  -0.00869  -0.00556   0.00130
 Alpha virt. eigenvalues --    0.00910   0.01456   0.02053   0.02307   0.02563
 Alpha virt. eigenvalues --    0.03644   0.03980   0.04314   0.04710   0.05229

  Beta  occ. eigenvalues --  -19.14257 -19.13704 -10.28804 -10.28159 -10.21677
  Beta  occ. eigenvalues --  -10.21641 -10.20199 -10.20082 -10.19290 -10.19169
  Beta  occ. eigenvalues --  -10.16579 -10.16434 -10.16213 -10.16209  -1.07402
  Beta  occ. eigenvalues --   -1.06348  -0.86990  -0.83660  -0.79373  -0.75810
  Beta  occ. eigenvalues --   -0.70415  -0.69140  -0.68961  -0.64911  -0.62649
  Beta  occ. eigenvalues --   -0.57585  -0.56599  -0.52952  -0.50583  -0.47882
  Beta  occ. eigenvalues --   -0.47007  -0.45640  -0.45269  -0.44809  -0.44252
  Beta  occ. eigenvalues --   -0.42798  -0.42153  -0.41686  -0.41570  -0.40405
  Beta  occ. eigenvalues --   -0.38930  -0.38480  -0.36422  -0.36003  -0.35479
  Beta  occ. eigenvalues --   -0.35233  -0.34578  -0.34271  -0.30230  -0.28692
  Beta  occ. eigenvalues --   -0.28459  -0.27398
  Beta virt. eigenvalues --   -0.13292  -0.02550  -0.00869  -0.00556   0.00130
  Beta virt. eigenvalues --    0.00910   0.01456   0.02053   0.02307   0.02563
  Beta virt. eigenvalues --    0.03644   0.03980   0.04314   0.04710   0.05229

 Mulliken charges and spin densities:
               1          2
     1  C   -0.705762   0.000000
     2  C    0.173259   0.000000
     3  C   -0.542025  -0.000000
     4  C    1.089274  -0.000000
     5  C   -0.135457   0.000000
     6  C   -0.389823   0.000000
     7  O   -0.312993   0.000000
     8  C   -0.391405   0.000000
     9  C    0.902645  -0.000000
    10  C    0.250729   0.000000
    11  C   -0.685774  -0.000000
    12  C   -0.671424  -0.000000
    13  C   -1.134224  -0.000000
    14  O   -0.224611   0.000000
    15  H    0.154485  -0.000000
    16  H    0.156903   0.000000
    17  H    0.173703   0.000000
    18  H    0.216038   0.000000
    19  H    0.178555  -0.000000
    20  H    0.141397   0.000000
    21  H    0.145384  -0.000000
    22  H    0.225626   0.000000
    23  H    0.229329   0.000000
    24  H    0.197521  -0.000000
    25  H    0.180283  -0.000000
    26  H    0.159881   0.000000
    27  H    0.137095   0.000000
    28  H    0.160482   0.000000
    29  H    0.137163   0.000000
    30  H    0.183747  -0.000000
 Sum of Mulliken charges =  -0.00000  -0.00000

 Dipole moment (field-independent basis, Debye):
    X=             -0.1398    Y=              2.0586    Z=             -0.3001  Tot=              2.0850
 Quadrupole moment (field-independent basis, Debye-Ang):
   XX=            -72.7122   YY=           -107.9151   ZZ=            -86.8231
   XY=              3.3364   XZ=             -1.5411   YZ=              5.6728

  Exact polarizability: 196.962  -9.053 261.259   0.610 -26.258 149.991
 Approx polarizability: 195.760 -14.256 337.215   2.630 -45.606 168.954

                      1                      2                      3
                      A                      A                      A
 Frequencies --     33.8970                55.6987                72.4213
 Red. masses --      3.5938                 2.6291                 4.1709
 Frc consts  --      0.0024                 0.0048                 0.0129
 IR Inten    --      3.9245                 1.3448                 0.3698

                      4                      5                      6
                      A                      A                      A
 Frequencies --    120.4943               135.9107               147.3173
 Red. masses --      5.0073                 3.0104                 3.1700
 Frc consts  --      0.0428                 0.0328                 0.0405
 IR Inten    --      9.8940                 2.0444                 0.5890

                      7                      8                      9
                      A                      A                      A
 Frequencies --    210.6487               213.5522               229.8535
 Red. masses --      2.2258                 1.5238                 1.2299
 Frc consts  --      0.0582                 0.0409                 0.0383
 IR Inten    --      0.1051                 1.6335                 0.1231

                     10                     11                     12
                      A                      A                      A
 Frequencies --    235.4596               242.2794               266.1310
 Red. masses --      1.5355                 1.4743                 2.4216
 Frc consts  --      0.0502                 0.0510                 0.1011
 IR Inten    --      0.1130                 0.0871                 0.2059

                     13                     14                     15
                      A                      A                      A
 Frequencies --    268.0066               276.5267               305.7720
 Red. masses --      1.2359                 2.6228                 3.4567
 Frc consts  --      0.0523                 0.1182                 0.1904
 IR Inten    --      0.0428                 0.4347                 3.0412

                     16                     17                     18
                      A                      A                      A
 Frequencies --    406.0014               415.8351               430.3830
 Red. masses --      3.3787                 3.8300                 3.2895
 Frc consts  --      0.3281                 0.3902                 0.3590
 IR Inten    --      2.3758                25.9248                 2.9433

                     19                     20                     21
                      A                      A                      A
 Frequencies --    446.3626               463.6652               494.4810
 Red. masses --      4.2725                 5.6307                 3.5402
 Frc consts  --      0.5015                 0.7132                 0.5100
 IR Inten    --     15.8157                 0.1531                 3.4932

                     22                     23                     24
                      A                      A                      A
 Frequencies --    547.1951               590.2688               681.0930
 Red. masses --      4.2518                 3.5770                 3.6092
 Frc consts  --      0.7501                 0.7343                 0.9864
 IR Inten    --      0.8324                 0.4062                 0.6326

                     25                     26                     27
                      A                      A                      A
 Frequencies --    700.2251               786.5002               810.2482
 Red. masses --      3.7916                 5.7316                 3.4032
 Frc consts  --      1.0953                 2.0889                 1.3164
 IR Inten    --      3.7136                 2.0548                19.5434

                     28                     29                     30
                      A                      A                      A
 Frequencies --    833.1404               856.5919               894.3562
 Red. masses --      7.5865                 3.0312                 1.3846
 Frc consts  --      3.1026                 1.3104                 0.6525
 IR Inten    --     10.4221                 1.5628                 2.1496

                     31                     32                     33
                      A                      A                      A
 Frequencies --    925.4950               931.6332               934.3221
 Red. masses --      2.4479                 1.4328                 1.2730
 Frc consts  --      1.2354                 0.7327                 0.6547
 IR Inten    --     43.3805                 5.2055                 6.6234

                     34                     35                     36
                      A                      A                      A
 Frequencies --    938.9660               940.7999               966.2921
 Red. masses --      1.7849                 1.4751                 1.5334
 Frc consts  --      0.9272                 0.7693                 0.8436
 IR Inten    --     23.4434                55.9453                 0.1430

                     37                     38                     39
                      A                      A                      A
 Frequencies --    969.0815              1058.7365              1107.6086
 Red. masses --      1.4874                 2.0595                 1.6142
 Frc consts  --      0.8230                 1.3602                 1.1668
 IR Inten    --      1.6429               103.4594                 0.9010

                     40                     41                     42
                      A                      A                      A
 Frequencies --   1112.3766              1119.6376              1157.0280
 Red. masses --      2.3570                 2.1718                 2.0342
 Frc consts  --      1.7184                 1.6041                 1.6045
 IR Inten    --      1.6755                 6.3606                11.6021

                     43                     44                     45
                      A                      A                      A
 Frequencies --   1174.5952              1207.7814              1222.8411
 Red. masses --      1.9944                 2.0273                 1.7806
 Frc consts  --      1.6212                 1.7424                 1.5688
 IR Inten    --     16.6188                25.5888                25.4405

                     46                     47                     48
                      A                      A                      A
 Frequencies --   1300.2781              1307.6599              1321.9737
 Red. masses --      2.2555                 2.2096                 1.4197
 Frc consts  --      2.2468                 2.2262                 1.4619
 IR Inten    --    125.7408               102.7791                11.8514

                     49                     50                     51
                      A                      A                      A
 Frequencies --   1334.4095              1341.4164              1385.1786
 Red. masses --      2.1792                 1.3158                 1.3834
 Frc consts  --      2.2862                 1.3950                 1.5639
 IR Inten    --     30.9294                 1.8940                 5.9716

                     52                     53                     54
                      A                      A                      A
 Frequencies --   1387.5194              1393.9788              1400.6766
 Red. masses --      1.2078                 1.3077                 1.4694
 Frc consts  --      1.3700                 1.4972                 1.6985
 IR Inten    --      6.2329                10.4714                 7.5619

                     55                     56                     57
                      A                      A                      A
 Frequencies --   1408.4402              1414.5701              1478.7007
 Red. masses --      1.3236                 1.2294                 1.0407
 Frc consts  --      1.5469                 1.4494                 1.3408
 IR Inten    --      6.4214                 7.1910                 1.6218

                     58                     59                     60
                      A                      A                      A
 Frequencies --   1480.5383              1485.6871              1489.3356
 Red. masses --      1.0438                 1.0541                 1.0479
 Frc consts  --      1.3481                 1.3708                 1.3694
 IR Inten    --      1.4462                 7.3384                 4.6960

                     61                     62                     63
                      A                      A                      A
 Frequencies --   1490.1047              1497.7002              1502.7980
 Red. masses --      1.0446                 1.0417                 1.0599
 Frc consts  --      1.3666                 1.3767                 1.4103
 IR Inten    --     26.5548                19.3464                16.1218

                     64                     65                     66
                      A                      A                      A
 Frequencies --   1504.5446              1646.4796              1666.4974
 Red. masses --      1.0605                 8.0780                11.8779
 Frc consts  --      1.4144                12.9023                19.4357
 IR Inten    --      9.9059                86.2273               376.1704

                     67                     68                     69
                      A                      A                      A
 Frequencies --   1686.3792              1707.5334              3024.3795
 Red. masses --      9.7470                 8.9049                 1.0349
 Frc consts  --     16.3317                15.2974                 5.5775
 IR Inten    --    891.2028                 4.6043                38.4581

                     70                     71                     72
                      A                      A                      A
 Frequencies --   3026.7912              3027.5865              3028.1453
 Red. masses --      1.0764                 1.0371                 1.0358
 Frc consts  --      5.8101                 5.6012                 5.5960
 IR Inten    --     23.4114                36.2742                58.2917

                     73                     74                     75
                      A                      A                      A
 Frequencies --   3032.5050              3044.5974              3086.6265
 Red. masses --      1.0434                 1.0815                 1.1019
 Frc consts  --      5.6534                 5.9064                 6.1854
 IR Inten    --     37.4633                 4.4656                10.3952

                     76                     77                     78
                      A                      A                      A
 Frequencies --   3087.7976              3088.7834              3092.7113
 Red. masses --      1.1025                 1.1019                 1.1015
 Frc consts  --      6.1932                 6.1938                 6.2075
 IR Inten    --     26.7278                69.6653                77.8177

                     79                     80                     81
                      A                      A                      A
 Frequencies --   3095.3798              3107.0638              3114.8155
 Red. masses --      1.1022                 1.1015                 1.1011
 Frc consts  --      6.2221                 6.2650                 6.2942
 IR Inten    --     54.6569                36.3316                 5.1915

                     82                     83                     84
                      A                      A                      A
 Frequencies --   3118.4721              3170.6727              3187.9991
 Red. masses --      1.1004                 1.0920                 1.0914
 Frc consts  --      6.3047                 6.4678                 6.5356
 IR Inten    --     50.8413                10.0570                 5.8018

 - Thermochemistry -
 -------------------
 Temperature   298.150 Kelvin.  Pressure   1.00000 Atm.
 Atom     1 has atomic number  6 and mass  12.00000

 Molecular mass:   192.11503 amu.
 Principal axes and moments of inertia in atomic units:
                           1         2         3
     Eigenvalues --  2009.420533449.398744793.27484
           X            0.99591   0.08986   0.00950
           Y           -0.09017   0.98158   0.16841
           Z            0.00581  -0.16857   0.98567
 This molecule is an asymmetric top.
 Rotational symmetry number  1.
 Warning -- assumption of classical behavior for rotation
           may cause significant error
 Rotational temperatures (Kelvin)      0.04310     0.02511     0.01807
 Rotational constants (GHZ):           0.89814     0.52320     0.37652
 Zero-point vibrational energy     663354.7 (Joules/Mol)
                                  158.54557 (Kcal/Mol)
 Warning -- explicit consideration of  23 degrees of freedom as
           vibrations may cause significant error
 Vibrational temperatures:     48.77    80.14   104.20   173.36   195.55
          (Kelvin)            211.96   303.08   307.25   330.71   338.77
                              348.59   382.90   385.60   397.86   439.94
                              584.15   598.29   619.23   642.22   667.11
                              711.45   787.29   849.27   979.94  1007.47
                             1131.60  1165.77  1198.70  1232.44  1286.78
                             1331.58  1340.41  1344.28  1350.96  1353.60
                             1390.28  1394.29  1523.29  1593.60  1600.46
                             1610.91  1664.71  1689.98  1737.73  1759.40
                             1870.81  1881.43  1902.03  1919.92  1930.00
                             1992.96  1996.33  2005.62  2015.26  2026.43
                             2035.25  2127.52  2130.16  2137.57  2142.82
                             2143.93  2154.86  2162.19  2164.70  2368.92
                             2397.72  2426.32  2456.76  4351.41  4354.88
                             4356.02  4356.83  4363.10  4380.50  4440.97
                             4442.65  4444.07  4449.72  4453.56  4470.37
                             4481.52  4486.79  4561.89  4586.82

 Zero-point correction=                           0.252658 (Hartree/Particle)
 Thermal correction to Energy=                    0.267577
 Thermal correction to Enthalpy=                  0.268521
 Thermal correction to Gibbs Free Energy=         0.210888
 Sum of electronic and zero-point Energies=           -617.273194
 Sum of electronic and thermal Energies=              -617.258276
 Sum of electronic and thermal Enthalpies=            -617.257332
 Sum of electronic and thermal Free Energies=         -617.314965

                     E (Thermal)             CV                S
                      KCal/Mol        Cal/Mol-Kelvin    Cal/Mol-Kelvin
 Total                  167.907             55.802            121.300
 Electronic               0.000              0.000              0.000
 Translational            0.889              2.981             41.664
 Rotational               0.889              2.981             31.874
 Vibrational            166.130             49.840             47.761
 Vibration     1          0.594              1.983              5.587
 Vibration     2          0.596              1.975              4.604
 Vibration     3          0.599              1.967              4.086
 Vibration     4          0.609              1.932              3.092
 Vibration     5          0.614              1.917              2.861
 Vibration     6          0.617              1.906              2.707
 Vibration     7          0.643              1.825              2.038
 Vibration     8          0.644              1.820              2.013
 Vibration     9          0.652              1.795              1.880
 Vibration    10          0.655              1.787              1.837
 Vibration    11          0.658              1.776              1.786
 Vibration    12          0.672              1.735              1.621
 Vibration    13          0.673              1.732              1.609
 Vibration    14          0.678              1.717              1.555
 Vibration    15          0.696              1.663              1.385
 Vibration    16          0.771              1.457              0.941
 Vibration    17          0.779              1.436              0.906
 Vibration    18          0.792              1.404              0.857
 Vibration    19          0.806              1.369              0.807
 Vibration    20          0.821              1.331              0.756
 Vibration    21          0.850              1.262              0.672
 Vibration    22          0.902              1.146              0.550
 Vibration    23          0.948              1.053              0.467

 Optimization completed.
    -- Stationary point found.
 Normal termination of Gaussian 16 at Sat Feb 10 10:51:44 2024.
