 Gaussian 16, Revision A.03,
 Gaussian 16:  ES64L-G16RevA.03 25-Dec-2016

 ----------------------------------------------------------------------
 #P UB3LYP/6-311++G(d,p) nosym opt freq SCRF=(PCM,Solvent=n,n-DiMethylF
 ormamide)
 ----------------------------------------------------------------------

 -------
 Radical
 -------
 Symbolic Z-matrix:
 Charge = -1 Multiplicity = 2

 SCF Done:  E(UB3LYP) =  -1279.45538736     A.U. after   23 cycles
 SCF Done:  E(UB3LYP) =  -1279.45482959     A.U. after   20 cycles
 SCF Done:  E(UB3LYP) =  -1279.45618735     A.U. after   20 cycles
 SCF Done:  E(UB3LYP) =  -1279.45669896     A.U. after   19 cycles
 SCF Done:  E(UB3LYP) =  -1279.45683490     A.U. after   20 cycles
 SCF Done:  E(UB3LYP) =  -1279.45691000     A.U. after   17 cycles
 SCF Done:  E(UB3LYP) =  -1279.45692920     A.U. after   15 cycles
 SCF Done:  E(UB3LYP) =  -1279.45693477     A.U. after   14 cycles
 SCF Done:  E(UB3LYP) =  -1279.45693641     A.U. after   15 cycles
 SCF Done:  E(UB3LYP) =  -1279.45693732     A.U. after   12 cycles
 SCF Done:  E(UB3LYP) =  -1279.45695199     A.U. after   14 cycles
 SCF Done:  E(UB3LYP) =  -1279.45694907     A.U. after   14 cycles
 SCF Done:  E(UB3LYP) =  -1279.45695036     A.U. after   13 cycles
 SCF Done:  E(UB3LYP) =  -1279.45695198     A.U. after   14 cycles
 SCF Done:  E(UB3LYP) =  -1279.45695203     A.U. after   14 cycles
 SCF Done:  E(UB3LYP) =  -1279.45695204     A.U. after   12 cycles
 SCF Done:  E(UB3LYP) =  -1279.45695205     A.U. after    9 cycles
 SCF Done:  E(UB3LYP) =  -1279.45695205     A.U. after   12 cycles
 SCF Done:  E(UB3LYP) =  -1279.45695205     A.U. after   12 cycles
 Optimization completed.
    -- Stationary point found.
 Normal termination of Gaussian 16 at Sat Feb 10 14:10:53 2024.

 ----------------------------------------------------------------------
 #P Geom=AllCheck Guess=TCheck SCRF=Check GenChk UB3LYP/6-311++G(d,p) F
 req
 ----------------------------------------------------------------------

 Structure from the checkpoint file:  "071-rad.chk"
 -------
 Radical
 -------
 Charge = -1 Multiplicity = 2

                          Input orientation:
 ---------------------------------------------------------------------
 Center     Atomic      Atomic             Coordinates (Angstroms)
 Number     Number       Type             X           Y           Z
 ---------------------------------------------------------------------
      1          6           0        1.250088    1.583414   -0.480788
      2          6           0        0.042749    1.135888    0.203745
      3          6           0       -0.351498   -0.177574    0.154159
      4          6           0        0.424303   -1.179097   -0.569796
      5          6           0        1.650355   -0.764618   -1.253468
      6          6           0        2.035869    0.564688   -1.153373
      7          8           0        1.597983    2.795938   -0.488466
      8          8           0        0.048708   -2.388996   -0.606388
      9         16           0        3.549358    1.188670   -1.915060
     10          6           0        4.412974    2.145355   -0.643894
     11          6           0        4.755969    3.467714   -0.902851
     12          6           0        4.809121    1.503260    0.527284
     13          6           0        5.552526    2.213879    1.467878
     14          6           0        5.512156    4.165008    0.038202
     15          6           0        5.905729    3.541809    1.222885
     16          8           0        3.237311    2.093839   -3.043619
     17          8           0        4.447887    0.052111   -2.223529
     18          1           0        4.426333    3.940277   -1.818897
     19          1           0        4.541031    0.469273    0.709074
     20          1           0        5.786779    5.196062   -0.152075
     21          1           0        5.859562    1.728446    2.386873
     22          6           0       -1.611171   -0.633454    0.846588
     23          6           0       -0.759674    2.173422    0.946798
     24          1           0        6.487708    4.089729    1.955006
     25          1           0       -2.468702   -0.017610    0.558659
     26          1           0       -1.516365   -0.552625    1.935638
     27          1           0       -1.825037   -1.672047    0.601142
     28          1           0       -1.723645    2.357852    0.458271
     29          1           0       -0.215662    3.115914    0.984266
     30          1           0       -0.979471    1.850848    1.968870
     31          6           0        2.375175   -1.841128   -2.020332
     32          1           0        1.729587   -2.715275   -2.080047
     33          1           0        3.305236   -2.130105   -1.523735
     34          1           0        2.646588   -1.516486   -3.024722
 ---------------------------------------------------------------------

 SCF Done:  E(UB3LYP) =  -1279.45695205     A.U. after    2 cycles

 Alpha  occ. eigenvalues --  -89.04833 -19.11359 -19.11052 -19.08226 -19.08184
 Alpha  occ. eigenvalues --  -10.23376 -10.22534 -10.21339 -10.19692 -10.19551
 Alpha  occ. eigenvalues --  -10.19469 -10.19210 -10.18889 -10.18839 -10.18780
 Alpha  occ. eigenvalues --  -10.17583 -10.17442 -10.15662 -10.15601 -10.15438
 Alpha  occ. eigenvalues --   -8.11212  -6.07493  -6.07387  -6.07303  -1.10339
 Alpha  occ. eigenvalues --   -1.00955  -1.00429  -0.99636  -0.87733  -0.84215
 Alpha  occ. eigenvalues --   -0.80198  -0.77952  -0.76482  -0.73197  -0.72457
 Alpha  occ. eigenvalues --   -0.69630  -0.65303  -0.64338  -0.62394  -0.60477
 Alpha  occ. eigenvalues --   -0.56662  -0.55474  -0.53455  -0.51003  -0.49340
 Alpha  occ. eigenvalues --   -0.48161  -0.47092  -0.45723  -0.44946  -0.44343
 Alpha  occ. eigenvalues --   -0.44134  -0.43874  -0.42035  -0.41656  -0.40957
 Alpha  occ. eigenvalues --   -0.40141  -0.39770  -0.39186  -0.38807  -0.38091
 Alpha  occ. eigenvalues --   -0.37907  -0.37208  -0.36865  -0.36301  -0.35831
 Alpha  occ. eigenvalues --   -0.35269  -0.33532  -0.32427  -0.30832  -0.29495
 Alpha  occ. eigenvalues --   -0.28319  -0.27316  -0.27119  -0.25232  -0.24693
 Alpha  occ. eigenvalues --   -0.23851  -0.16849
 Alpha virt. eigenvalues --   -0.04429  -0.02859  -0.02309  -0.00718   0.00140
 Alpha virt. eigenvalues --    0.00815   0.01507   0.01903   0.02128   0.02737
 Alpha virt. eigenvalues --    0.03174   0.03511   0.03960   0.04018   0.04343

  Beta  occ. eigenvalues --  -89.04835 -19.11350 -19.11050 -19.07592 -19.07473
  Beta  occ. eigenvalues --  -10.23258 -10.22395 -10.21337 -10.19617 -10.19470
  Beta  occ. eigenvalues --  -10.19269 -10.19210 -10.18889 -10.18838 -10.18779
  Beta  occ. eigenvalues --  -10.17548 -10.17356 -10.15669 -10.15606 -10.15457
  Beta  occ. eigenvalues --   -8.11214  -6.07493  -6.07388  -6.07307  -1.10323
  Beta  occ. eigenvalues --   -1.00016  -0.99552  -0.99097  -0.87729  -0.83636
  Beta  occ. eigenvalues --   -0.79997  -0.77880  -0.76480  -0.72752  -0.72335
  Beta  occ. eigenvalues --   -0.69463  -0.65104  -0.63801  -0.62384  -0.60362
  Beta  occ. eigenvalues --   -0.56495  -0.55094  -0.53338  -0.50832  -0.49171
  Beta  occ. eigenvalues --   -0.48118  -0.47046  -0.45687  -0.44880  -0.43947
  Beta  occ. eigenvalues --   -0.43881  -0.43475  -0.41553  -0.41166  -0.40674
  Beta  occ. eigenvalues --   -0.39643  -0.39528  -0.39064  -0.38709  -0.37995
  Beta  occ. eigenvalues --   -0.37274  -0.36819  -0.36299  -0.35689  -0.35079
  Beta  occ. eigenvalues --   -0.34458  -0.33409  -0.32298  -0.30740  -0.29402
  Beta  occ. eigenvalues --   -0.27271  -0.27124  -0.25534  -0.24599  -0.23775
  Beta  occ. eigenvalues --   -0.23291
  Beta virt. eigenvalues --   -0.09668  -0.04279  -0.02716  -0.01160  -0.00688
  Beta virt. eigenvalues --    0.00151   0.00832   0.01526   0.02091   0.02666
  Beta virt. eigenvalues --    0.03152   0.03533   0.03691   0.04023   0.04337

 Mulliken charges and spin densities:
               1          2
     1  C   -0.694420   0.042090
     2  C    0.537229   0.071027
     3  C    0.726901   0.041677
     4  C   -1.249047   0.050415
     5  C    0.532945   0.203558
     6  C    0.054248   0.088047
     7  O   -0.347648   0.220542
     8  O   -0.444547   0.274385
     9  S    0.447722  -0.019471
    10  C    0.232893   0.005924
    11  C   -0.035419   0.014894
    12  C   -0.177777  -0.011194
    13  C   -0.423768   0.000748
    14  C   -0.367713  -0.001947
    15  C   -0.315220   0.001398
    16  O   -0.242664   0.004172
    17  O   -0.205406  -0.001463
    18  H    0.242163   0.000274
    19  H    0.226315  -0.000295
    20  H    0.212667  -0.000066
    21  H    0.219364   0.000008
    22  C   -0.545756   0.001396
    23  C   -0.554757  -0.002041
    24  H    0.190632   0.000070
    25  H    0.154940   0.001059
    26  H    0.165712   0.001265
    27  H    0.186676  -0.001634
    28  H    0.166387   0.003394
    29  H    0.185701  -0.000986
    30  H    0.155227   0.002277
    31  C   -0.580841  -0.006174
    32  H    0.171821  -0.001271
    33  H    0.192478   0.011181
    34  H    0.182961   0.006740
 Sum of Mulliken charges =  -1.00000   1.00000

 Dipole moment (field-independent basis, Debye):
    X=             -8.3977    Y=             -0.6847    Z=             10.0588  Tot=             13.1213
 Quadrupole moment (field-independent basis, Debye-Ang):
   XX=           -150.5140   YY=           -153.3384   ZZ=           -147.2872
   XY=             -4.1159   XZ=             34.0818   YZ=             10.2157

  Exact polarizability: 306.996  59.529 387.045 -17.179  17.150 262.182
 Approx polarizability: 310.561  54.314 456.951  -7.438   6.325 297.872

                      1                      2                      3
                      A                      A                      A
 Frequencies --     29.4145                29.7179                38.5201
 Red. masses --      6.4277                 3.5996                 4.3696
 Frc consts  --      0.0033                 0.0019                 0.0038
 IR Inten    --      1.4878                 0.5190                 1.6713

                      4                      5                      6
                      A                      A                      A
 Frequencies --     58.0509                80.2366                93.8331
 Red. masses --      1.1515                 3.9674                 2.0301
 Frc consts  --      0.0023                 0.0150                 0.0105
 IR Inten    --      0.5402                 0.2319                13.5209

                      7                      8                      9
                      A                      A                      A
 Frequencies --    108.1707               133.0563               152.0890
 Red. masses --      1.5377                 3.1147                 1.0893
 Frc consts  --      0.0106                 0.0325                 0.0148
 IR Inten    --      5.7394                 0.5765                 0.0489

                     10                     11                     12
                      A                      A                      A
 Frequencies --    168.6373               171.0253               193.5868
 Red. masses --      6.3899                 6.0256                 5.5462
 Frc consts  --      0.1071                 0.1038                 0.1225
 IR Inten    --      1.4788                 6.5283                 7.9316

                     13                     14                     15
                      A                      A                      A
 Frequencies --    221.7588               244.0028               263.5928
 Red. masses --      5.7294                 5.6776                 9.8774
 Frc consts  --      0.1660                 0.1992                 0.4044
 IR Inten    --      1.9469                 2.7696                 1.3714

                     16                     17                     18
                      A                      A                      A
 Frequencies --    302.8038               320.5058               326.9821
 Red. masses --      6.7374                 2.7345                 4.0371
 Frc consts  --      0.3640                 0.1655                 0.2543
 IR Inten    --      4.2049                 0.7738                 0.7215

                     19                     20                     21
                      A                      A                      A
 Frequencies --    333.9668               370.8493               389.8550
 Red. masses --      3.8911                 4.7064                 5.0752
 Frc consts  --      0.2557                 0.3814                 0.4545
 IR Inten    --     14.8768                13.0185                 3.0264

                     22                     23                     24
                      A                      A                      A
 Frequencies --    409.7675               415.0971               425.9397
 Red. masses --      2.9078                 6.2824                 6.9615
 Frc consts  --      0.2877                 0.6378                 0.7441
 IR Inten    --      1.1704                32.3236                 1.6729

                     25                     26                     27
                      A                      A                      A
 Frequencies --    440.4268               474.9501               506.0587
 Red. masses --      6.0391                 5.9276                 6.3858
 Frc consts  --      0.6902                 0.7878                 0.9635
 IR Inten    --      5.5849                33.6897                16.5014

                     28                     29                     30
                      A                      A                      A
 Frequencies --    516.8487               560.6651               571.9324
 Red. masses --      7.7679                 5.3279                 6.1376
 Frc consts  --      1.2226                 0.9868                 1.1829
 IR Inten    --     74.8076                56.9940                71.9528

                     31                     32                     33
                      A                      A                      A
 Frequencies --    593.6957               626.3914               690.2766
 Red. masses --      6.6777                 6.4631                 3.7524
 Frc consts  --      1.3868                 1.4941                 1.0534
 IR Inten    --    312.3560                 1.6326                 1.7409

                     34                     35                     36
                      A                      A                      A
 Frequencies --    701.0053               704.4481               717.0301
 Red. masses --      2.1757                 5.8319                 5.8796
 Frc consts  --      0.6299                 1.7051                 1.7810
 IR Inten    --     67.6421                19.0299                81.9156

                     37                     38                     39
                      A                      A                      A
 Frequencies --    757.6516               760.3342               781.2486
 Red. masses --      2.3279                 3.2617                 5.3425
 Frc consts  --      0.7873                 1.1110                 1.9212
 IR Inten    --     34.4212                36.4606                11.9973

                     40                     41                     42
                      A                      A                      A
 Frequencies --    852.5105               881.6237               936.6195
 Red. masses --      1.2493                 2.3495                 1.3469
 Frc consts  --      0.5350                 1.0760                 0.6962
 IR Inten    --      0.1046                 4.1662                 1.2458

                     43                     44                     45
                      A                      A                      A
 Frequencies --    951.0578               993.9671              1007.3725
 Red. masses --      2.6807                 1.3867                 2.3113
 Frc consts  --      1.4286                 0.8072                 1.3819
 IR Inten    --      4.5023                 0.7153                 9.8584

                     46                     47                     48
                      A                      A                      A
 Frequencies --   1012.2014              1013.7292              1023.3678
 Red. masses --      3.1274                 1.5348                 1.4234
 Frc consts  --      1.8878                 0.9293                 0.8783
 IR Inten    --     19.6385                 3.6416                 2.5478

                     49                     50                     51
                      A                      A                      A
 Frequencies --   1032.7072              1038.8679              1048.2569
 Red. masses --      5.3765                 1.5049                 3.0761
 Frc consts  --      3.3784                 0.9570                 1.9916
 IR Inten    --    174.4957                 0.7696               180.0819

                     52                     53                     54
                      A                      A                      A
 Frequencies --   1049.4222              1058.1976              1095.7148
 Red. masses --      1.8936                 1.5528                 1.6948
 Frc consts  --      1.2287                 1.0245                 1.1988
 IR Inten    --     28.6908                 0.5773                34.3166

                     55                     56                     57
                      A                      A                      A
 Frequencies --   1101.7988              1109.1137              1129.2237
 Red. masses --      3.0201                 2.8830                 4.3806
 Frc consts  --      2.1601                 2.0895                 3.2911
 IR Inten    --    108.8025                51.2225                37.2741

                     58                     59                     60
                      A                      A                      A
 Frequencies --   1177.9838              1184.9167              1192.8983
 Red. masses --      1.1218                12.4437                 1.1728
 Frc consts  --      0.9172                10.2938                 0.9833
 IR Inten    --      1.0420               317.9985                10.4756

                     61                     62                     63
                      A                      A                      A
 Frequencies --   1213.6325              1262.8826              1326.7574
 Red. masses --      7.0034                 4.6356                 3.2502
 Frc consts  --      6.0776                 4.3559                 3.3709
 IR Inten    --     54.2251               134.6584                 0.6860

                     64                     65                     66
                      A                      A                      A
 Frequencies --   1342.0498              1373.1336              1391.4621
 Red. masses --      1.7177                 1.5613                 1.3196
 Frc consts  --      1.8228                 1.7345                 1.5053
 IR Inten    --      5.2108                33.7997                41.6390

                     67                     68                     69
                      A                      A                      A
 Frequencies --   1392.9638              1405.2653              1452.4674
 Red. masses --      1.2504                 2.2452                 2.0319
 Frc consts  --      1.4295                 2.6123                 2.5256
 IR Inten    --     37.7816                48.3252               318.8419

                     70                     71                     72
                      A                      A                      A
 Frequencies --   1468.7355              1470.1296              1473.5610
 Red. masses --      1.1012                 1.5346                 2.0611
 Frc consts  --      1.3997                 1.9541                 2.6368
 IR Inten    --      2.2994                36.9077                 9.6505

                     73                     74                     75
                      A                      A                      A
 Frequencies --   1477.6585              1481.1113              1482.9491
 Red. masses --      1.2771                 1.0561                 1.3242
 Frc consts  --      1.6430                 1.3650                 1.7158
 IR Inten    --      2.4456                 1.7134               138.5158

                     76                     77                     78
                      A                      A                      A
 Frequencies --   1492.9657              1499.0506              1506.1685
 Red. masses --      1.1643                 3.0416                 2.0420
 Frc consts  --      1.5290                 4.0270                 2.7293
 IR Inten    --     67.1903               632.0948                10.5141

                     79                     80                     81
                      A                      A                      A
 Frequencies --   1529.8961              1618.4675              1618.8067
 Red. masses --      8.0752                 6.7570                 6.5846
 Frc consts  --     11.1359                10.4283                10.1665
 IR Inten    --    227.0407                15.8031                 9.6269

                     82                     83                     84
                      A                      A                      A
 Frequencies --   1623.5426              3012.6468              3014.9997
 Red. masses --      5.9152                 1.0437                 1.0441
 Frc consts  --      9.1865                 5.5810                 5.5918
 IR Inten    --      0.5980                96.1641                24.0267

                     85                     86                     87
                      A                      A                      A
 Frequencies --   3042.7600              3055.6122              3061.7636
 Red. masses --      1.0415                 1.0956                 1.0960
 Frc consts  --      5.6812                 6.0272                 6.0532
 IR Inten    --     34.2490                61.5774                 7.9984

                     88                     89                     90
                      A                      A                      A
 Frequencies --   3098.1968              3125.8287              3131.3730
 Red. masses --      1.0932                 1.0967                 1.0961
 Frc consts  --      6.1823                 6.3137                 6.3323
 IR Inten    --     26.6354                12.9466                12.9200

                     91                     92                     93
                      A                      A                      A
 Frequencies --   3137.8074              3171.0287              3179.5386
 Red. masses --      1.1018                 1.0863                 1.0889
 Frc consts  --      6.3913                 6.4356                 6.4858
 IR Inten    --     12.9380                 0.2579                 9.6971

                     94                     95                     96
                      A                      A                      A
 Frequencies --   3187.3228              3195.3029              3206.8540
 Red. masses --      1.0929                 1.0969                 1.0936
 Frc consts  --      6.5415                 6.5985                 6.6262
 IR Inten    --     16.8766                16.6403                 8.5202

 - Thermochemistry -
 -------------------
 Temperature   298.150 Kelvin.  Pressure   1.00000 Atm.
 Atom     1 has atomic number  6 and mass  12.00000

 Molecular mass:   290.06128 amu.
 Principal axes and moments of inertia in atomic units:
                           1         2         3
     Eigenvalues --  3380.839467782.313089180.98332
           X            0.83352  -0.40389   0.37698
           Y            0.55241   0.62041  -0.55672
           Z           -0.00903   0.67228   0.74024
 This molecule is an asymmetric top.
 Rotational symmetry number  1.
 Warning -- assumption of classical behavior for rotation
           may cause significant error
 Rotational temperatures (Kelvin)      0.02562     0.01113     0.00943
 Rotational constants (GHZ):           0.53381     0.23190     0.19657
 Zero-point vibrational energy     670510.9 (Joules/Mol)
                                  160.25595 (Kcal/Mol)
 Warning -- explicit consideration of  31 degrees of freedom as
           vibrations may cause significant error
 Vibrational temperatures:     42.32    42.76    55.42    83.52   115.44
          (Kelvin)            135.00   155.63   191.44   218.82   242.63
                              246.07   278.53   319.06   351.07   379.25
                              435.67   461.14   470.45   480.50   533.57
                              560.91   589.56   597.23   612.83   633.68
                              683.35   728.11   743.63   806.67   822.88
                              854.20   901.24   993.15  1008.59  1013.54
                             1031.65  1090.09  1093.95  1124.04  1226.57
                             1268.46  1347.59  1368.36  1430.10  1449.38
                             1456.33  1458.53  1472.40  1485.84  1494.70
                             1508.21  1509.88  1522.51  1576.49  1585.24
                             1595.77  1624.70  1694.86  1704.83  1716.31
                             1746.15  1817.01  1908.91  1930.91  1975.63
                             2002.00  2004.16  2021.86  2089.78  2113.18
                             2115.19  2120.13  2126.02  2130.99  2133.63
                             2148.04  2156.80  2167.04  2201.18  2328.61
                             2329.10  2335.92  4334.53  4337.91  4377.85
                             4396.34  4405.19  4457.61  4497.37  4505.35
                             4514.60  4562.40  4574.65  4585.85  4597.33
                             4613.95

 Zero-point correction=                           0.255384 (Hartree/Particle)
 Thermal correction to Energy=                    0.274768
 Thermal correction to Enthalpy=                  0.275712
 Thermal correction to Gibbs Free Energy=         0.205786
 Sum of electronic and zero-point Energies=          -1279.201568
 Sum of electronic and thermal Energies=             -1279.182184
 Sum of electronic and thermal Enthalpies=           -1279.181240
 Sum of electronic and thermal Free Energies=        -1279.251166

                     E (Thermal)             CV                S
                      KCal/Mol        Cal/Mol-Kelvin    Cal/Mol-Kelvin
 Total                  172.419             72.412            147.172
 Electronic               0.000              0.000              1.377
 Translational            0.889              2.981             42.892
 Rotational               0.889              2.981             33.846
 Vibrational            170.642             66.451             69.056
 Vibration     1          0.593              1.984              5.869
 Vibration     2          0.593              1.984              5.848
 Vibration     3          0.594              1.981              5.334
 Vibration     4          0.596              1.974              4.522
 Vibration     5          0.600              1.963              3.885
 Vibration     6          0.603              1.954              3.579
 Vibration     7          0.606              1.943              3.301
 Vibration     8          0.613              1.920              2.901
 Vibration     9          0.619              1.900              2.646
 Vibration    10          0.625              1.881              2.451
 Vibration    11          0.626              1.878              2.424
 Vibration    12          0.635              1.849              2.193
 Vibration    13          0.648              1.808              1.945
 Vibration    14          0.659              1.773              1.774
 Vibration    15          0.670              1.740              1.638
 Vibration    16          0.694              1.668              1.401
 Vibration    17          0.706              1.634              1.308
 Vibration    18          0.711              1.622              1.275
 Vibration    19          0.715              1.608              1.241
 Vibration    20          0.743              1.532              1.076
 Vibration    21          0.758              1.492              1.001
 Vibration    22          0.774              1.449              0.927
 Vibration    23          0.778              1.437              0.909
 Vibration    24          0.788              1.414              0.872
 Vibration    25          0.800              1.382              0.825
 Vibration    26          0.832              1.306              0.724
 Vibration    27          0.861              1.237              0.643
 Vibration    28          0.872              1.213              0.617
 Vibration    29          0.916              1.116              0.523
 Vibration    30          0.928              1.092              0.501
 Vibration    31          0.951              1.045              0.461

                           ! Non-Optimized Parameters !
 Normal termination of Gaussian 16 at Sat Feb 10 15:06:37 2024.
