 Q-Chem 5.4, Q-Chem, Inc., Pleasanton, CA (2021)
 Q-Chem 5.4.0 for Intel X86 EM64T Linux

User input:
--------------------------------------------------------------
$molecule
0 1
C                  2.2801830000     -0.0691360000      0.0788370000
C                  0.7898110000      0.0770140000      0.0334840000
C                  0.1498720000      1.2574710000      0.0831850000
C                 -1.3225570000      1.3666660000      0.0360270000
O                 -1.8852850000      2.4488480000      0.0819850000
C                 -2.1075370000      0.1120000000     -0.0697150000
C                 -1.4934500000     -1.0765830000     -0.1205570000
Br                -2.4670240000     -2.7001590000     -0.2551880000
C                  0.0030810000     -1.1976780000     -0.0743320000
O                  0.5626410000     -2.2725600000     -0.1213110000
H                  2.5803900000     -0.6884810000      0.9283430000
H                  2.7641170000      0.9047350000      0.1573560000
H                  2.6441330000     -0.5793100000     -0.8170800000
H                  0.6861300000      2.1973010000      0.1610130000
H                 -3.1845020000      0.2198720000     -0.1020470000
$end
$rem
MAX_SCF_CYCLES=200
BASIS  =  6-311++G(d,p)
GUI  =  2
JOB_TYPE  =  SP
METHOD  =  B3LYP
SOLVENT_METHOD = PCM
$end
$pcm
theory = CPCM
$end
$solvent
dielectric 37.219
opticaldielectric 1.43
$end

--------------------------------------------------------------

             Standard Nuclear Orientation (Angstroms)
    I     Atom           X                Y                Z
 ----------------------------------------------------------------
    1      C       2.2801830000    -0.0691360000     0.0788370000
    2      C       0.7898110000     0.0770140000     0.0334840000
    3      C       0.1498720000     1.2574710000     0.0831850000
    4      C      -1.3225570000     1.3666660000     0.0360270000
    5      O      -1.8852850000     2.4488480000     0.0819850000
    6      C      -2.1075370000     0.1120000000    -0.0697150000
    7      C      -1.4934500000    -1.0765830000    -0.1205570000
    8      Br     -2.4670240000    -2.7001590000    -0.2551880000
    9      C       0.0030810000    -1.1976780000    -0.0743320000
   10      O       0.5626410000    -2.2725600000    -0.1213110000
   11      H       2.5803900000    -0.6884810000     0.9283430000
   12      H       2.7641170000     0.9047350000     0.1573560000
   13      H       2.6441330000    -0.5793100000    -0.8170800000
   14      H       0.6861300000     2.1973010000     0.1610130000
   15      H      -3.1845020000     0.2198720000    -0.1020470000
 ----------------------------------------------------------------

    9   -2994.4441971034      4.64e-06  Convergence criterion met
 Total energy in the final basis set =    -2994.4441971034

                    Orbital Energies (a.u.)
 --------------------------------------------------------------

 Alpha MOs
 -- Occupied --
******** -62.5042 -56.3247 -56.3209 -56.3205 -19.1549 -19.1469 -10.3026
-10.2928 -10.2680 -10.2272 -10.2200 -10.2071 -10.1778  -8.7129  -6.5446
 -6.5317  -6.5306  -2.6555  -2.6520  -2.6511  -2.6408  -2.6408  -1.0895
 -1.0772  -0.8850  -0.8407  -0.7833  -0.7294  -0.7001  -0.6205  -0.6035
 -0.5413  -0.5159  -0.4820  -0.4690  -0.4560  -0.4498  -0.4333  -0.4326
 -0.4160  -0.4088  -0.3948  -0.3574  -0.3120  -0.3050  -0.3026  -0.2879
 -0.2819

          Ground-State Mulliken Net Atomic Charges

     Atom                 Charge (a.u.)
  ----------------------------------------
      1 C                    -0.382743
      2 C                     1.659289
      3 C                    -0.864852
      4 C                    -0.255322
      5 O                    -0.303261
      6 C                     0.036978
      7 C                     1.043934
      8 Br                   -0.113158
      9 C                    -1.723704
     10 O                    -0.204338
     11 H                     0.198849
     12 H                     0.181145
     13 H                     0.198595
     14 H                     0.234415
     15 H                     0.294172
  ----------------------------------------
  Sum of atomic charges =     0.000000

                    Cartesian Multipole Moments
 -----------------------------------------------------------------
    Charge (ESU x 10^10)
                 0.0000
    Dipole Moment (Debye)
         X       1.9033      Y       0.7234      Z       0.1194
       Tot       2.0397
    Quadrupole Moments (Debye-Ang)
        XX     -66.8549     XY       9.7609     YY     -86.7405
        XZ       0.7001     YZ      -0.7131     ZZ     -69.5691

 Total job time:  29.91s(wall), 104.76s(cpu)
        *  Thank you very much for using Q-Chem.  Have a nice day.  *
