 Q-Chem 5.4, Q-Chem, Inc., Pleasanton, CA (2021)
 Q-Chem 5.4.0 for Intel X86 EM64T Linux

User input:
--------------------------------------------------------------
$molecule
0 1
C                  1.1171240000      1.5343310000     -0.1857020000
C                 -0.0716280000      1.0570890000      0.5614590000
C                 -0.2439000000     -0.2356320000      0.8549740000
C                  0.7431230000     -1.2554300000      0.4393510000
C                  1.9309000000     -0.8055010000     -0.3805320000
C                  2.0628490000      0.4947550000     -0.6987050000
O                  1.3171740000      2.7239450000     -0.3377570000
O                  0.6062500000     -2.4259040000      0.7369380000
S                  3.3974290000      1.0600520000     -1.8261030000
C                  4.4912810000      2.0404040000     -0.7934500000
C                  4.3888060000      3.4290220000     -0.8232400000
C                  5.4361380000      1.3794650000     -0.0084600000
C                  6.2976090000      2.1420440000      0.7757310000
C                  5.2646570000      4.1761780000     -0.0399690000
C                  6.2130350000      3.5345980000      0.7569410000
O                  2.7765170000      1.9144480000     -2.8365320000
O                  4.1102000000     -0.1595580000     -2.2190880000
H                 -0.7651090000      1.8301110000      0.8733240000
H                 -1.0925110000     -0.6045640000      1.4200520000
H                  3.6389610000      3.9004510000     -1.4442460000
H                  5.4953750000      0.2978710000     -0.0165760000
H                  7.0389170000      1.6484440000      1.3929700000
H                  5.2057060000      5.2581270000     -0.0529460000
H                  6.8901870000      4.1226020000      1.3662000000
C                  2.9511280000     -1.9240500000     -0.6177500000
C                  2.7587560000     -2.8735860000     -1.7349400000
C                  1.8005340000     -2.6557750000     -2.7306600000
C                  3.5632540000     -4.0195170000     -1.7843980000
C                  1.6469310000     -3.5722680000     -3.7656560000
C                  2.4487110000     -4.7119650000     -3.8085690000
C                  3.4069090000     -4.9343840000     -2.8171430000
O                  3.8158430000     -2.0259360000      0.2277970000
H                  1.1847250000     -1.7638040000     -2.7112450000
H                  4.3003490000     -4.1732940000     -1.0060290000
H                  0.9088280000     -3.3963690000     -4.5393470000
H                  2.3292460000     -5.4263550000     -4.6154560000
H                  4.0289840000     -5.8212720000     -2.8534180000
$end

$rem
BASIS  =  6-311++G(d,p)
GUI  =  2
JOB_TYPE  =  SP
METHOD  =  B3LYP
SCF_CONVERGENCE  = 8
SOLVENT_METHOD = sm12
$end

$smx
solvent dimethylformamide
charges CM5
$end

--------------------------------------------------------------

             Standard Nuclear Orientation (Angstroms)
    I     Atom           X                Y                Z
 ----------------------------------------------------------------
    1      C       1.1171240000     1.5343310000    -0.1857020000
    2      C      -0.0716280000     1.0570890000     0.5614590000
    3      C      -0.2439000000    -0.2356320000     0.8549740000
    4      C       0.7431230000    -1.2554300000     0.4393510000
    5      C       1.9309000000    -0.8055010000    -0.3805320000
    6      C       2.0628490000     0.4947550000    -0.6987050000
    7      O       1.3171740000     2.7239450000    -0.3377570000
    8      O       0.6062500000    -2.4259040000     0.7369380000
    9      S       3.3974290000     1.0600520000    -1.8261030000
   10      C       4.4912810000     2.0404040000    -0.7934500000
   11      C       4.3888060000     3.4290220000    -0.8232400000
   12      C       5.4361380000     1.3794650000    -0.0084600000
   13      C       6.2976090000     2.1420440000     0.7757310000
   14      C       5.2646570000     4.1761780000    -0.0399690000
   15      C       6.2130350000     3.5345980000     0.7569410000
   16      O       2.7765170000     1.9144480000    -2.8365320000
   17      O       4.1102000000    -0.1595580000    -2.2190880000
   18      H      -0.7651090000     1.8301110000     0.8733240000
   19      H      -1.0925110000    -0.6045640000     1.4200520000
   20      H       3.6389610000     3.9004510000    -1.4442460000
   21      H       5.4953750000     0.2978710000    -0.0165760000
   22      H       7.0389170000     1.6484440000     1.3929700000
   23      H       5.2057060000     5.2581270000    -0.0529460000
   24      H       6.8901870000     4.1226020000     1.3662000000
   25      C       2.9511280000    -1.9240500000    -0.6177500000
   26      C       2.7587560000    -2.8735860000    -1.7349400000
   27      C       1.8005340000    -2.6557750000    -2.7306600000
   28      C       3.5632540000    -4.0195170000    -1.7843980000
   29      C       1.6469310000    -3.5722680000    -3.7656560000
   30      C       2.4487110000    -4.7119650000    -3.8085690000
   31      C       3.4069090000    -4.9343840000    -2.8171430000
   32      O       3.8158430000    -2.0259360000     0.2277970000
   33      H       1.1847250000    -1.7638040000    -2.7112450000
   34      H       4.3003490000    -4.1732940000    -1.0060290000
   35      H       0.9088280000    -3.3963690000    -4.5393470000
   36      H       2.3292460000    -5.4263550000    -4.6154560000
   37      H       4.0289840000    -5.8212720000    -2.8534180000
 ----------------------------------------------------------------

   16   -1505.7575862440      7.03e-09  Convergence criterion met
 Total energy in the final basis set =    -1505.7935943693

                    Orbital Energies (a.u.)
 --------------------------------------------------------------

 Alpha MOs
 -- Occupied --
-89.0710 -19.1574 -19.1539 -19.1387 -19.1346 -19.1338 -10.3056 -10.3049
-10.2963 -10.2559 -10.2534 -10.2253 -10.2224 -10.2211 -10.2044 -10.2029
-10.2012 -10.1981 -10.1969 -10.1948 -10.1944 -10.1935 -10.1930 -10.1899
-10.1891  -8.1348  -6.0973  -6.0968  -6.0959  -1.1317  -1.0914  -1.0867
 -1.0739  -1.0276  -0.8897  -0.8861  -0.8771  -0.8251  -0.7943  -0.7810
 -0.7731  -0.7663  -0.7405  -0.7000  -0.6780  -0.6463  -0.6356  -0.6318
 -0.6216  -0.5986  -0.5783  -0.5569  -0.5485  -0.5402  -0.5240  -0.5064
 -0.4967  -0.4941  -0.4888  -0.4798  -0.4748  -0.4680  -0.4630  -0.4624
 -0.4537  -0.4516  -0.4499  -0.4463  -0.4404  -0.4351  -0.4298  -0.4177
 -0.3964  -0.3886  -0.3789  -0.3763  -0.3698  -0.3618  -0.3586  -0.3483
 -0.3379  -0.3288  -0.3246  -0.3171  -0.3065  -0.3023  -0.2838  -0.2784
 -0.2745  -0.2738  -0.2727

          Ground-State Mulliken Net Atomic Charges

     Atom                 Charge (a.u.)
  ----------------------------------------
      1 C                    -0.493004
      2 C                     1.552150
      3 C                     0.817435
      4 C                    -0.431112
      5 C                     0.513767
      6 C                    -0.887584
      7 O                    -0.251291
      8 O                    -0.255149
      9 S                    -0.688261
     10 C                    -0.184628
     11 C                    -0.356285
     12 C                    -0.486018
     13 C                    -0.122412
     14 C                    -0.036757
     15 C                     0.425153
     16 O                    -0.121678
     17 O                    -0.086881
     18 H                     0.408223
     19 H                     0.399244
     20 H                     0.232715
     21 H                     0.207991
     22 H                     0.303509
     23 H                     0.309021
     24 H                     0.322079
     25 C                    -0.814728
     26 C                    -0.294408
     27 C                    -1.022941
     28 C                    -0.124755
     29 C                     0.236458
     30 C                     0.111977
     31 C                    -0.169927
     32 O                    -0.266957
     33 H                     0.174409
     34 H                     0.199320
     35 H                     0.297150
     36 H                     0.294777
     37 H                     0.289396
  ----------------------------------------
  Sum of atomic charges =     0.000000

                    Cartesian Multipole Moments
 -----------------------------------------------------------------
    Charge (ESU x 10^10)
                 0.0000
    Dipole Moment (Debye)
         X      -1.6064      Y       0.9284      Z       2.3804
       Tot       3.0181
    Quadrupole Moments (Debye-Ang)
        XX    -138.9952     XY       9.1066     YY    -138.7930
        XZ      13.4286     YZ      23.0770     ZZ    -153.0398

 Total job time:  1587.72s(wall), 12119.09s(cpu)
        *  Thank you very much for using Q-Chem.  Have a nice day.  *
