 Gaussian 16, Revision A.03,
 Gaussian 16:  ES64L-G16RevA.03 25-Dec-2016

 ----------------------------------------------------------------
 #P UB3LYP/6-311++G(d,p) SCRF=(PCM,Solvent=n,n-DiMethylFormamide)
 ----------------------------------------------------------------

 -------
 Reduced
 -------
 Symbolic Z-matrix:
 Charge = -2 Multiplicity = 1

                         Standard orientation:
 ---------------------------------------------------------------------
 Center     Atomic      Atomic             Coordinates (Angstroms)
 Number     Number       Type             X           Y           Z
 ---------------------------------------------------------------------
      1          6           0       -0.737671    0.934461   -0.703304
      2          6           0       -1.979294    1.519012   -0.248280
      3          6           0       -2.968865    0.761129    0.360404
      4          6           0       -2.841922   -0.664942    0.601177
      5          6           0       -1.633359   -1.280603    0.150125
      6          6           0       -0.615313   -0.479804   -0.454502
      7          8           0        0.178752    1.643892   -1.261605
      8          8           0       -3.802755   -1.328168    1.170358
      9         16           0        0.979531   -1.144777   -0.892379
     10          6           0        2.214460   -0.160426    0.023154
     11          6           0        2.737861    1.023641   -0.508084
     12          6           0        2.634106   -0.624783    1.270816
     13          6           0        3.583095    0.092092    1.997930
     14          6           0        3.689211    1.733406    0.227009
     15          6           0        4.114993    1.277807    1.476052
     16          8           0        1.317413   -1.006072   -2.328825
     17          8           0        1.146439   -2.511640   -0.326994
     18          1           0        2.375312    1.365683   -1.465501
     19          1           0        2.215736   -1.549797    1.649080
     20          1           0        4.094429    2.656915   -0.178270
     21          1           0        3.908597   -0.273190    2.968250
     22          6           0       -4.264148    1.401881    0.803424
     23          6           0       -2.145288    3.005952   -0.462138
     24          1           0        4.850489    1.842822    2.042924
     25          1           0       -4.705846    2.028152    0.016007
     26          1           0       -4.124317    2.053463    1.680629
     27          1           0       -4.959033    0.605956    1.081254
     28          1           0       -2.943214    3.239047   -1.185099
     29          1           0       -1.206564    3.406602   -0.850796
     30          1           0       -2.404556    3.532323    0.467957
     31          6           0       -1.581026   -2.783838    0.297619
     32          1           0       -2.599344   -3.113613    0.518956
     33          1           0       -0.931025   -3.110283    1.120334
     34          1           0       -1.203001   -3.281648   -0.599542
 ---------------------------------------------------------------------

 SCF Done:  E(UB3LYP) =  -1279.56289398     A.U. after   20 cycles

 The electronic state is 1-A.
 Alpha  occ. eigenvalues --  -89.02529 -19.09343 -19.08888 -19.02257 -19.01030
 Alpha  occ. eigenvalues --  -10.19360 -10.18458 -10.17950 -10.17818 -10.17633
 Alpha  occ. eigenvalues --  -10.17487 -10.17421 -10.16673 -10.15691 -10.13769
 Alpha  occ. eigenvalues --  -10.13739 -10.13694 -10.13624 -10.13244 -10.12974
 Alpha  occ. eigenvalues --   -8.08862  -6.05177  -6.05053  -6.04912  -1.08007
 Alpha  occ. eigenvalues --   -0.97461  -0.94494  -0.92620  -0.86009  -0.79663
 Alpha  occ. eigenvalues --   -0.76826  -0.75414  -0.74866  -0.70264  -0.69794
 Alpha  occ. eigenvalues --   -0.66676  -0.62389  -0.60896  -0.60687  -0.58115
 Alpha  occ. eigenvalues --   -0.53872  -0.51757  -0.51091  -0.47296  -0.46577
 Alpha  occ. eigenvalues --   -0.45752  -0.45307  -0.44209  -0.42939  -0.42442
 Alpha  occ. eigenvalues --   -0.40983  -0.40326  -0.38575  -0.38305  -0.37645
 Alpha  occ. eigenvalues --   -0.37344  -0.36996  -0.36688  -0.36303  -0.35587
 Alpha  occ. eigenvalues --   -0.34369  -0.34341  -0.33900  -0.32511  -0.31218
 Alpha  occ. eigenvalues --   -0.31111  -0.30713  -0.30114  -0.28287  -0.27279
 Alpha  occ. eigenvalues --   -0.25949  -0.25582  -0.22632  -0.20533  -0.20227
 Alpha  occ. eigenvalues --   -0.18970  -0.12118
 Alpha virt. eigenvalues --   -0.03018  -0.01225  -0.00286   0.00476   0.00881
 Alpha virt. eigenvalues --    0.01092   0.01979   0.02475   0.03181   0.03281
 Alpha virt. eigenvalues --    0.03883   0.04153   0.04538   0.04902   0.05389

  Beta  occ. eigenvalues --  -89.02529 -19.09343 -19.08888 -19.02257 -19.01030
  Beta  occ. eigenvalues --  -10.19360 -10.18458 -10.17950 -10.17818 -10.17633
  Beta  occ. eigenvalues --  -10.17487 -10.17421 -10.16673 -10.15691 -10.13769
  Beta  occ. eigenvalues --  -10.13739 -10.13694 -10.13624 -10.13244 -10.12974
  Beta  occ. eigenvalues --   -8.08862  -6.05177  -6.05053  -6.04912  -1.08007
  Beta  occ. eigenvalues --   -0.97461  -0.94494  -0.92620  -0.86009  -0.79663
  Beta  occ. eigenvalues --   -0.76826  -0.75414  -0.74866  -0.70264  -0.69794
  Beta  occ. eigenvalues --   -0.66676  -0.62389  -0.60896  -0.60687  -0.58115
  Beta  occ. eigenvalues --   -0.53872  -0.51757  -0.51091  -0.47296  -0.46577
  Beta  occ. eigenvalues --   -0.45752  -0.45307  -0.44209  -0.42939  -0.42442
  Beta  occ. eigenvalues --   -0.40983  -0.40326  -0.38575  -0.38305  -0.37645
  Beta  occ. eigenvalues --   -0.37344  -0.36996  -0.36688  -0.36303  -0.35587
  Beta  occ. eigenvalues --   -0.34369  -0.34341  -0.33900  -0.32511  -0.31218
  Beta  occ. eigenvalues --   -0.31111  -0.30713  -0.30114  -0.28287  -0.27279
  Beta  occ. eigenvalues --   -0.25949  -0.25582  -0.22632  -0.20533  -0.20227
  Beta  occ. eigenvalues --   -0.18970  -0.12118
  Beta virt. eigenvalues --   -0.03018  -0.01225  -0.00286   0.00476   0.00881
  Beta virt. eigenvalues --    0.01092   0.01979   0.02475   0.03181   0.03281
  Beta virt. eigenvalues --    0.03883   0.04153   0.04538   0.04902   0.05389

 Mulliken charges and spin densities:
               1          2
     1  C   -0.795464  -0.000000
     2  C    0.416274   0.000000
     3  C    0.864696   0.000000
     4  C   -1.466882  -0.000000
     5  C    0.778946   0.000000
     6  C    0.255694  -0.000000
     7  O   -0.543211   0.000000
     8  O   -0.678007   0.000000
     9  S    0.041023   0.000000
    10  C    0.016497  -0.000000
    11  C   -0.058759   0.000000
    12  C    0.144577  -0.000000
    13  C   -0.500830  -0.000000
    14  C   -0.417278   0.000000
    15  C   -0.286107  -0.000000
    16  O   -0.246057   0.000000
    17  O   -0.274679   0.000000
    18  H    0.268387  -0.000000
    19  H    0.227346  -0.000000
    20  H    0.198751  -0.000000
    21  H    0.199698  -0.000000
    22  C   -0.499613  -0.000000
    23  C   -0.571809  -0.000000
    24  H    0.182372  -0.000000
    25  H    0.131011  -0.000000
    26  H    0.145934  -0.000000
    27  H    0.174977   0.000000
    28  H    0.141831  -0.000000
    29  H    0.164104   0.000000
    30  H    0.133936  -0.000000
    31  C   -0.600031  -0.000000
    32  H    0.160070  -0.000000
    33  H    0.149531   0.000000
    34  H    0.143070  -0.000000
 Sum of Mulliken charges =  -2.00000  -0.00000

 Dipole moment (field-independent basis, Debye):
    X=             11.3464    Y=              6.2849    Z=              4.4532  Tot=             13.7139
 Quadrupole moment (field-independent basis, Debye-Ang):
   XX=           -192.3840   YY=           -163.0402   ZZ=           -152.7950
   XY=             -7.6963   XZ=             26.9628   YZ=              4.7717

 Normal termination of Gaussian 16 at Wed Jan 24 23:01:03 2024.
