 Gaussian 16, Revision A.03,
 Gaussian 16:  ES64L-G16RevA.03 25-Dec-2016

 --------------------------------------
 #P UB3LYP/6-311++G(d,p) nosym opt freq
 --------------------------------------

 -------
 Reduced
 -------
 Symbolic Z-matrix:
 Charge = -2 Multiplicity = 1

 SCF Done:  E(UB3LYP) =  -5528.65920354     A.U. after   22 cycles
 Optimization completed.
    -- Stationary point found.
 Normal termination of Gaussian 16 at Sat Jan  6 05:45:37 2024.

 ----------------------------------------------------------------------
 #P Geom=AllCheck Guess=TCheck SCRF=Check GenChk UB3LYP/6-311++G(d,p) F
 req
 ----------------------------------------------------------------------

 Structure from the checkpoint file:  "012-an.chk"
 -------
 Reduced
 -------
 Charge = -2 Multiplicity = 1

                          Input orientation:
 ---------------------------------------------------------------------
 Center     Atomic      Atomic             Coordinates (Angstroms)
 Number     Number       Type             X           Y           Z
 ---------------------------------------------------------------------
      1         35           0       -2.727634   -1.839821   -0.096011
      2          6           0       -1.082786   -0.730921   -0.038116
      3          6           0       -1.265954    0.649636   -0.028710
      4          6           0       -0.159940    1.561477    0.012052
      5          8           0       -0.291880    2.850633    0.021818
      6          6           0        1.108106    0.892180    0.040547
      7          6           0        1.208662   -0.496708    0.028725
      8         35           0        3.043734   -1.250380    0.072289
      9          6           0        0.150261   -1.467853   -0.011196
     10          8           0        0.280608   -2.738956   -0.021058
     11          1           0       -2.266708    1.067229   -0.052450
     12          1           0        2.003530    1.503484    0.072110
 ---------------------------------------------------------------------

 SCF Done:  E(UB3LYP) =  -5528.65920354     A.U. after    3 cycles

 Alpha  occ. eigenvalues -- -482.55953-482.55951 -62.21226 -62.21224 -56.03212
 Alpha  occ. eigenvalues --  -56.03209 -56.02908 -56.02905 -56.02887 -56.02884
 Alpha  occ. eigenvalues --  -18.75877 -18.75349  -9.93552  -9.93460  -9.93452
 Alpha  occ. eigenvalues --   -9.92234  -9.88097  -9.88095  -8.42165  -8.42162
 Alpha  occ. eigenvalues --   -6.25141  -6.25138  -6.24122  -6.24120  -6.24058
 Alpha  occ. eigenvalues --   -6.24055  -2.36262  -2.36259  -2.35981  -2.35978
 Alpha  occ. eigenvalues --   -2.35932  -2.35930  -2.35122  -2.35122  -2.35119
 Alpha  occ. eigenvalues --   -2.35119  -0.68125  -0.66506  -0.55762  -0.53289
 Alpha  occ. eigenvalues --   -0.49283  -0.43007  -0.40282  -0.29804  -0.27819
 Alpha  occ. eigenvalues --   -0.19072  -0.18443  -0.14307  -0.12342  -0.11768
 Alpha  occ. eigenvalues --   -0.10095  -0.07828  -0.07227  -0.05817  -0.05678
 Alpha  occ. eigenvalues --   -0.02899  -0.02691  -0.02242   0.03266   0.03924
 Alpha  occ. eigenvalues --    0.05902   0.06741   0.13531
 Alpha virt. eigenvalues --    0.19533   0.20119   0.21154   0.21753   0.24026
 Alpha virt. eigenvalues --    0.24053   0.24532   0.24973   0.26180   0.26234
 Alpha virt. eigenvalues --    0.26566   0.27309   0.29210   0.30170   0.31245

  Beta  occ. eigenvalues -- -482.55953-482.55951 -62.21226 -62.21224 -56.03212
  Beta  occ. eigenvalues --  -56.03209 -56.02908 -56.02905 -56.02887 -56.02884
  Beta  occ. eigenvalues --  -18.75877 -18.75349  -9.93552  -9.93460  -9.93452
  Beta  occ. eigenvalues --   -9.92234  -9.88097  -9.88095  -8.42165  -8.42162
  Beta  occ. eigenvalues --   -6.25141  -6.25138  -6.24122  -6.24120  -6.24058
  Beta  occ. eigenvalues --   -6.24055  -2.36262  -2.36259  -2.35981  -2.35978
  Beta  occ. eigenvalues --   -2.35932  -2.35930  -2.35122  -2.35122  -2.35119
  Beta  occ. eigenvalues --   -2.35119  -0.68125  -0.66506  -0.55762  -0.53289
  Beta  occ. eigenvalues --   -0.49283  -0.43007  -0.40282  -0.29804  -0.27819
  Beta  occ. eigenvalues --   -0.19072  -0.18443  -0.14307  -0.12342  -0.11768
  Beta  occ. eigenvalues --   -0.10095  -0.07828  -0.07227  -0.05817  -0.05678
  Beta  occ. eigenvalues --   -0.02899  -0.02691  -0.02242   0.03266   0.03924
  Beta  occ. eigenvalues --    0.05902   0.06741   0.13531
  Beta virt. eigenvalues --    0.19533   0.20119   0.21154   0.21753   0.24026
  Beta virt. eigenvalues --    0.24053   0.24532   0.24973   0.26180   0.26234
  Beta virt. eigenvalues --    0.26566   0.27309   0.29210   0.30170   0.31245

 Mulliken charges and spin densities:
               1          2
     1  Br  -0.414908  -0.000000
     2  C    1.521710  -0.000000
     3  C   -0.230094   0.000000
     4  C   -0.752499   0.000000
     5  O   -0.589218   0.000000
     6  C   -0.229677   0.000000
     7  C    1.520022  -0.000000
     8  Br  -0.414692  -0.000000
     9  C   -2.226085   0.000000
    10  O   -0.445234  -0.000000
    11  H    0.130329   0.000000
    12  H    0.130345  -0.000000
 Sum of Mulliken charges =  -2.00000  -0.00000

 Dipole moment (field-independent basis, Debye):
    X=             -0.2793    Y=              2.7503    Z=              0.0213  Tot=              2.7645
 Quadrupole moment (field-independent basis, Debye-Ang):
   XX=           -122.7794   YY=           -152.2623   ZZ=            -92.9863
   XY=              3.0549   XZ=             -0.8053   YZ=             -0.5397

  Exact polarizability: 224.056   4.434 180.879   3.671   1.029  95.153
 Approx polarizability: 315.700   2.138 294.577   5.083   1.739 135.703

                      1                      2                      3
                      A                      A                      A
 Frequencies --     73.2853               122.1246               145.0307
 Red. masses --     18.0504                30.3788                12.1364
 Frc consts  --      0.0571                 0.2669                 0.1504
 IR Inten    --      7.1494                 6.0118                 7.4506

                      4                      5                      6
                      A                      A                      A
 Frequencies --    187.3723               197.0001               232.2197
 Red. masses --      5.1210                15.0752                23.2657
 Frc consts  --      0.1059                 0.3447                 0.7392
 IR Inten    --      0.0000                 0.4887                 0.9589

                      7                      8                      9
                      A                      A                      A
 Frequencies --    242.6019               274.2563               408.1358
 Red. masses --     18.6975                10.8538                 9.3432
 Frc consts  --      0.6484                 0.4810                 0.9170
 IR Inten    --      0.2395                 1.6671                 6.9125

                     10                     11                     12
                      A                      A                      A
 Frequencies --    460.9096               475.8879               563.4997
 Red. masses --      6.1530                12.6552                 1.7790
 Frc consts  --      0.7701                 1.6886                 0.3328
 IR Inten    --      0.0000                 0.3420                14.6433

                     13                     14                     15
                      A                      A                      A
 Frequencies --    593.1507               679.9763               698.7076
 Red. masses --      6.0726                 9.3441                12.0350
 Frc consts  --      1.2588                 2.5455                 3.4617
 IR Inten    --     20.0374                93.7417                 0.3084

                     16                     17                     18
                      A                      A                      A
 Frequencies --    767.3377               789.5963               806.2934
 Red. masses --      1.2637                 2.1589                 8.4999
 Frc consts  --      0.4384                 0.7930                 3.2557
 IR Inten    --      0.0001                43.1694               176.3947

                     19                     20                     21
                      A                      A                      A
 Frequencies --    854.9818               991.6769              1071.8333
 Red. masses --      9.0268                 2.3877                 5.6555
 Frc consts  --      3.8878                 1.3834                 3.8280
 IR Inten    --     19.7035                45.1905               172.5990

                     22                     23                     24
                      A                      A                      A
 Frequencies --   1178.6925              1263.4040              1364.4435
 Red. masses --      1.8333                 1.9615                 3.2533
 Frc consts  --      1.5007                 1.8447                 3.5685
 IR Inten    --     81.7798               104.4167                 0.0164

                     25                     26                     27
                      A                      A                      A
 Frequencies --   1376.6623              1392.8301              1469.5057
 Red. masses --     11.2658                 9.4616                 6.3019
 Frc consts  --     12.5797                10.8146                 8.0179
 IR Inten    --     43.1338               117.7977              1213.6637

                     28                     29                     30
                      A                      A                      A
 Frequencies --   1592.8664              3157.0663              3159.1833
 Red. masses --      9.0087                 1.0894                 1.0882
 Frc consts  --     13.4670                 6.3975                 6.3989
 IR Inten    --     20.9262                18.2354                37.5124

 - Thermochemistry -
 -------------------
 Temperature   298.150 Kelvin.  Pressure   1.00000 Atm.
 Atom     1 has atomic number 35 and mass  78.91834

 Molecular mass:   263.84215 amu.
 Principal axes and moments of inertia in atomic units:
                           1         2         3
     Eigenvalues --  1804.072055015.603866819.67590
           X            0.99441  -0.10182  -0.02807
           Y            0.10156   0.99477  -0.01054
           Z            0.02900   0.00763   0.99955
 This molecule is an asymmetric top.
 Rotational symmetry number  1.
 Warning -- assumption of classical behavior for rotation
           may cause significant error
 Rotational temperatures (Kelvin)      0.04801     0.01727     0.01270
 Rotational constants (GHZ):           1.00037     0.35983     0.26464
 Zero-point vibrational energy     159046.7 (Joules/Mol)
                                   38.01307 (Kcal/Mol)
 Warning -- explicit consideration of  13 degrees of freedom as
           vibrations may cause significant error
 Vibrational temperatures:    105.44   175.71   208.67   269.59   283.44
          (Kelvin)            334.11   349.05   394.59   587.22   663.15
                              684.70   810.75   853.41   978.33  1005.28
                             1104.03  1136.05  1160.08  1230.13  1426.80
                             1542.13  1695.88  1817.76  1963.13  1980.71
                             2003.97  2114.29  2291.78  4542.31  4545.36

 Zero-point correction=                           0.060578 (Hartree/Particle)
 Thermal correction to Energy=                    0.069970
 Thermal correction to Enthalpy=                  0.070914
 Thermal correction to Gibbs Free Energy=         0.023508
 Sum of electronic and zero-point Energies=          -5528.598626
 Sum of electronic and thermal Energies=             -5528.589234
 Sum of electronic and thermal Enthalpies=           -5528.588290
 Sum of electronic and thermal Free Energies=        -5528.635696

                     E (Thermal)             CV                S
                      KCal/Mol        Cal/Mol-Kelvin    Cal/Mol-Kelvin
 Total                   43.907             32.841             99.774
 Electronic               0.000              0.000              0.000
 Translational            0.889              2.981             42.610
 Rotational               0.889              2.981             32.490
 Vibrational             42.129             26.880             24.675
 Vibration     1          0.599              1.967              4.063
 Vibration     2          0.610              1.931              3.066
 Vibration     3          0.616              1.908              2.736
 Vibration     4          0.632              1.857              2.254
 Vibration     5          0.636              1.844              2.161
 Vibration     6          0.653              1.792              1.862
 Vibration     7          0.659              1.775              1.784
 Vibration     8          0.677              1.721              1.569
 Vibration     9          0.773              1.453              0.933
 Vibration    10          0.819              1.337              0.763
 Vibration    11          0.833              1.304              0.721
 Vibration    12          0.919              1.110              0.517
 Vibration    13          0.951              1.046              0.462

 Optimization completed.
    -- Stationary point found.
 Normal termination of Gaussian 16 at Sat Jan  6 05:49:26 2024.
