 Gaussian 16, Revision A.03,
 Gaussian 16:  ES64L-G16RevA.03 25-Dec-2016

 ----------------------------------------------------------------
 #P UB3LYP/6-311++G(d,p) SCRF=(PCM,Solvent=n,n-DiMethylFormamide)
 ----------------------------------------------------------------

 -------
 Reduced
 -------
 Symbolic Z-matrix:
 Charge = -2 Multiplicity = 1

                         Standard orientation:
 ---------------------------------------------------------------------
 Center     Atomic      Atomic             Coordinates (Angstroms)
 Number     Number       Type             X           Y           Z
 ---------------------------------------------------------------------
      1         35           0        2.901970   -0.724329    0.000000
      2          6           0        1.152027    0.211746   -0.000003
      3          6           0        1.193693    1.603809    0.000009
      4          6           0        0.000080    2.398586   -0.000073
      5          8           0        0.000077    3.694513    0.000054
      6          6           0       -1.193729    1.603897   -0.000015
      7          6           0       -1.152329    0.211938   -0.000020
      8         35           0       -2.901861   -0.724302    0.000004
      9          6           0       -0.000065   -0.646674   -0.000067
     10          8           0       -0.000308   -1.924480    0.000048
     11          1           0        2.147130    2.120932    0.000048
     12          1           0       -2.147142    2.121078    0.000017
 ---------------------------------------------------------------------

 SCF Done:  E(UB3LYP) =  -5528.93359622     A.U. after   17 cycles

 The electronic state is 1-A.
 Alpha  occ. eigenvalues -- -482.80530-482.80528 -62.45807 -62.45805 -56.27807
 Alpha  occ. eigenvalues --  -56.27806 -56.27478 -56.27477 -56.27460 -56.27458
 Alpha  occ. eigenvalues --  -19.02942 -19.02291 -10.19779 -10.19221 -10.19219
 Alpha  occ. eigenvalues --  -10.18524 -10.13916 -10.13915  -8.66751  -8.66749
 Alpha  occ. eigenvalues --   -6.49768  -6.49766  -6.48679  -6.48677  -6.48626
 Alpha  occ. eigenvalues --   -6.48624  -2.60879  -2.60877  -2.60578  -2.60576
 Alpha  occ. eigenvalues --   -2.60538  -2.60536  -2.59673  -2.59673  -2.59671
 Alpha  occ. eigenvalues --   -2.59671  -0.95127  -0.93505  -0.81588  -0.78335
 Alpha  occ. eigenvalues --   -0.74398  -0.68556  -0.66414  -0.55597  -0.53685
 Alpha  occ. eigenvalues --   -0.45219  -0.44550  -0.39597  -0.38091  -0.37714
 Alpha  occ. eigenvalues --   -0.37309  -0.34413  -0.32699  -0.32664  -0.30632
 Alpha  occ. eigenvalues --   -0.28158  -0.27478  -0.27017  -0.23411  -0.21665
 Alpha  occ. eigenvalues --   -0.21174  -0.20320  -0.13236
 Alpha virt. eigenvalues --   -0.01950   0.00501   0.00649   0.01293   0.02202
 Alpha virt. eigenvalues --    0.02460   0.04249   0.04571   0.05788   0.05793
 Alpha virt. eigenvalues --    0.06248   0.06342   0.07341   0.08546   0.08706

  Beta  occ. eigenvalues -- -482.80530-482.80528 -62.45807 -62.45805 -56.27807
  Beta  occ. eigenvalues --  -56.27806 -56.27478 -56.27477 -56.27460 -56.27458
  Beta  occ. eigenvalues --  -19.02942 -19.02291 -10.19779 -10.19221 -10.19219
  Beta  occ. eigenvalues --  -10.18524 -10.13916 -10.13915  -8.66751  -8.66749
  Beta  occ. eigenvalues --   -6.49768  -6.49766  -6.48679  -6.48677  -6.48626
  Beta  occ. eigenvalues --   -6.48624  -2.60879  -2.60877  -2.60578  -2.60576
  Beta  occ. eigenvalues --   -2.60538  -2.60536  -2.59673  -2.59673  -2.59671
  Beta  occ. eigenvalues --   -2.59671  -0.95127  -0.93505  -0.81588  -0.78335
  Beta  occ. eigenvalues --   -0.74398  -0.68556  -0.66414  -0.55597  -0.53685
  Beta  occ. eigenvalues --   -0.45219  -0.44550  -0.39597  -0.38091  -0.37714
  Beta  occ. eigenvalues --   -0.37309  -0.34413  -0.32699  -0.32664  -0.30632
  Beta  occ. eigenvalues --   -0.28158  -0.27478  -0.27017  -0.23411  -0.21665
  Beta  occ. eigenvalues --   -0.21174  -0.20320  -0.13236
  Beta virt. eigenvalues --   -0.01950   0.00501   0.00649   0.01293   0.02202
  Beta virt. eigenvalues --    0.02460   0.04249   0.04571   0.05788   0.05793
  Beta virt. eigenvalues --    0.06248   0.06342   0.07341   0.08546   0.08706

 Mulliken charges and spin densities:
               1          2
     1  Br  -0.257738   0.000000
     2  C    1.106484   0.000000
     3  C   -0.342200  -0.000000
     4  C   -0.398322   0.000000
     5  O   -0.711635   0.000000
     6  C   -0.341930  -0.000000
     7  C    1.105539  -0.000000
     8  Br  -0.257538  -0.000000
     9  C   -1.686761  -0.000000
    10  O   -0.591355   0.000000
    11  H    0.187714   0.000000
    12  H    0.187742   0.000000
 Sum of Mulliken charges =  -2.00000   0.00000

 Dipole moment (field-independent basis, Debye):
    X=             -0.0023    Y=             -5.6433    Z=             -0.0003  Tot=              5.6433
 Quadrupole moment (field-independent basis, Debye-Ang):
   XX=           -109.1742   YY=           -156.9109   ZZ=            -91.7014
   XY=             -0.0009   XZ=             -0.0000   YZ=             -0.0002

 Normal termination of Gaussian 16 at Sun Jan 21 07:31:50 2024.
