 Q-Chem 5.4, Q-Chem, Inc., Pleasanton, CA (2021)
 Q-Chem 5.4.0 for Intel X86 EM64T Linux

User input:
--------------------------------------------------------------
$molecule
0 1
O                 -2.2273630000     -2.0396930000      0.2040590000
C                 -1.6508020000     -0.8383400000      0.0995620000
C                 -2.4956560000      0.2961980000      0.0305500000
C                 -1.9700210000      1.5587960000     -0.0774920000
C                 -0.5689460000      1.7603920000     -0.1227990000
O                 -0.1226550000      3.0158320000     -0.2285220000
C                  0.2868640000      0.6504760000     -0.0559700000
C                  1.7336750000      0.8445570000     -0.1017420000
O                  2.2466250000      1.9716410000     -0.1988980000
C                  2.5923560000     -0.3521660000     -0.0284920000
C                  2.0780160000     -1.5877770000      0.0772240000
C                  0.6230440000     -1.8234390000      0.1264960000
O                  0.1846660000     -2.9814900000      0.2245460000
C                 -0.2594490000     -0.6618400000      0.0563310000
H                 -1.5011520000     -2.7104970000      0.2401320000
H                 -3.5664890000      0.1359620000      0.0656540000
H                 -2.6113770000      2.4302490000     -0.1306560000
H                  0.8655980000      2.9741990000     -0.2463300000
H                  3.6607120000     -0.1704080000     -0.0652950000
H                  2.7023510000     -2.4726510000      0.1316440000
$end
$rem
MAX_SCF_CYCLES=200
BASIS  =  6-311++G(d,p)
GUI  =  2
JOB_TYPE  =  SP
METHOD  =  B3LYP
SOLVENT_METHOD = PCM
$end
$pcm
theory = CPCM
$end
$solvent
dielectric 37.219
opticaldielectric 1.43
$end

--------------------------------------------------------------

             Standard Nuclear Orientation (Angstroms)
    I     Atom           X                Y                Z
 ----------------------------------------------------------------
    1      O      -2.2273630000    -2.0396930000     0.2040590000
    2      C      -1.6508020000    -0.8383400000     0.0995620000
    3      C      -2.4956560000     0.2961980000     0.0305500000
    4      C      -1.9700210000     1.5587960000    -0.0774920000
    5      C      -0.5689460000     1.7603920000    -0.1227990000
    6      O      -0.1226550000     3.0158320000    -0.2285220000
    7      C       0.2868640000     0.6504760000    -0.0559700000
    8      C       1.7336750000     0.8445570000    -0.1017420000
    9      O       2.2466250000     1.9716410000    -0.1988980000
   10      C       2.5923560000    -0.3521660000    -0.0284920000
   11      C       2.0780160000    -1.5877770000     0.0772240000
   12      C       0.6230440000    -1.8234390000     0.1264960000
   13      O       0.1846660000    -2.9814900000     0.2245460000
   14      C      -0.2594490000    -0.6618400000     0.0563310000
   15      H      -1.5011520000    -2.7104970000     0.2401320000
   16      H      -3.5664890000     0.1359620000     0.0656540000
   17      H      -2.6113770000     2.4302490000    -0.1306560000
   18      H       0.8655980000     2.9741990000    -0.2463300000
   19      H       3.6607120000    -0.1704080000    -0.0652950000
   20      H       2.7023510000    -2.4726510000     0.1316440000
 ----------------------------------------------------------------

    9    -685.7890623160      4.28e-06  Convergence criterion met
 Total energy in the final basis set =     -685.7890623160

                    Orbital Energies (a.u.)
 --------------------------------------------------------------

 Alpha MOs
 -- Occupied --
-19.1702 -19.1702 -19.1435 -19.1434 -10.2897 -10.2896 -10.2718 -10.2718
-10.2142 -10.2134 -10.2111 -10.2106 -10.2065 -10.2059  -1.0979  -1.0963
 -1.0652  -1.0638  -0.8919  -0.8452  -0.7884  -0.7716  -0.7121  -0.6709
 -0.6580  -0.6268  -0.5603  -0.5504  -0.5489  -0.5396  -0.5064  -0.4782
 -0.4723  -0.4717  -0.4433  -0.4427  -0.4419  -0.4389  -0.4253  -0.4174
 -0.4075  -0.3915  -0.3894  -0.3384  -0.3126  -0.3009  -0.2905  -0.2863
 -0.2384

          Ground-State Mulliken Net Atomic Charges

     Atom                 Charge (a.u.)
  ----------------------------------------
      1 O                    -0.324758
      2 C                    -0.211656
      3 C                     0.018020
      4 C                     0.018107
      5 C                    -0.208428
      6 O                    -0.324707
      7 C                     0.499554
      8 C                    -0.329803
      9 O                    -0.368964
     10 C                    -0.151760
     11 C                    -0.151161
     12 C                    -0.325489
     13 O                    -0.369453
     14 C                     0.498627
     15 H                     0.360177
     16 H                     0.250728
     17 H                     0.250667
     18 H                     0.360103
     19 H                     0.255106
     20 H                     0.255090
  ----------------------------------------
  Sum of atomic charges =     0.000000

                    Cartesian Multipole Moments
 -----------------------------------------------------------------
    Charge (ESU x 10^10)
                 0.0000
    Dipole Moment (Debye)
         X       0.1935      Y      -0.0793      Z       0.0022
       Tot       0.2091
    Quadrupole Moments (Debye-Ang)
        XX     -71.3231     XY     -11.9822     YY     -95.1524
        XZ       0.7134     YZ       1.3690     ZZ     -80.7652

 Total job time:  27.23s(wall), 188.40s(cpu)
        *  Thank you very much for using Q-Chem.  Have a nice day.  *
