 Q-Chem 5.4, Q-Chem, Inc., Pleasanton, CA (2021)
 Q-Chem 5.4.0 for Intel X86 EM64T Linux

User input:
--------------------------------------------------------------
$molecule
0 1
C                  2.6459100000     -0.3449820000     -1.9403270000
C                  2.6265670000     -0.0049550000     -0.4286720000
C                  2.8290460000      1.5177390000     -0.2250340000
C                  3.8158150000     -0.7295020000      0.2310010000
C                  1.2940280000     -0.4465800000      0.1932220000
C                  1.2157050000     -1.3515420000      1.1856870000
C                 -0.0625570000     -1.7766030000      1.7832300000
O                 -0.0916130000     -2.6032820000      2.6855790000
C                 -1.3048220000     -1.1781250000      1.2633530000
C                 -1.3191520000     -0.2665390000      0.2739630000
C                  0.0054860000      0.1552360000     -0.3239980000
O                  0.0345440000      0.9803010000     -1.2226210000
C                 -2.6142160000      0.3565780000     -0.2664350000
C                 -2.7733120000      0.0286640000     -1.7724900000
C                 -3.8487100000     -0.2003080000      0.4686400000
C                 -2.5925850000      1.8917950000     -0.0573440000
H                  3.6190010000     -0.0731730000     -2.3596810000
H                  2.5028780000     -1.4179630000     -2.0995220000
H                  1.8746620000      0.1952680000     -2.4861040000
H                  2.0617090000      2.0990180000     -0.7328700000
H                  3.8040360000      1.8097150000     -0.6260310000
H                  2.8167230000      1.7729250000      0.8388330000
H                  3.7602960000     -1.8139120000      0.1017460000
H                  3.8888510000     -0.5119890000      1.3001450000
H                  4.7430890000     -0.3903380000     -0.2369140000
H                  2.0885820000     -1.8284470000      1.6118050000
H                 -2.2069950000     -1.5328520000      1.7441640000
H                 -3.7238150000      0.4333020000     -2.1322870000
H                 -2.7890870000     -1.0531410000     -1.9354100000
H                 -1.9702630000      0.4600660000     -2.3671180000
H                 -3.8247700000      0.0205180000      1.5393270000
H                 -4.7476630000      0.2652840000      0.0576510000
H                 -3.9511250000     -1.2814580000      0.3407880000
H                 -3.5413970000      2.3165190000     -0.3979570000
H                 -2.4789210000      2.1384390000      1.0025300000
H                 -1.7859240000      2.3643260000     -0.6146460000
$end
$rem
MAX_SCF_CYCLES=200
BASIS  =  6-311++G(d,p)
GUI  =  2
JOB_TYPE  =  SP
METHOD  =  B3LYP
SOLVENT_METHOD = PCM
$end
$pcm
theory = CPCM
$end
$solvent
dielectric 37.219
opticaldielectric 1.43
$end

--------------------------------------------------------------

             Standard Nuclear Orientation (Angstroms)
    I     Atom           X                Y                Z
 ----------------------------------------------------------------
    1      C       2.6459100000    -0.3449820000    -1.9403270000
    2      C       2.6265670000    -0.0049550000    -0.4286720000
    3      C       2.8290460000     1.5177390000    -0.2250340000
    4      C       3.8158150000    -0.7295020000     0.2310010000
    5      C       1.2940280000    -0.4465800000     0.1932220000
    6      C       1.2157050000    -1.3515420000     1.1856870000
    7      C      -0.0625570000    -1.7766030000     1.7832300000
    8      O      -0.0916130000    -2.6032820000     2.6855790000
    9      C      -1.3048220000    -1.1781250000     1.2633530000
   10      C      -1.3191520000    -0.2665390000     0.2739630000
   11      C       0.0054860000     0.1552360000    -0.3239980000
   12      O       0.0345440000     0.9803010000    -1.2226210000
   13      C      -2.6142160000     0.3565780000    -0.2664350000
   14      C      -2.7733120000     0.0286640000    -1.7724900000
   15      C      -3.8487100000    -0.2003080000     0.4686400000
   16      C      -2.5925850000     1.8917950000    -0.0573440000
   17      H       3.6190010000    -0.0731730000    -2.3596810000
   18      H       2.5028780000    -1.4179630000    -2.0995220000
   19      H       1.8746620000     0.1952680000    -2.4861040000
   20      H       2.0617090000     2.0990180000    -0.7328700000
   21      H       3.8040360000     1.8097150000    -0.6260310000
   22      H       2.8167230000     1.7729250000     0.8388330000
   23      H       3.7602960000    -1.8139120000     0.1017460000
   24      H       3.8888510000    -0.5119890000     1.3001450000
   25      H       4.7430890000    -0.3903380000    -0.2369140000
   26      H       2.0885820000    -1.8284470000     1.6118050000
   27      H      -2.2069950000    -1.5328520000     1.7441640000
   28      H      -3.7238150000     0.4333020000    -2.1322870000
   29      H      -2.7890870000    -1.0531410000    -1.9354100000
   30      H      -1.9702630000     0.4600660000    -2.3671180000
   31      H      -3.8247700000     0.0205180000     1.5393270000
   32      H      -4.7476630000     0.2652840000     0.0576510000
   33      H      -3.9511250000    -1.2814580000     0.3407880000
   34      H      -3.5413970000     2.3165190000    -0.3979570000
   35      H      -2.4789210000     2.1384390000     1.0025300000
   36      H      -1.7859240000     2.3643260000    -0.6146460000
 ----------------------------------------------------------------

    9    -696.1679361075      3.00e-06  Convergence criterion met
 Total energy in the final basis set =     -696.1679361075

                    Orbital Energies (a.u.)
 --------------------------------------------------------------

 Alpha MOs
 -- Occupied --
-19.1375 -19.1355 -10.2863 -10.2784 -10.2143 -10.2143 -10.2001 -10.2001
-10.1960 -10.1960 -10.1573 -10.1572 -10.1561 -10.1561 -10.1561 -10.1561
 -1.0723  -1.0650  -0.8670  -0.8419  -0.8044  -0.7617  -0.7017  -0.6891
 -0.6866  -0.6861  -0.6839  -0.6381  -0.6086  -0.5562  -0.5415  -0.5222
 -0.5031  -0.4777  -0.4716  -0.4551  -0.4492  -0.4446  -0.4412  -0.4374
 -0.4314  -0.4214  -0.4142  -0.4034  -0.3923  -0.3824  -0.3797  -0.3771
 -0.3663  -0.3639  -0.3542  -0.3533  -0.3400  -0.3386  -0.3383  -0.3303
 -0.2994  -0.2824  -0.2819  -0.2666

          Ground-State Mulliken Net Atomic Charges

     Atom                 Charge (a.u.)
  ----------------------------------------
      1 C                    -0.732966
      2 C                     0.696062
      3 C                    -0.731656
      4 C                    -0.483290
      5 C                     0.709464
      6 C                    -0.289780
      7 C                    -0.598833
      8 O                    -0.318487
      9 C                    -0.291041
     10 C                     0.715837
     11 C                    -0.734813
     12 O                    -0.199604
     13 C                     0.696263
     14 C                    -0.732492
     15 C                    -0.482988
     16 C                    -0.734248
     17 H                     0.174687
     18 H                     0.159865
     19 H                     0.173915
     20 H                     0.174593
     21 H                     0.174710
     22 H                     0.159409
     23 H                     0.147025
     24 H                     0.147343
     25 H                     0.188091
     26 H                     0.256276
     27 H                     0.256552
     28 H                     0.174710
     29 H                     0.159529
     30 H                     0.174431
     31 H                     0.146979
     32 H                     0.188228
     33 H                     0.147329
     34 H                     0.174908
     35 H                     0.159710
     36 H                     0.174279
  ----------------------------------------
  Sum of atomic charges =     0.000000

                    Cartesian Multipole Moments
 -----------------------------------------------------------------
    Charge (ESU x 10^10)
                 0.0000
    Dipole Moment (Debye)
         X       0.0517      Y       1.4693      Z      -1.6050
       Tot       2.1766
    Quadrupole Moments (Debye-Ang)
        XX     -85.5089     XY      -1.3269     YY    -110.2262
        XZ       0.0051     YZ      12.0759     ZZ    -111.9199

 Total job time:  87.96s(wall), 493.32s(cpu)
        *  Thank you very much for using Q-Chem.  Have a nice day.  *
