 Q-Chem 5.4, Q-Chem, Inc., Pleasanton, CA (2021)
 Q-Chem 5.4.0 for Intel X86 EM64T Linux

User input:
--------------------------------------------------------------
$molecule
0 1
O                  4.5895020000      1.5164340000     -1.4001910000
C                  3.5204580000      0.9515580000     -0.7920610000
C                  2.2368570000      1.1940650000     -1.2887130000
C                  1.1348500000      0.6190520000     -0.6714180000
C                 -0.2180990000      0.8847750000     -1.2080500000
O                 -0.3826790000      1.6131440000     -2.2009920000
C                 -1.3585100000      0.2636320000     -0.5344070000
C                 -2.6584750000      0.4946560000     -1.0183600000
O                 -2.9251800000      1.2691740000     -2.0862630000
C                 -3.7771320000     -0.0860270000     -0.3964660000
O                 -5.0192430000      0.1441770000     -0.8715710000
C                 -3.5933560000     -0.9065370000      0.7213390000
O                 -4.7063950000     -1.4413260000      1.2827130000
C                 -2.3043940000     -1.1413700000      1.2092290000
C                 -1.1971760000     -0.5691960000      0.5969290000
C                  0.1505400000     -0.8356360000      1.1345360000
O                  0.3136940000     -1.5654480000      2.1297050000
C                  1.2910270000     -0.2160850000      0.4626330000
C                  2.5885990000     -0.4521850000      0.9525960000
O                  2.8564580000     -1.2268000000      2.0206550000
C                  3.6930480000      0.1323450000      0.3234540000
O                  4.9619470000     -0.0759180000      0.7725130000
H                  5.3945860000      1.2493720000     -0.9356590000
H                  2.1051960000      1.8300050000     -2.1540130000
H                 -2.0515710000      1.6064030000     -2.4172710000
H                 -4.9402040000      0.7286540000     -1.6398490000
H                 -4.4606680000     -1.9851380000      2.0392130000
H                 -2.1513030000     -1.7758850000      2.0754000000
H                  1.9804640000     -1.5616450000      2.3496160000
H                  4.9271600000     -0.6582500000      1.5447520000
$end

$rem
BASIS  =  6-311++G(d,p)
GUI  =  2
JOB_TYPE  =  SP
METHOD  =  B3LYP
SCF_CONVERGENCE  = 8
SOLVENT_METHOD = sm12
$end

$smx
solvent dimethylformamide
charges CM5
$end

--------------------------------------------------------------

             Standard Nuclear Orientation (Angstroms)
    I     Atom           X                Y                Z
 ----------------------------------------------------------------
    1      O       4.5895020000     1.5164340000    -1.4001910000
    2      C       3.5204580000     0.9515580000    -0.7920610000
    3      C       2.2368570000     1.1940650000    -1.2887130000
    4      C       1.1348500000     0.6190520000    -0.6714180000
    5      C      -0.2180990000     0.8847750000    -1.2080500000
    6      O      -0.3826790000     1.6131440000    -2.2009920000
    7      C      -1.3585100000     0.2636320000    -0.5344070000
    8      C      -2.6584750000     0.4946560000    -1.0183600000
    9      O      -2.9251800000     1.2691740000    -2.0862630000
   10      C      -3.7771320000    -0.0860270000    -0.3964660000
   11      O      -5.0192430000     0.1441770000    -0.8715710000
   12      C      -3.5933560000    -0.9065370000     0.7213390000
   13      O      -4.7063950000    -1.4413260000     1.2827130000
   14      C      -2.3043940000    -1.1413700000     1.2092290000
   15      C      -1.1971760000    -0.5691960000     0.5969290000
   16      C       0.1505400000    -0.8356360000     1.1345360000
   17      O       0.3136940000    -1.5654480000     2.1297050000
   18      C       1.2910270000    -0.2160850000     0.4626330000
   19      C       2.5885990000    -0.4521850000     0.9525960000
   20      O       2.8564580000    -1.2268000000     2.0206550000
   21      C       3.6930480000     0.1323450000     0.3234540000
   22      O       4.9619470000    -0.0759180000     0.7725130000
   23      H       5.3945860000     1.2493720000    -0.9356590000
   24      H       2.1051960000     1.8300050000    -2.1540130000
   25      H      -2.0515710000     1.6064030000    -2.4172710000
   26      H      -4.9402040000     0.7286540000    -1.6398490000
   27      H      -4.4606680000    -1.9851380000     2.0392130000
   28      H      -2.1513030000    -1.7758850000     2.0754000000
   29      H       1.9804640000    -1.5616450000     2.3496160000
   30      H       4.9271600000    -0.6582500000     1.5447520000
 ----------------------------------------------------------------

   15   -1140.4712513054      4.91e-09  Convergence criterion met
 Total energy in the final basis set =    -1140.5077780937

                    Orbital Energies (a.u.)
 --------------------------------------------------------------

 Alpha MOs
 -- Occupied --
-19.1878 -19.1807 -19.1792 -19.1776 -19.1748 -19.1740 -19.1389 -19.1385
-10.2905 -10.2900 -10.2739 -10.2719 -10.2698 -10.2697 -10.2642 -10.2629
-10.2152 -10.2143 -10.2112 -10.2107 -10.2035 -10.2009  -1.1163  -1.1119
 -1.0967  -1.0945  -1.0809  -1.0795  -1.0612  -1.0603  -0.8998  -0.8828
 -0.8168  -0.7849  -0.7761  -0.7748  -0.7061  -0.6957  -0.6747  -0.6673
 -0.6315  -0.6048  -0.5932  -0.5847  -0.5715  -0.5652  -0.5416  -0.5290
 -0.5233  -0.5104  -0.4903  -0.4856  -0.4780  -0.4750  -0.4654  -0.4541
 -0.4487  -0.4450  -0.4408  -0.4357  -0.4186  -0.4182  -0.4091  -0.4050
 -0.4033  -0.3959  -0.3941  -0.3932  -0.3874  -0.3863  -0.3458  -0.3419
 -0.3014  -0.2880  -0.2643  -0.2578  -0.2460  -0.2404

          Ground-State Mulliken Net Atomic Charges

     Atom                 Charge (a.u.)
  ----------------------------------------
      1 O                    -0.233040
      2 C                    -0.400208
      3 C                    -0.301871
      4 C                     0.496816
      5 C                    -0.980235
      6 O                    -0.324936
      7 C                     0.586891
      8 C                    -0.278576
      9 O                    -0.379509
     10 C                    -0.728443
     11 O                    -0.277277
     12 C                     0.057455
     13 O                    -0.237012
     14 C                     0.721814
     15 C                     0.670365
     16 C                    -0.813718
     17 O                    -0.303692
     18 C                     0.453395
     19 C                     0.080512
     20 O                    -0.355848
     21 C                     0.368040
     22 O                    -0.270878
     23 H                     0.311348
     24 H                     0.208027
     25 H                     0.351128
     26 H                     0.303594
     27 H                     0.337856
     28 H                     0.269373
     29 H                     0.338035
     30 H                     0.330593
  ----------------------------------------
  Sum of atomic charges =     0.000000

                    Cartesian Multipole Moments
 -----------------------------------------------------------------
    Charge (ESU x 10^10)
                -0.0000
    Dipole Moment (Debye)
         X       1.7211      Y      -1.4582      Z       2.1754
       Tot       3.1339
    Quadrupole Moments (Debye-Ang)
        XX    -120.2860     XY       1.0879     YY    -125.3383
        XZ      -0.6377     YZ      -0.9114     ZZ    -125.0150

 Total job time:  809.34s(wall), 6165.90s(cpu)
        *  Thank you very much for using Q-Chem.  Have a nice day.  *
