 Gaussian 16, Revision A.03,
 Gaussian 16:  ES64L-G16RevA.03 25-Dec-2016

 --------------------------------------
 #P UB3LYP/6-311++G(d,p) nosym opt freq
 --------------------------------------

 --------
 Oxidized
 --------
 Symbolic Z-matrix:
 Charge =  0 Multiplicity = 1

 SCF Done:  E(UB3LYP) =  -692.566815952     A.U. after   15 cycles
 SCF Done:  E(UB3LYP) =  -692.572243231     A.U. after   13 cycles
 SCF Done:  E(UB3LYP) =  -692.572405841     A.U. after   11 cycles
 SCF Done:  E(UB3LYP) =  -692.572423322     A.U. after   10 cycles
 SCF Done:  E(UB3LYP) =  -692.572423313     A.U. after   10 cycles
 SCF Done:  E(UB3LYP) =  -692.572424036     A.U. after    9 cycles
 Optimization completed.
    -- Stationary point found.
 Normal termination of Gaussian 16 at Tue Dec 26 20:20:56 2023.

 ----------------------------------------------------------------------
 #P Geom=AllCheck Guess=TCheck SCRF=Check GenChk UB3LYP/6-311++G(d,p) F
 req
 ----------------------------------------------------------------------

 Structure from the checkpoint file:  "256.chk"
 --------
 Oxidized
 --------
 Charge =  0 Multiplicity = 1

                          Input orientation:
 ---------------------------------------------------------------------
 Center     Atomic      Atomic             Coordinates (Angstroms)
 Number     Number       Type             X           Y           Z
 ---------------------------------------------------------------------
      1          6           0       -1.549244    2.796520    0.021825
      2          6           0       -2.819518    2.214180    0.017125
      3          6           0       -2.925172    0.805696    0.006612
      4          6           0       -0.389267    2.024198    0.016414
      5          6           0       -0.495645    0.628707    0.005999
      6          6           0       -1.757387    0.039091    0.001239
      7          6           0        0.945366    2.679841    0.021691
      8          6           0        2.169098    1.812669    0.016161
      9          6           0        2.061222    0.461177    0.006051
     10          6           0        0.727446   -0.214941    0.000108
     11          8           0        1.047596    3.898056    0.031160
     12          8           0        0.660554   -1.435816   -0.008706
     13          6           0        3.490260    2.538044    0.022469
     14          6           0        3.237829   -0.472024   -0.000091
     15          1           0       -1.443856    3.875144    0.029880
     16          6           0       -4.039283    3.105304    0.023407
     17          6           0       -4.257177    0.091154    0.000933
     18          1           0        3.324527    3.613631    0.030434
     19          1           0        4.084050    2.285068   -0.860664
     20          1           0        4.082901    2.271820    0.902474
     21          1           0        4.187055    0.059449    0.004543
     22          1           0        3.199663   -1.123844   -0.877709
     23          1           0        3.198436   -1.136871    0.867645
     24          1           0       -1.815217   -1.043921   -0.006833
     25          1           0       -3.747875    4.156414    0.031381
     26          1           0       -4.665771    2.926102    0.902665
     27          1           0       -4.665192    2.939310   -0.858851
     28          1           0       -5.104444    0.774836    0.005702
     29          1           0       -4.348688   -0.559853    0.875772
     30          1           0       -4.348138   -0.546909   -0.883445
 ---------------------------------------------------------------------

 SCF Done:  E(UB3LYP) =  -692.572424036     A.U. after    2 cycles

 Alpha  occ. eigenvalues --  -19.12326 -19.12243 -10.27250 -10.27120 -10.20989
 Alpha  occ. eigenvalues --  -10.20884 -10.20475 -10.20425 -10.19799 -10.19743
 Alpha  occ. eigenvalues --  -10.18966 -10.18959 -10.18180 -10.18125 -10.17565
 Alpha  occ. eigenvalues --  -10.17362  -1.05658  -1.05443  -0.88890  -0.85061
 Alpha  occ. eigenvalues --   -0.80690  -0.78680  -0.74922  -0.72667  -0.72318
 Alpha  occ. eigenvalues --   -0.67888  -0.65684  -0.62183  -0.59437  -0.57807
 Alpha  occ. eigenvalues --   -0.53814  -0.50184  -0.50024  -0.46695  -0.46138
 Alpha  occ. eigenvalues --   -0.44882  -0.44822  -0.44749  -0.44322  -0.42501
 Alpha  occ. eigenvalues --   -0.42187  -0.41636  -0.41472  -0.41022  -0.40665
 Alpha  occ. eigenvalues --   -0.40083  -0.39545  -0.38874  -0.38491  -0.36231
 Alpha  occ. eigenvalues --   -0.35806  -0.35569  -0.28171  -0.27854  -0.26774
 Alpha  occ. eigenvalues --   -0.26372  -0.25983
 Alpha virt. eigenvalues --   -0.11454  -0.05085  -0.02454  -0.01416  -0.00770
 Alpha virt. eigenvalues --    0.00645   0.01618   0.01874   0.01955   0.02683
 Alpha virt. eigenvalues --    0.03315   0.03357   0.03885   0.04021   0.04127

  Beta  occ. eigenvalues --  -19.12326 -19.12243 -10.27250 -10.27120 -10.20989
  Beta  occ. eigenvalues --  -10.20884 -10.20475 -10.20425 -10.19799 -10.19743
  Beta  occ. eigenvalues --  -10.18966 -10.18959 -10.18180 -10.18125 -10.17565
  Beta  occ. eigenvalues --  -10.17362  -1.05658  -1.05443  -0.88890  -0.85061
  Beta  occ. eigenvalues --   -0.80690  -0.78680  -0.74922  -0.72667  -0.72318
  Beta  occ. eigenvalues --   -0.67888  -0.65684  -0.62183  -0.59437  -0.57807
  Beta  occ. eigenvalues --   -0.53814  -0.50184  -0.50024  -0.46695  -0.46138
  Beta  occ. eigenvalues --   -0.44882  -0.44822  -0.44749  -0.44322  -0.42501
  Beta  occ. eigenvalues --   -0.42187  -0.41636  -0.41472  -0.41022  -0.40665
  Beta  occ. eigenvalues --   -0.40083  -0.39545  -0.38874  -0.38491  -0.36231
  Beta  occ. eigenvalues --   -0.35806  -0.35569  -0.28171  -0.27854  -0.26774
  Beta  occ. eigenvalues --   -0.26372  -0.25983
  Beta virt. eigenvalues --   -0.11454  -0.05085  -0.02454  -0.01416  -0.00770
  Beta virt. eigenvalues --    0.00645   0.01618   0.01874   0.01955   0.02683
  Beta virt. eigenvalues --    0.03315   0.03357   0.03885   0.04021   0.04127

 Mulliken charges and spin densities:
               1          2
     1  C   -0.077495   0.000000
     2  C   -0.224180   0.000000
     3  C    0.393856   0.000000
     4  C    0.096419   0.000000
     5  C    0.522801   0.000000
     6  C    0.363981  -0.000000
     7  C   -0.997059  -0.000000
     8  C    0.189913  -0.000000
     9  C    0.279405  -0.000000
    10  C   -0.601212   0.000000
    11  O   -0.214262   0.000000
    12  O   -0.210532  -0.000000
    13  C   -0.435412   0.000000
    14  C   -0.416500  -0.000000
    15  H    0.135133  -0.000000
    16  C   -0.531913   0.000000
    17  C   -0.525860  -0.000000
    18  H    0.212676  -0.000000
    19  H    0.165949  -0.000000
    20  H    0.165941  -0.000000
    21  H    0.158922   0.000000
    22  H    0.186112   0.000000
    23  H    0.186111   0.000000
    24  H    0.167724   0.000000
    25  H    0.181530   0.000000
    26  H    0.160326  -0.000000
    27  H    0.160340  -0.000000
    28  H    0.157976  -0.000000
    29  H    0.174664  -0.000000
    30  H    0.174646  -0.000000
 Sum of Mulliken charges =  -0.00000   0.00000

 Dipole moment (field-independent basis, Debye):
    X=             -1.5760    Y=             -0.0089    Z=             -0.0007  Tot=              1.5761
 Quadrupole moment (field-independent basis, Debye-Ang):
   XX=            -74.2265   YY=           -108.3001   ZZ=            -95.3001
   XY=             -4.5297   XZ=             -0.0283   YZ=             -0.0987

  Exact polarizability: 232.829  -2.104 199.067   0.039   0.765  96.065
 Approx polarizability: 306.337   6.720 380.096   0.106   1.676 155.219

 ******    1 imaginary frequencies (negative Signs) ******

                      1                      2                      3
                      A                      A                      A
 Frequencies --   -136.8992                18.7724                46.1630
 Red. masses --      1.0216                 1.0583                 4.7334
 Frc consts  --      0.0113                 0.0002                 0.0059
 IR Inten    --      0.1732                 0.0830                 7.4650

                      4                      5                      6
                      A                      A                      A
 Frequencies --     67.1654                78.2460               111.6262
 Red. masses --      1.6858                 1.9541                 2.3625
 Frc consts  --      0.0045                 0.0070                 0.0173
 IR Inten    --      0.0008                 0.0038                 0.0009

                      7                      8                      9
                      A                      A                      A
 Frequencies --    119.8668               168.4837               182.3122
 Red. masses --      4.6020                 1.0879                 4.0287
 Frc consts  --      0.0390                 0.0182                 0.0789
 IR Inten    --      0.6876                 0.4110                 0.8971

                     10                     11                     12
                      A                      A                      A
 Frequencies --    211.7124               243.9636               302.9807
 Red. masses --      3.6636                 3.4824                 3.0005
 Frc consts  --      0.0968                 0.1221                 0.1623
 IR Inten    --      0.0005                 0.9313                 0.7521

                     13                     14                     15
                      A                      A                      A
 Frequencies --    318.5490               331.7906               346.3359
 Red. masses --      3.3916                 2.8691                 4.4386
 Frc consts  --      0.2028                 0.1861                 0.3137
 IR Inten    --      0.6408                 0.2426                 2.7900

                     16                     17                     18
                      A                      A                      A
 Frequencies --    360.2681               373.0417               424.8114
 Red. masses --      4.9205                 5.1183                 8.0332
 Frc consts  --      0.3763                 0.4197                 0.8541
 IR Inten    --      2.2968                 0.1014                31.0504

                     19                     20                     21
                      A                      A                      A
 Frequencies --    445.5211               449.4661               457.8765
 Red. masses --      2.8267                 4.1367                 3.8170
 Frc consts  --      0.3306                 0.4924                 0.4715
 IR Inten    --      4.4220                 0.0183                 0.1113

                     22                     23                     24
                      A                      A                      A
 Frequencies --    496.9201               571.3691               580.1857
 Red. masses --      9.7561                 4.3844                 4.5666
 Frc consts  --      1.4194                 0.8433                 0.9057
 IR Inten    --      0.1651                 1.8454                 0.0089

                     25                     26                     27
                      A                      A                      A
 Frequencies --    670.1100               674.9175               704.2872
 Red. masses --      4.8470                 5.6005                 3.5828
 Frc consts  --      1.2824                 1.5031                 1.0471
 IR Inten    --      3.2080                 4.8651                 0.0049

                     28                     29                     30
                      A                      A                      A
 Frequencies --    737.4639               739.2227               754.9313
 Red. masses --      5.2758                 3.7046                 4.5470
 Frc consts  --      1.6905                 1.1927                 1.5268
 IR Inten    --     20.5350                 0.9676                 2.6282

                     31                     32                     33
                      A                      A                      A
 Frequencies --    787.1469               906.6728               917.9144
 Red. masses --      6.3864                 3.4695                 2.6358
 Frc consts  --      2.3314                 1.6804                 1.3085
 IR Inten    --      0.0526                16.1679                15.4120

                     34                     35                     36
                      A                      A                      A
 Frequencies --    932.4771               937.3583              1010.9773
 Red. masses --      1.3453                 1.3307                 1.4096
 Frc consts  --      0.6892                 0.6889                 0.8488
 IR Inten    --      6.8995                 4.0008                 9.3256

                     37                     38                     39
                      A                      A                      A
 Frequencies --   1028.0239              1028.0379              1047.5725
 Red. masses --      1.5263                 1.4728                 1.7014
 Frc consts  --      0.9504                 0.9171                 1.1001
 IR Inten    --     10.8858                 0.1923                61.1700

                     40                     41                     42
                      A                      A                      A
 Frequencies --   1048.6143              1057.6098              1066.7842
 Red. masses --      1.4693                 1.5687                 1.6221
 Frc consts  --      0.9519                 1.0338                 1.0876
 IR Inten    --      6.4504                 0.0002                 0.1385

                     43                     44                     45
                      A                      A                      A
 Frequencies --   1101.1280              1124.1437              1163.9708
 Red. masses --      5.5934                 2.3894                 2.1686
 Frc consts  --      3.9958                 1.7791                 1.7311
 IR Inten    --     10.4461                 5.2337                 6.7226

                     46                     47                     48
                      A                      A                      A
 Frequencies --   1209.6184              1231.0665              1277.3790
 Red. masses --      5.0150                 2.9886                 1.3057
 Frc consts  --      4.3233                 2.6686                 1.2553
 IR Inten    --      0.2936                28.5745                 2.1219

                     49                     50                     51
                      A                      A                      A
 Frequencies --   1314.1454              1321.2209              1352.1411
 Red. masses --      5.0753                 6.8138                 7.3893
 Frc consts  --      5.1642                 7.0079                 7.9597
 IR Inten    --    130.2239               289.1418                53.1673

                     52                     53                     54
                      A                      A                      A
 Frequencies --   1403.4928              1408.3652              1414.5958
 Red. masses --      1.2993                 1.3027                 1.2630
 Frc consts  --      1.5080                 1.5224                 1.4890
 IR Inten    --     24.5711                 3.2372                17.1900

                     55                     56                     57
                      A                      A                      A
 Frequencies --   1418.7800              1434.2621              1469.4408
 Red. masses --      1.2367                 4.0315                 1.1109
 Frc consts  --      1.4667                 4.8862                 1.4133
 IR Inten    --      3.0763                 1.6235                 2.2344

                     58                     59                     60
                      A                      A                      A
 Frequencies --   1472.6698              1482.0866              1482.1298
 Red. masses --      1.0437                 1.1530                 1.0441
 Frc consts  --      1.3337                 1.4922                 1.3513
 IR Inten    --     12.1246                 1.6002                14.6897

                     61                     62                     63
                      A                      A                      A
 Frequencies --   1490.3973              1501.2990              1505.0414
 Red. masses --      1.0649                 1.0431                 1.0442
 Frc consts  --      1.3936                 1.3852                 1.3936
 IR Inten    --     20.6921                 0.0006                 4.9499

                     64                     65                     66
                      A                      A                      A
 Frequencies --   1506.5135              1525.2385              1602.4553
 Red. masses --      1.1190                 2.9031                 7.4827
 Frc consts  --      1.4963                 3.9791                11.3209
 IR Inten    --      9.3750                 0.3364                10.1411

                     67                     68                     69
                      A                      A                      A
 Frequencies --   1631.9941              1662.9554              1705.0282
 Red. masses --      6.4451                 8.0217                12.2748
 Frc consts  --     10.1139                13.0701                21.0245
 IR Inten    --    144.7002                56.7656                30.4295

                     70                     71                     72
                      A                      A                      A
 Frequencies --   1712.5647              3024.3914              3030.4495
 Red. masses --     11.8662                 1.0384                 1.0410
 Frc consts  --     20.5048                 5.5960                 5.6328
 IR Inten    --    347.7963                21.6534                22.5847

                     73                     74                     75
                      A                      A                      A
 Frequencies --   3031.1477              3038.9097              3071.9342
 Red. masses --      1.0400                 1.0395                 1.1000
 Frc consts  --      5.6301                 5.6560                 6.1161
 IR Inten    --     13.5812                 9.5682                18.6652

                     76                     77                     78
                      A                      A                      A
 Frequencies --   3074.9198              3078.4949              3081.6385
 Red. masses --      1.1000                 1.0998                 1.0984
 Frc consts  --      6.1280                 6.1408                 6.1458
 IR Inten    --      5.8904                17.3335                 1.6020

                     79                     80                     81
                      A                      A                      A
 Frequencies --   3109.9229              3132.6828              3139.7392
 Red. masses --      1.0994                 1.0961                 1.0970
 Frc consts  --      6.2646                 6.3374                 6.3715
 IR Inten    --     15.3079                16.1456                 8.0319

                     82                     83                     84
                      A                      A                      A
 Frequencies --   3144.4492              3178.1712              3186.3574
 Red. masses --      1.0987                 1.0902                 1.0903
 Frc consts  --      6.4004                 6.4883                 6.5223
 IR Inten    --     10.4734                 2.4673                 3.3738

 - Thermochemistry -
 -------------------
 Temperature   298.150 Kelvin.  Pressure   1.00000 Atm.
 Atom     1 has atomic number  6 and mass  12.00000

 Molecular mass:   214.09938 amu.
 Principal axes and moments of inertia in atomic units:
                           1         2         3
     Eigenvalues --  1887.785564691.464956534.79047
           X            0.99719   0.07491  -0.00041
           Y           -0.07491   0.99716  -0.00744
           Z           -0.00014   0.00745   0.99997
 This molecule is an asymmetric top.
 Rotational symmetry number  1.
 Warning -- assumption of classical behavior for rotation
           may cause significant error
 Rotational temperatures (Kelvin)      0.04588     0.01846     0.01325
 Rotational constants (GHZ):           0.95601     0.38469     0.27617
    1 imaginary frequencies ignored.
 Zero-point vibrational energy     634050.0 (Joules/Mol)
                                  151.54159 (Kcal/Mol)
 Warning -- explicit consideration of  23 degrees of freedom as
           vibrations may cause significant error
 Vibrational temperatures:     27.01    66.42    96.64   112.58   160.61
          (Kelvin)            172.46   242.41   262.31   304.61   351.01
                              435.92   458.32   477.37   498.30   518.35
                              536.72   611.21   641.01   646.68   658.78
                              714.96   822.07   834.76   964.14   971.06
                             1013.31  1061.05  1063.58  1086.18  1132.53
                             1304.50  1320.67  1341.63  1348.65  1454.57
                             1479.10  1479.12  1507.22  1508.72  1521.66
                             1534.86  1584.28  1617.39  1674.69  1740.37
                             1771.23  1837.86  1890.76  1900.94  1945.43
                             2019.31  2026.32  2035.29  2041.31  2063.58
                             2114.20  2118.84  2132.39  2132.45  2144.35
                             2160.03  2165.42  2167.54  2194.48  2305.58
                             2348.08  2392.62  2453.16  2464.00  4351.42
                             4360.14  4361.15  4372.31  4419.83  4424.12
                             4429.27  4433.79  4474.49  4507.23  4517.38
                             4524.16  4572.68  4584.46

 Zero-point correction=                           0.241497 (Hartree/Particle)
 Thermal correction to Energy=                    0.256578
 Thermal correction to Enthalpy=                  0.257522
 Thermal correction to Gibbs Free Energy=         0.198094
 Sum of electronic and zero-point Energies=           -692.330927
 Sum of electronic and thermal Energies=              -692.315846
 Sum of electronic and thermal Enthalpies=            -692.314902
 Sum of electronic and thermal Free Energies=         -692.374330

                     E (Thermal)             CV                S
                      KCal/Mol        Cal/Mol-Kelvin    Cal/Mol-Kelvin
 Total                  161.005             56.417            125.076
 Electronic               0.000              0.000              0.000
 Translational            0.889              2.981             41.987
 Rotational               0.889              2.981             32.426
 Vibrational            159.227             50.455             50.663
 Vibration     1          0.593              1.986              6.760
 Vibration     2          0.595              1.979              4.975
 Vibration     3          0.598              1.970              4.235
 Vibration     4          0.600              1.964              3.934
 Vibration     5          0.607              1.940              3.240
 Vibration     6          0.609              1.933              3.103
 Vibration     7          0.625              1.881              2.452
 Vibration     8          0.630              1.864              2.305
 Vibration     9          0.643              1.823              2.029
 Vibration    10          0.659              1.773              1.774
 Vibration    11          0.694              1.668              1.400
 Vibration    12          0.705              1.638              1.318
 Vibration    13          0.714              1.612              1.251
 Vibration    14          0.724              1.583              1.183
 Vibration    15          0.735              1.554              1.121
 Vibration    16          0.744              1.527              1.067
 Vibration    17          0.787              1.416              0.876
 Vibration    18          0.805              1.371              0.809
 Vibration    19          0.808              1.362              0.797
 Vibration    20          0.816              1.343              0.772
 Vibration    21          0.852              1.257              0.666
 Vibration    22          0.928              1.093              0.502
 Vibration    23          0.937              1.074              0.485

 Optimization completed.
    -- Stationary point found.
 Normal termination of Gaussian 16 at Tue Dec 26 20:54:57 2023.
