 Gaussian 16, Revision A.03,
 Gaussian 16:  ES64L-G16RevA.03 25-Dec-2016

 --------------------------------------
 #P UB3LYP/6-311++G(d,p) nosym opt freq
 --------------------------------------

 --------
 Oxidized
 --------
 Symbolic Z-matrix:
 Charge = -2 Multiplicity = 1

 SCF Done:  E(UB3LYP) =  -1935.59427693     A.U. after   23 cycles
 SCF Done:  E(UB3LYP) =  -1935.64168912     A.U. after   15 cycles
 SCF Done:  E(UB3LYP) =  -1935.67013409     A.U. after   15 cycles
 SCF Done:  E(UB3LYP) =  -1935.67368777     A.U. after   14 cycles
 SCF Done:  E(UB3LYP) =  -1935.67384660     A.U. after   12 cycles
 SCF Done:  E(UB3LYP) =  -1935.67386691     A.U. after   12 cycles
 SCF Done:  E(UB3LYP) =  -1935.67386958     A.U. after   11 cycles
 SCF Done:  E(UB3LYP) =  -1935.67387177     A.U. after   11 cycles
 SCF Done:  E(UB3LYP) =  -1935.67387313     A.U. after   12 cycles
 SCF Done:  E(UB3LYP) =  -1935.67387516     A.U. after   12 cycles
 SCF Done:  E(UB3LYP) =  -1935.67387737     A.U. after   12 cycles
 SCF Done:  E(UB3LYP) =  -1935.67388275     A.U. after   13 cycles
 SCF Done:  E(UB3LYP) =  -1935.67388809     A.U. after   13 cycles
 SCF Done:  E(UB3LYP) =  -1935.67389281     A.U. after   13 cycles
 SCF Done:  E(UB3LYP) =  -1935.67389865     A.U. after   12 cycles
 SCF Done:  E(UB3LYP) =  -1935.67390008     A.U. after   11 cycles
 SCF Done:  E(UB3LYP) =  -1935.67390013     A.U. after   11 cycles
 Optimization completed.
    -- Stationary point found.
 Normal termination of Gaussian 16 at Mon Jan  8 17:59:51 2024.

 ----------------------------------------------------------------------
 #P Geom=AllCheck Guess=TCheck SCRF=Check GenChk UB3LYP/6-311++G(d,p) F
 req
 ----------------------------------------------------------------------

 Structure from the checkpoint file:  "225.chk"
 --------
 Oxidized
 --------
 Charge = -2 Multiplicity = 1

                          Input orientation:
 ---------------------------------------------------------------------
 Center     Atomic      Atomic             Coordinates (Angstroms)
 Number     Number       Type             X           Y           Z
 ---------------------------------------------------------------------
      1          8           0        5.495291   -2.248877    0.673251
      2         16           0        5.459298   -0.914724    0.020775
      3          8           0        6.293010    0.112592    0.698536
      4          8           0        5.609855   -0.954995   -1.454336
      5          6           0        3.738347   -0.339655    0.290688
      6          6           0        3.465959    0.565813    1.318573
      7          6           0        2.160205    0.977347    1.559549
      8          6           0        1.104747    0.492616    0.781056
      9          6           0       -0.282446    0.956078    1.070206
     10          8           0       -0.508342    1.747739    1.976946
     11          6           0       -1.380853    0.420111    0.214646
     12          6           0       -2.697678    0.827629    0.452380
     13          6           0       -3.738334    0.339497   -0.333931
     14          6           0       -3.465945   -0.566137   -1.361741
     15          6           0       -2.160226   -0.977526   -1.602802
     16          6           0       -1.104720   -0.492588   -0.824415
     17          6           0        0.282483   -0.955994   -1.113641
     18          8           0        0.508361   -1.747634   -2.020409
     19          6           0        1.380897   -0.420072   -0.258068
     20          6           0        2.697648   -0.827657   -0.495742
     21         16           0       -5.459271    0.915093   -0.065125
     22          8           0       -5.498807    2.242103   -0.731869
     23          8           0       -6.293431   -0.120431   -0.729694
     24          8           0       -5.605820    0.970973    1.409857
     25          1           0        4.294560    0.943294    1.905712
     26          1           0        1.931917    1.681589    2.350782
     27          1           0       -2.901135    1.518408    1.260638
     28          1           0       -4.294482   -0.944147   -1.948643
     29          1           0       -1.931932   -1.681882   -2.393925
     30          1           0        2.900843   -1.518563   -1.303961
 ---------------------------------------------------------------------

 SCF Done:  E(UB3LYP) =  -1935.67390013     A.U. after    2 cycles

 Alpha  occ. eigenvalues --  -88.84518 -88.84518 -18.95587 -18.95586 -18.88798
 Alpha  occ. eigenvalues --  -18.88796 -18.88726 -18.88725 -18.88693 -18.88693
 Alpha  occ. eigenvalues --  -10.10873 -10.10872 -10.03582 -10.03581 -10.03505
 Alpha  occ. eigenvalues --  -10.03504 -10.03183 -10.03183 -10.02692 -10.02692
 Alpha  occ. eigenvalues --  -10.02374 -10.02370 -10.02286 -10.02282  -7.90365
 Alpha  occ. eigenvalues --   -7.90365  -5.86615  -5.86614  -5.86607  -5.86606
 Alpha  occ. eigenvalues --   -5.86599  -5.86599  -0.90670  -0.90670  -0.88931
 Alpha  occ. eigenvalues --   -0.88746  -0.77060  -0.77059  -0.76853  -0.76852
 Alpha  occ. eigenvalues --   -0.72072  -0.70867  -0.64001  -0.60686  -0.60418
 Alpha  occ. eigenvalues --   -0.59869  -0.51890  -0.50222  -0.47586  -0.44923
 Alpha  occ. eigenvalues --   -0.42386  -0.41529  -0.38951  -0.38565  -0.34464
 Alpha  occ. eigenvalues --   -0.33053  -0.31729  -0.31033  -0.30270  -0.28265
 Alpha  occ. eigenvalues --   -0.28222  -0.28212  -0.27829  -0.27643  -0.27103
 Alpha  occ. eigenvalues --   -0.24880  -0.24821  -0.24447  -0.24362  -0.24274
 Alpha  occ. eigenvalues --   -0.24270  -0.22241  -0.21807  -0.20389  -0.19565
 Alpha  occ. eigenvalues --   -0.19218  -0.12986  -0.12940  -0.12858  -0.12830
 Alpha  occ. eigenvalues --   -0.12463  -0.12009  -0.11371  -0.10954  -0.10554
 Alpha  occ. eigenvalues --   -0.10335  -0.09382  -0.09300  -0.09174  -0.08924
 Alpha  occ. eigenvalues --   -0.07924  -0.07491  -0.04948  -0.04946
 Alpha virt. eigenvalues --    0.05495   0.09816   0.13570   0.14544   0.14794
 Alpha virt. eigenvalues --    0.15231   0.17674   0.17708   0.19092   0.19854
 Alpha virt. eigenvalues --    0.20139   0.20161   0.20369   0.21488   0.21596

  Beta  occ. eigenvalues --  -88.84518 -88.84518 -18.95587 -18.95586 -18.88798
  Beta  occ. eigenvalues --  -18.88796 -18.88726 -18.88725 -18.88693 -18.88693
  Beta  occ. eigenvalues --  -10.10873 -10.10872 -10.03582 -10.03581 -10.03505
  Beta  occ. eigenvalues --  -10.03504 -10.03183 -10.03183 -10.02692 -10.02692
  Beta  occ. eigenvalues --  -10.02374 -10.02370 -10.02286 -10.02282  -7.90365
  Beta  occ. eigenvalues --   -7.90365  -5.86615  -5.86614  -5.86607  -5.86606
  Beta  occ. eigenvalues --   -5.86599  -5.86599  -0.90670  -0.90670  -0.88931
  Beta  occ. eigenvalues --   -0.88746  -0.77060  -0.77059  -0.76853  -0.76852
  Beta  occ. eigenvalues --   -0.72072  -0.70867  -0.64001  -0.60686  -0.60418
  Beta  occ. eigenvalues --   -0.59869  -0.51890  -0.50222  -0.47586  -0.44923
  Beta  occ. eigenvalues --   -0.42386  -0.41529  -0.38951  -0.38565  -0.34464
  Beta  occ. eigenvalues --   -0.33053  -0.31729  -0.31033  -0.30270  -0.28265
  Beta  occ. eigenvalues --   -0.28222  -0.28212  -0.27829  -0.27643  -0.27103
  Beta  occ. eigenvalues --   -0.24880  -0.24821  -0.24447  -0.24362  -0.24274
  Beta  occ. eigenvalues --   -0.24270  -0.22241  -0.21807  -0.20389  -0.19565
  Beta  occ. eigenvalues --   -0.19218  -0.12986  -0.12940  -0.12858  -0.12830
  Beta  occ. eigenvalues --   -0.12463  -0.12009  -0.11371  -0.10954  -0.10554
  Beta  occ. eigenvalues --   -0.10335  -0.09382  -0.09300  -0.09174  -0.08924
  Beta  occ. eigenvalues --   -0.07924  -0.07491  -0.04948  -0.04946
  Beta virt. eigenvalues --    0.05495   0.09816   0.13570   0.14544   0.14794
  Beta virt. eigenvalues --    0.15231   0.17674   0.17708   0.19092   0.19854
  Beta virt. eigenvalues --    0.20139   0.20161   0.20369   0.21488   0.21596

 Mulliken charges and spin densities:
               1          2
     1  O   -0.284484   0.000000
     2  S    0.579947   0.000000
     3  O   -0.357430  -0.000000
     4  O   -0.333855   0.000000
     5  C   -0.699196   0.000000
     6  C   -0.177649   0.000000
     7  C    0.066956   0.000000
     8  C    0.424782  -0.000000
     9  C   -0.709829  -0.000000
    10  O   -0.239467   0.000000
    11  C    0.200029   0.000000
    12  C   -0.042294   0.000000
    13  C   -0.694897  -0.000000
    14  C   -0.184374  -0.000000
    15  C    0.061020  -0.000000
    16  C    0.424444  -0.000000
    17  C   -0.708381   0.000000
    18  O   -0.239588   0.000000
    19  C    0.195665  -0.000000
    20  C   -0.047265   0.000000
    21  S    0.579764   0.000000
    22  O   -0.284751  -0.000000
    23  O   -0.357395   0.000000
    24  O   -0.334635   0.000000
    25  H    0.213412   0.000000
    26  H    0.157472   0.000000
    27  H    0.211016   0.000000
    28  H    0.212844  -0.000000
    29  H    0.157325  -0.000000
    30  H    0.210815  -0.000000
 Sum of Mulliken charges =  -2.00000   0.00000

 Dipole moment (field-independent basis, Debye):
    X=              0.0000    Y=             -0.0023    Z=              0.2162  Tot=              0.2162
 Quadrupole moment (field-independent basis, Debye-Ang):
   XX=           -467.4104   YY=           -186.5488   ZZ=           -177.4942
   XY=             57.2380   XZ=              5.7350   YZ=             -5.3529

  Exact polarizability: 396.584 -34.380 187.387  13.931  49.017 200.566
 Approx polarizability: 502.188 -40.612 340.491  10.863 116.119 374.603

                      1                      2                      3
                      A                      A                      A
 Frequencies --      8.8162                10.8917                20.0776
 Red. masses --     15.9004                12.2470                14.9317
 Frc consts  --      0.0007                 0.0009                 0.0035
 IR Inten    --      0.2406                 0.0003                 4.4798

                      4                      5                      6
                      A                      A                      A
 Frequencies --     68.0500                71.1948                78.8032
 Red. masses --     10.3442                 7.6554                13.3911
 Frc consts  --      0.0282                 0.0229                 0.0490
 IR Inten    --      0.0009                10.7474                 8.3014

                      7                      8                      9
                      A                      A                      A
 Frequencies --    116.8726               124.6433               133.9134
 Red. masses --     12.7047                 5.4196                 6.4086
 Frc consts  --      0.1022                 0.0496                 0.0677
 IR Inten    --      0.0000                 1.5050                 0.0000

                     10                     11                     12
                      A                      A                      A
 Frequencies --    171.2529               185.9717               214.6900
 Red. masses --     11.6866                13.9713                10.6037
 Frc consts  --      0.2019                 0.2847                 0.2880
 IR Inten    --      1.6466                 0.0000                 3.0870

                     13                     14                     15
                      A                      A                      A
 Frequencies --    217.0644               261.1897               268.5979
 Red. masses --      9.1659                12.7647                13.4812
 Frc consts  --      0.2545                 0.5131                 0.5730
 IR Inten    --      0.0001                 4.5107                 0.0003

                     16                     17                     18
                      A                      A                      A
 Frequencies --    311.7369               327.2386               372.0540
 Red. masses --      7.3551                 6.7337                 7.2537
 Frc consts  --      0.4211                 0.4248                 0.5916
 IR Inten    --      2.2037                 0.0001                11.4758

                     19                     20                     21
                      A                      A                      A
 Frequencies --    378.5706               401.4525               413.8729
 Red. masses --      7.1738                 7.9556                11.0948
 Frc consts  --      0.6057                 0.7554                 1.1197
 IR Inten    --      0.0001                 0.0004                68.6380

                     22                     23                     24
                      A                      A                      A
 Frequencies --    419.9844               439.4320               459.9398
 Red. masses --      3.4677                 3.4137                10.5148
 Frc consts  --      0.3604                 0.3884                 1.3106
 IR Inten    --      0.6719                 0.0000                 0.0000

                     25                     26                     27
                      A                      A                      A
 Frequencies --    465.7283               485.7863               497.9323
 Red. masses --     10.2321                10.8717                10.8595
 Frc consts  --      1.3076                 1.5116                 1.5864
 IR Inten    --      0.0000                18.2978                 0.0000

                     28                     29                     30
                      A                      A                      A
 Frequencies --    516.6586               527.2288               542.1781
 Red. masses --     15.1890                11.8900                 9.6129
 Frc consts  --      2.3888                 1.9473                 1.6649
 IR Inten    --     24.7587                 0.0001                 0.0003

                     31                     32                     33
                      A                      A                      A
 Frequencies --    584.0859               602.8122               622.7213
 Red. masses --      5.5777                14.7239                14.3783
 Frc consts  --      1.1211                 3.1524                 3.2851
 IR Inten    --     52.5823               386.2569                 0.0002

                     34                     35                     36
                      A                      A                      A
 Frequencies --    656.0165               676.8353               684.7851
 Red. masses --      7.4537                 4.5087                 7.8715
 Frc consts  --      1.8900                 1.2169                 2.1748
 IR Inten    --     13.9031                 0.0003                84.1568

                     37                     38                     39
                      A                      A                      A
 Frequencies --    699.8318               713.4950               729.3699
 Red. masses --      7.0375                 4.6532                 8.3875
 Frc consts  --      2.0308                 1.3957                 2.6289
 IR Inten    --      0.0000                12.5707                 0.0000

                     40                     41                     42
                      A                      A                      A
 Frequencies --    758.4583               788.7002               839.5036
 Red. masses --      5.2738                 5.6550                 7.3590
 Frc consts  --      1.7874                 2.0725                 3.0557
 IR Inten    --     24.9781                 0.0002                 3.2859

                     43                     44                     45
                      A                      A                      A
 Frequencies --    868.9913               877.0889               938.0846
 Red. masses --      1.4406                 1.4844                 1.3713
 Frc consts  --      0.6410                 0.6728                 0.7110
 IR Inten    --      0.0020                23.1907                 0.9801

                     46                     47                     48
                      A                      A                      A
 Frequencies --    938.7622               950.3367               967.1744
 Red. masses --      1.3816                 8.7820                 6.6862
 Frc consts  --      0.7174                 4.6730                 3.6850
 IR Inten    --      5.1149                 0.0000                14.4872

                     49                     50                     51
                      A                      A                      A
 Frequencies --    978.5063               993.2342              1004.2265
 Red. masses --     10.6150                 8.8704                 1.3299
 Frc consts  --      5.9882                 5.1558                 0.7902
 IR Inten    --    691.4849                 0.0002                 0.0011

                     52                     53                     54
                      A                      A                      A
 Frequencies --   1006.2410              1084.6300              1092.2297
 Red. masses --      1.3477                 2.0660                 2.1820
 Frc consts  --      0.8040                 1.4320                 1.5336
 IR Inten    --      1.4695                49.9407                 0.0004

                     55                     56                     57
                      A                      A                      A
 Frequencies --   1123.2874              1127.7631              1160.6883
 Red. masses --      1.8338                 2.1612                15.2070
 Frc consts  --      1.3633                 1.6195                12.0705
 IR Inten    --      0.0046                70.3368               548.3860

                     58                     59                     60
                      A                      A                      A
 Frequencies --   1162.6825              1171.4379              1172.7615
 Red. masses --     16.9463                14.5944                12.8484
 Frc consts  --     13.4973                11.7998                10.4116
 IR Inten    --      0.3814               534.0246                 1.8445

                     61                     62                     63
                      A                      A                      A
 Frequencies --   1183.1854              1184.1421              1227.5407
 Red. masses --      2.2311                 3.7128                 1.8600
 Frc consts  --      1.8402                 3.0673                 1.6513
 IR Inten    --     73.3340                 0.0014                 0.0004

                     64                     65                     66
                      A                      A                      A
 Frequencies --   1270.5460              1287.7733              1298.7662
 Red. masses --      1.4050                 1.7884                 5.5615
 Frc consts  --      1.3363                 1.7474                 5.5272
 IR Inten    --     12.4393                 0.0029               858.1518

                     67                     68                     69
                      A                      A                      A
 Frequencies --   1344.1172              1358.4256              1412.2540
 Red. masses --     10.8238                10.8500                 3.9193
 Frc consts  --     11.5214                11.7964                 4.6056
 IR Inten    --     59.6053                 0.0006                18.6465

                     70                     71                     72
                      A                      A                      A
 Frequencies --   1429.2264              1490.6741              1499.2762
 Red. masses --      4.9467                 2.7240                 2.6645
 Frc consts  --      5.9535                 3.5663                 3.5288
 IR Inten    --      0.0000                22.1544                 0.0000

                     73                     74                     75
                      A                      A                      A
 Frequencies --   1587.0724              1599.9016              1603.5657
 Red. masses --      7.7126                 8.5799                 6.2973
 Frc consts  --     11.4458                12.9395                 9.5406
 IR Inten    --     11.7565                 0.0078               266.9735

                     76                     77                     78
                      A                      A                      A
 Frequencies --   1611.3061              1698.1031              1710.7494
 Red. masses --      5.9367                12.6715                11.8542
 Frc consts  --      9.0813                21.5281                20.4407
 IR Inten    --      0.0002                 0.0001               338.2215

                     79                     80                     81
                      A                      A                      A
 Frequencies --   3181.5140              3181.5810              3196.0821
 Red. masses --      1.0873                 1.0873                 1.0937
 Frc consts  --      6.4845                 6.4849                 6.5824
 IR Inten    --      4.1769                 0.0614                 7.3575

                     82                     83                     84
                      A                      A                      A
 Frequencies --   3196.1363              3207.5140              3207.6123
 Red. masses --      1.0937                 1.0903                 1.0903
 Frc consts  --      6.5824                 6.6087                 6.6092
 IR Inten    --      1.9650                 3.6398                 0.3721

 - Thermochemistry -
 -------------------
 Temperature   298.150 Kelvin.  Pressure   1.00000 Atm.
 Atom     1 has atomic number  8 and mass  15.99491

 Molecular mass:   365.95041 amu.
 Principal axes and moments of inertia in atomic units:
                           1         2         3
     Eigenvalues --  2515.14176********************
           X            0.98881   0.07115   0.13113
           Y           -0.14629   0.63475   0.75874
           Z            0.02925   0.76943  -0.63806
 This molecule is an asymmetric top.
 Rotational symmetry number  1.
 Warning -- assumption of classical behavior for rotation
           may cause significant error
 Rotational temperatures (Kelvin)      0.03444     0.00377     0.00349
 Rotational constants (GHZ):           0.71755     0.07850     0.07278
 Zero-point vibrational energy     481219.6 (Joules/Mol)
                                  115.01424 (Kcal/Mol)
 Warning -- explicit consideration of  32 degrees of freedom as
           vibrations may cause significant error
 Vibrational temperatures:     12.68    15.67    28.89    97.91   102.43
          (Kelvin)            113.38   168.15   179.33   192.67   246.39
                              267.57   308.89   312.31   375.79   386.45
                              448.52   470.82   535.30   544.68   577.60
                              595.47   604.26   632.24   661.75   670.08
                              698.94   716.41   743.36   758.56   780.07
                              840.37   867.31   895.96   943.86   973.82
                              985.25  1006.90  1026.56  1049.40  1091.25
                             1134.76  1207.86  1250.28  1261.94  1349.69
                             1350.67  1367.32  1391.55  1407.85  1429.04
                             1444.86  1447.76  1560.54  1571.47  1616.16
                             1622.60  1669.97  1672.84  1685.44  1687.34
                             1702.34  1703.72  1766.16  1828.03  1852.82
                             1868.63  1933.88  1954.47  2031.92  2056.34
                             2144.75  2157.12  2283.44  2301.90  2307.17
                             2318.31  2443.19  2461.39  4577.49  4577.59
                             4598.45  4598.53  4614.90  4615.04

 Zero-point correction=                           0.183287 (Hartree/Particle)
 Thermal correction to Energy=                    0.202871
 Thermal correction to Enthalpy=                  0.203815
 Thermal correction to Gibbs Free Energy=         0.130661
 Sum of electronic and zero-point Energies=          -1935.490613
 Sum of electronic and thermal Energies=             -1935.471029
 Sum of electronic and thermal Enthalpies=           -1935.470085
 Sum of electronic and thermal Free Energies=        -1935.543239

                     E (Thermal)             CV                S
                      KCal/Mol        Cal/Mol-Kelvin    Cal/Mol-Kelvin
 Total                  127.303             73.686            153.966
 Electronic               0.000              0.000              0.000
 Translational            0.889              2.981             43.585
 Rotational               0.889              2.981             35.615
 Vibrational            125.526             67.724             74.765
 Vibration     1          0.593              1.987              8.261
 Vibration     2          0.593              1.987              7.841
 Vibration     3          0.593              1.986              6.627
 Vibration     4          0.598              1.969              4.209
 Vibration     5          0.598              1.968              4.120
 Vibration     6          0.600              1.963              3.920
 Vibration     7          0.608              1.935              3.151
 Vibration     8          0.610              1.928              3.027
 Vibration     9          0.613              1.919              2.889
 Vibration    10          0.626              1.878              2.422
 Vibration    11          0.632              1.859              2.268
 Vibration    12          0.645              1.819              2.003
 Vibration    13          0.646              1.815              1.983
 Vibration    14          0.669              1.744              1.654
 Vibration    15          0.673              1.731              1.605
 Vibration    16          0.700              1.651              1.353
 Vibration    17          0.711              1.621              1.274
 Vibration    18          0.744              1.530              1.071
 Vibration    19          0.749              1.516              1.045
 Vibration    20          0.767              1.467              0.957
 Vibration    21          0.777              1.440              0.913
 Vibration    22          0.783              1.427              0.892
 Vibration    23          0.799              1.384              0.828
 Vibration    24          0.818              1.339              0.766
 Vibration    25          0.823              1.326              0.750
 Vibration    26          0.842              1.282              0.695
 Vibration    27          0.853              1.255              0.663
 Vibration    28          0.872              1.213              0.618
 Vibration    29          0.882              1.190              0.593
 Vibration    30          0.897              1.157              0.561
 Vibration    31          0.941              1.066              0.478
 Vibration    32          0.961              1.026              0.445

                           ! Non-Optimized Parameters !
 Normal termination of Gaussian 16 at Mon Jan  8 18:53:59 2024.
