 Q-Chem 5.4, Q-Chem, Inc., Pleasanton, CA (2021)
 Q-Chem 5.4.0 for Intel X86 EM64T Linux

User input:
--------------------------------------------------------------
$molecule
0 1
C                 -2.9257610000      0.4240760000      0.5253280000
C                 -1.9615580000     -0.4075160000     -0.3432730000
C                 -2.3003100000     -0.3340310000     -1.8451040000
C                 -0.4969260000     -0.1141820000     -0.0507270000
C                  0.1766170000      1.0371550000     -0.2414990000
Br                -0.6101400000      2.6238350000     -0.9568040000
C                  1.6296670000      1.2137180000      0.0851590000
O                  2.1965150000      2.2697790000     -0.1037080000
C                  2.3833730000      0.0488070000      0.6569730000
C                  1.7185560000     -1.1031030000      0.8497410000
Br                 2.5854990000     -2.6369520000      1.5683380000
C                  0.2732070000     -1.2838160000      0.5268130000
O                 -0.2782250000     -2.3471100000      0.7222150000
C                  3.8331890000      0.2625170000      0.9714010000
H                 -2.9044210000      1.4849840000      0.2757890000
H                 -2.6912330000      0.3158430000      1.5874900000
H                 -3.9458590000      0.0612540000      0.3721540000
H                 -2.0962640000     -1.4477030000     -0.0461180000
H                 -2.2397940000      0.6807680000     -2.2385370000
H                 -1.6317960000     -0.9703950000     -2.4307900000
H                 -3.3208960000     -0.6955750000     -1.9980560000
H                  4.4536240000     -0.4408990000      0.4093250000
H                  4.1280060000      1.2797120000      0.7235010000
H                  4.0249320000      0.0788340000      2.0321450000
$end
$rem
MAX_SCF_CYCLES=200
BASIS  =  6-311++G(d,p)
GUI  =  2
JOB_TYPE  =  SP
METHOD  =  B3LYP
SOLVENT_METHOD = PCM
$end
$pcm
theory = CPCM
$end
$solvent
dielectric 37.219
opticaldielectric 1.43
$end

--------------------------------------------------------------

             Standard Nuclear Orientation (Angstroms)
    I     Atom           X                Y                Z
 ----------------------------------------------------------------
    1      C      -2.9257610000     0.4240760000     0.5253280000
    2      C      -1.9615580000    -0.4075160000    -0.3432730000
    3      C      -2.3003100000    -0.3340310000    -1.8451040000
    4      C      -0.4969260000    -0.1141820000    -0.0507270000
    5      C       0.1766170000     1.0371550000    -0.2414990000
    6      Br     -0.6101400000     2.6238350000    -0.9568040000
    7      C       1.6296670000     1.2137180000     0.0851590000
    8      O       2.1965150000     2.2697790000    -0.1037080000
    9      C       2.3833730000     0.0488070000     0.6569730000
   10      C       1.7185560000    -1.1031030000     0.8497410000
   11      Br      2.5854990000    -2.6369520000     1.5683380000
   12      C       0.2732070000    -1.2838160000     0.5268130000
   13      O      -0.2782250000    -2.3471100000     0.7222150000
   14      C       3.8331890000     0.2625170000     0.9714010000
   15      H      -2.9044210000     1.4849840000     0.2757890000
   16      H      -2.6912330000     0.3158430000     1.5874900000
   17      H      -3.9458590000     0.0612540000     0.3721540000
   18      H      -2.0962640000    -1.4477030000    -0.0461180000
   19      H      -2.2397940000     0.6807680000    -2.2385370000
   20      H      -1.6317960000    -0.9703950000    -2.4307900000
   21      H      -3.3208960000    -0.6955750000    -1.9980560000
   22      H       4.4536240000    -0.4408990000     0.4093250000
   23      H       4.1280060000     1.2797120000     0.7235010000
   24      H       4.0249320000     0.0788340000     2.0321450000
 ----------------------------------------------------------------

    9   -5685.9508872110      2.97e-06  Convergence criterion met
 Total energy in the final basis set =    -5685.9508872110

                    Orbital Energies (a.u.)
 --------------------------------------------------------------

 Alpha MOs
 -- Occupied --
********-482.8467 -62.5020 -62.4996 -56.3225 -56.3202 -56.3188 -56.3183
-56.3164 -56.3159 -19.1532 -19.1530 -10.3046 -10.3042 -10.2639 -10.2617
-10.2343 -10.2327 -10.1925 -10.1791 -10.1618 -10.1618  -8.7108  -8.7085
 -6.5424  -6.5402  -6.5297  -6.5284  -6.5273  -6.5261  -2.6534  -2.6511
 -2.6499  -2.6488  -2.6476  -2.6466  -2.6388  -2.6388  -2.6364  -2.6364
 -1.0905  -1.0887  -0.8942  -0.8635  -0.8091  -0.8003  -0.7708  -0.7176
 -0.6958  -0.6899  -0.6299  -0.6048  -0.5779  -0.5501  -0.5016  -0.4834
 -0.4756  -0.4628  -0.4497  -0.4414  -0.4372  -0.4311  -0.4248  -0.4198
 -0.4113  -0.3936  -0.3927  -0.3673  -0.3575  -0.3466  -0.3424  -0.3401
 -0.3104  -0.3081  -0.2992  -0.2922  -0.2880  -0.2701

          Ground-State Mulliken Net Atomic Charges

     Atom                 Charge (a.u.)
  ----------------------------------------
      1 C                    -0.712361
      2 C                     0.283731
      3 C                    -0.714211
      4 C                     1.254945
      5 C                     0.289900
      6 Br                   -0.039740
      7 C                    -1.379779
      8 O                    -0.192466
      9 C                     0.908449
     10 C                     0.179734
     11 Br                   -0.152950
     12 C                    -1.067262
     13 O                    -0.183056
     14 C                    -0.285367
     15 H                     0.156795
     16 H                     0.163831
     17 H                     0.170476
     18 H                     0.229941
     19 H                     0.156684
     20 H                     0.163835
     21 H                     0.170417
     22 H                     0.198761
     23 H                     0.200897
     24 H                     0.198794
  ----------------------------------------
  Sum of atomic charges =     0.000000

                    Cartesian Multipole Moments
 -----------------------------------------------------------------
    Charge (ESU x 10^10)
                 0.0000
    Dipole Moment (Debye)
         X      -0.1902      Y      -0.2131      Z       0.0179
       Tot       0.2862
    Quadrupole Moments (Debye-Ang)
        XX     -98.4388     XY      -6.3621     YY    -124.7291
        XZ       4.1803     YZ       4.1333     ZZ    -106.8011

 Total job time:  38.84s(wall), 293.83s(cpu)
        *  Thank you very much for using Q-Chem.  Have a nice day.  *
