 Gaussian 16, Revision A.03,
 Gaussian 16:  ES64L-G16RevA.03 25-Dec-2016

 ----------------------------------------------------------------------
 #P UB3LYP/6-311++G(d,p) nosym opt freq SCRF=(PCM,Solvent=n,n-DiMethylF
 ormamide)
 ----------------------------------------------------------------------

 -------
 Radical
 -------
 Symbolic Z-matrix:
 Charge = -1 Multiplicity = 2

 SCF Done:  E(UB3LYP) =  -842.770569059     A.U. after   19 cycles
 SCF Done:  E(UB3LYP) =  -842.770771387     A.U. after   15 cycles
 SCF Done:  E(UB3LYP) =  -842.770794259     A.U. after   15 cycles
 SCF Done:  E(UB3LYP) =  -842.770808109     A.U. after   12 cycles
 SCF Done:  E(UB3LYP) =  -842.770809727     A.U. after   11 cycles
 SCF Done:  E(UB3LYP) =  -842.770810153     A.U. after   10 cycles
 Optimization completed.
    -- Stationary point found.
 Normal termination of Gaussian 16 at Sat Feb 10 16:40:49 2024.

 ----------------------------------------------------------------------
 #P Geom=AllCheck Guess=TCheck SCRF=Check GenChk UB3LYP/6-311++G(d,p) F
 req
 ----------------------------------------------------------------------

 Structure from the checkpoint file:  "133-rad.chk"
 -------
 Radical
 -------
 Charge = -1 Multiplicity = 2

                          Input orientation:
 ---------------------------------------------------------------------
 Center     Atomic      Atomic             Coordinates (Angstroms)
 Number     Number       Type             X           Y           Z
 ---------------------------------------------------------------------
      1          8           0        1.532454   -3.072756    0.083513
      2          6           0        1.298199   -1.832374    0.044136
      3          6           0        2.386330   -0.859840   -0.006660
      4          6           0        3.727975   -1.298115   -0.014906
      5          6           0        4.771567   -0.393498   -0.062550
      6          6           0        4.497749    0.987739   -0.102890
      7          6           0        3.188929    1.433848   -0.095187
      8          6           0        2.107346    0.527689   -0.047468
      9          6           0        0.730659    1.054742   -0.041910
     10          8           0        0.562349    2.306360   -0.076834
     11          6           0       -0.363576    0.087565    0.004499
     12          6           0       -1.767066    0.492158    0.010170
     13          6           0       -2.205511    1.844124   -0.032933
     14          6           0       -3.549356    2.175734   -0.024795
     15          6           0       -4.538959    1.179866    0.027209
     16          6           0       -4.153793   -0.144451    0.068832
     17          6           0       -2.788656   -0.513257    0.061125
     18          6           0       -2.423935   -1.894476    0.103391
     19          6           0       -1.114997   -2.265939    0.095664
     20          6           0       -0.062229   -1.306154    0.046876
     21          1           0        3.916890   -2.364193    0.016961
     22          1           0        5.798050   -0.743812   -0.068673
     23          1           0        5.314371    1.700707   -0.140201
     24          1           0        2.965238    2.492716   -0.125903
     25          1           0       -1.457744    2.618826   -0.072658
     26          1           0       -3.838251    3.221017   -0.058941
     27          1           0       -5.589612    1.448297    0.033780
     28          1           0       -4.899814   -0.931906    0.108465
     29          1           0       -3.211866   -2.639979    0.141236
     30          1           0       -0.832738   -3.310641    0.126655
 ---------------------------------------------------------------------

 SCF Done:  E(UB3LYP) =  -842.770810153     A.U. after    1 cycles

 Alpha  occ. eigenvalues --  -19.07744 -19.07461 -10.22773 -10.22544 -10.18718
 Alpha  occ. eigenvalues --  -10.18324 -10.17997 -10.17500 -10.17483 -10.17436
 Alpha  occ. eigenvalues --  -10.17389 -10.17384 -10.17316 -10.17252 -10.17162
 Alpha  occ. eigenvalues --  -10.17140 -10.17092 -10.17054 -10.16818 -10.16304
 Alpha  occ. eigenvalues --   -1.00260  -0.99990  -0.87305  -0.85840  -0.82515
 Alpha  occ. eigenvalues --   -0.78634  -0.76190  -0.75097  -0.74280  -0.72052
 Alpha  occ. eigenvalues --   -0.67109  -0.63816  -0.62522  -0.60546  -0.59230
 Alpha  occ. eigenvalues --   -0.55790  -0.54681  -0.51800  -0.49953  -0.49278
 Alpha  occ. eigenvalues --   -0.47098  -0.46376  -0.45245  -0.43695  -0.42811
 Alpha  occ. eigenvalues --   -0.42602  -0.42465  -0.41782  -0.40605  -0.40134
 Alpha  occ. eigenvalues --   -0.39631  -0.38721  -0.37964  -0.37586  -0.35552
 Alpha  occ. eigenvalues --   -0.35284  -0.34356  -0.33989  -0.33177  -0.32252
 Alpha  occ. eigenvalues --   -0.28432  -0.26333  -0.25712  -0.24965  -0.24549
 Alpha  occ. eigenvalues --   -0.23410  -0.22453  -0.14765
 Alpha virt. eigenvalues --   -0.05327  -0.03951  -0.01324  -0.00337   0.00233
 Alpha virt. eigenvalues --    0.00290   0.00964   0.01752   0.02041   0.03402
 Alpha virt. eigenvalues --    0.03605   0.03841   0.04268   0.04703   0.05397

  Beta  occ. eigenvalues --  -19.07172 -19.06931 -10.22607 -10.22389 -10.18725
  Beta  occ. eigenvalues --  -10.18317 -10.17886 -10.17444 -10.17404 -10.17355
  Beta  occ. eigenvalues --  -10.17345 -10.17336 -10.17297 -10.17233 -10.17154
  Beta  occ. eigenvalues --  -10.17076 -10.17053 -10.17045 -10.16856 -10.16288
  Beta  occ. eigenvalues --   -0.99298  -0.99008  -0.87163  -0.85680  -0.82315
  Beta  occ. eigenvalues --   -0.78337  -0.76042  -0.74922  -0.74135  -0.71895
  Beta  occ. eigenvalues --   -0.66381  -0.63669  -0.62312  -0.60449  -0.59154
  Beta  occ. eigenvalues --   -0.55573  -0.54483  -0.51662  -0.49856  -0.49139
  Beta  occ. eigenvalues --   -0.46850  -0.46271  -0.45163  -0.43591  -0.42716
  Beta  occ. eigenvalues --   -0.42557  -0.41530  -0.41286  -0.40418  -0.39910
  Beta  occ. eigenvalues --   -0.39385  -0.38303  -0.37470  -0.35812  -0.35470
  Beta  occ. eigenvalues --   -0.34557  -0.34277  -0.33898  -0.33056  -0.31445
  Beta  occ. eigenvalues --   -0.27691  -0.25214  -0.24825  -0.24332  -0.24032
  Beta  occ. eigenvalues --   -0.22927  -0.21785
  Beta virt. eigenvalues --   -0.08996  -0.04565  -0.03119  -0.01020  -0.00325
  Beta virt. eigenvalues --    0.00291   0.00701   0.00971   0.01764   0.02043
  Beta virt. eigenvalues --    0.03409   0.03610   0.04284   0.04302   0.04850

 Mulliken charges and spin densities:
               1          2
     1  O   -0.446451   0.211976
     2  C   -0.755581   0.088272
     3  C    0.162941   0.009766
     4  C   -0.064214   0.026174
     5  C   -0.472267   0.021815
     6  C   -0.456094   0.028132
     7  C    0.011053   0.019665
     8  C    0.202626   0.003740
     9  C   -0.572000   0.099943
    10  O   -0.414022   0.201117
    11  C    0.651126   0.090130
    12  C    0.913836   0.005099
    13  C   -0.593965   0.012236
    14  C   -0.543499   0.009252
    15  C   -0.316976   0.013960
    16  C   -0.458363   0.009616
    17  C    0.474407  -0.005061
    18  C   -0.488823   0.084087
    19  C   -0.232766  -0.011582
    20  C    0.702829   0.101100
    21  H    0.164395  -0.001943
    22  H    0.182497  -0.001964
    23  H    0.183700  -0.002342
    24  H    0.161772  -0.001462
    25  H    0.149960  -0.003940
    26  H    0.189892  -0.000878
    27  H    0.179674  -0.000967
    28  H    0.150921  -0.001664
    29  H    0.169535  -0.004830
    30  H    0.163855   0.000553
 Sum of Mulliken charges =  -1.00000   1.00000

 Dipole moment (field-independent basis, Debye):
    X=             -3.6753    Y=              1.7369    Z=             -0.0349  Tot=              4.0652
 Quadrupole moment (field-independent basis, Debye-Ang):
   XX=           -116.9011   YY=           -146.7605   ZZ=           -124.5107
   XY=              9.6451   XZ=             -0.4751   YZ=              0.5554

  Exact polarizability: 615.793 -39.099 419.138  -5.720  -8.319 155.834
 Approx polarizability: 617.415 -39.520 511.240  -5.392 -10.612 180.198

                      1                      2                      3
                      A                      A                      A
 Frequencies --     42.1527                55.5386               109.0954
 Red. masses --      7.1496                 4.9745                 5.5084
 Frc consts  --      0.0075                 0.0090                 0.0386
 IR Inten    --      9.1468                 2.3214                 5.8908

                      4                      5                      6
                      A                      A                      A
 Frequencies --    129.3185               179.1162               181.4776
 Red. masses --      4.7223                 5.3192                 6.0103
 Frc consts  --      0.0465                 0.1005                 0.1166
 IR Inten    --      0.1912                 5.5688                 0.8642

                      7                      8                      9
                      A                      A                      A
 Frequencies --    216.2890               275.6152               290.8266
 Red. masses --      4.5372                 5.1104                 6.0073
 Frc consts  --      0.1251                 0.2287                 0.2994
 IR Inten    --      4.3578                 0.2401                 5.0460

                     10                     11                     12
                      A                      A                      A
 Frequencies --    317.8983               360.4740               396.6752
 Red. masses --      8.3662                 7.1000                11.3359
 Frc consts  --      0.4981                 0.5436                 1.0509
 IR Inten    --      0.0602                 0.5640                24.6354

                     13                     14                     15
                      A                      A                      A
 Frequencies --    403.0725               437.3328               444.1465
 Red. masses --      4.1035                 3.5283                 5.8961
 Frc consts  --      0.3928                 0.3976                 0.6853
 IR Inten    --      0.9838                 0.8253                13.3760

                     16                     17                     18
                      A                      A                      A
 Frequencies --    446.9143               486.9869               515.0808
 Red. masses --      4.1197                11.9462                 3.7948
 Frc consts  --      0.4848                 1.6692                 0.5932
 IR Inten    --      2.6219                 0.8403                 0.2882

                     19                     20                     21
                      A                      A                      A
 Frequencies --    531.8023               538.3835               564.4341
 Red. masses --      3.4400                 7.0797                 7.0067
 Frc consts  --      0.5732                 1.2091                 1.3152
 IR Inten    --     33.5202                 2.8014                16.3615

                     22                     23                     24
                      A                      A                      A
 Frequencies --    613.6623               638.1865               670.4399
 Red. masses --      4.2399                 6.8751                 6.6845
 Frc consts  --      0.9407                 1.6498                 1.7703
 IR Inten    --      0.3734                31.6123                 4.2669

                     25                     26                     27
                      A                      A                      A
 Frequencies --    681.7314               696.9095               710.6427
 Red. masses --      6.9347                 4.3067                 2.2100
 Frc consts  --      1.8989                 1.2324                 0.6576
 IR Inten    --      2.3608                 3.0623                49.2878

                     28                     29                     30
                      A                      A                      A
 Frequencies --    752.6594               761.2240               770.2881
 Red. masses --      6.3978                 1.6400                 2.3851
 Frc consts  --      2.1354                 0.5599                 0.8338
 IR Inten    --      1.7182                72.3072                79.3649

                     31                     32                     33
                      A                      A                      A
 Frequencies --    795.0135               803.9687               809.4972
 Red. masses --      1.8650                 4.5348                 5.9418
 Frc consts  --      0.6945                 1.7270                 2.2940
 IR Inten    --      2.1528                 3.2312                18.3566

                     34                     35                     36
                      A                      A                      A
 Frequencies --    838.7514               867.5943               885.7771
 Red. masses --      1.5876                 5.6276                 1.5081
 Frc consts  --      0.6580                 2.4958                 0.6972
 IR Inten    --     73.8362                 7.2956                 3.3936

                     37                     38                     39
                      A                      A                      A
 Frequencies --    890.4565               918.2286               975.4528
 Red. masses --      1.4680                 6.7192                 1.3458
 Frc consts  --      0.6858                 3.3379                 0.7545
 IR Inten    --      0.0438                 2.6077                 5.3710

                     40                     41                     42
                      A                      A                      A
 Frequencies --    990.6630               998.7987              1002.4976
 Red. masses --      1.3657                 6.1681                 1.3030
 Frc consts  --      0.7897                 3.6254                 0.7715
 IR Inten    --      2.6429                31.4442                 0.1526

                     43                     44                     45
                      A                      A                      A
 Frequencies --   1004.4171              1006.0099              1041.9598
 Red. masses --      1.2921                 1.2815                 2.0400
 Frc consts  --      0.7680                 0.7642                 1.3049
 IR Inten    --      0.1144                 1.9636                47.7445

                     46                     47                     48
                      A                      A                      A
 Frequencies --   1056.9368              1081.9477              1115.0887
 Red. masses --      2.1192                 3.7479                 1.9804
 Frc consts  --      1.3948                 2.5849                 1.4509
 IR Inten    --     18.9931                 1.9470                22.4060

                     49                     50                     51
                      A                      A                      A
 Frequencies --   1146.7343              1161.2778              1170.7344
 Red. masses --      1.4231                 1.2267                 1.3303
 Frc consts  --      1.1026                 0.9747                 1.0742
 IR Inten    --     30.6586                 9.7233                10.3749

                     52                     53                     54
                      A                      A                      A
 Frequencies --   1172.2888              1199.2837              1219.9754
 Red. masses --      1.5417                 2.2145                 2.2499
 Frc consts  --      1.2483                 1.8766                 1.9729
 IR Inten    --      8.1452                15.5497                56.2953

                     55                     56                     57
                      A                      A                      A
 Frequencies --   1225.2174              1245.3719              1281.4033
 Red. masses --      2.5680                 2.1764                 1.8552
 Frc consts  --      2.2713                 1.9888                 1.7948
 IR Inten    --     12.4350               132.2867                95.0736

                     58                     59                     60
                      A                      A                      A
 Frequencies --   1294.5275              1351.8846              1362.3742
 Red. masses --      3.0176                 6.6168                 9.5991
 Frc consts  --      2.9794                 7.1249                10.4972
 IR Inten    --    122.2439                65.2517                 8.0652

                     61                     62                     63
                      A                      A                      A
 Frequencies --   1372.6927              1388.2392              1429.2331
 Red. masses --      4.5696                 4.1793                 2.1365
 Frc consts  --      5.0732                 4.7455                 2.5714
 IR Inten    --    305.0224                89.4266               558.9300

                     64                     65                     66
                      A                      A                      A
 Frequencies --   1459.3047              1475.6785              1480.1309
 Red. masses --      2.5194                 2.8241                 2.8204
 Frc consts  --      3.1611                 3.6234                 3.6405
 IR Inten    --     80.4600               100.0689                20.1519

                     67                     68                     69
                      A                      A                      A
 Frequencies --   1502.4737              1515.9209              1541.8867
 Red. masses --      3.7517                 5.1524                 4.4920
 Frc consts  --      4.9899                 6.9761                 6.2921
 IR Inten    --    617.0326               308.5524               149.3814

                     70                     71                     72
                      A                      A                      A
 Frequencies --   1564.5862              1605.2608              1625.2478
 Red. masses --      5.6696                 7.9476                 5.9044
 Frc consts  --      8.1771                12.0664                 9.1889
 IR Inten    --     71.7404                79.1002                 5.6066

                     73                     74                     75
                      A                      A                      A
 Frequencies --   1630.2248              1636.2050              3154.1951
 Red. masses --      5.8204                 6.0553                 1.0863
 Frc consts  --      9.1137                 9.5513                 6.3678
 IR Inten    --      4.0082                 5.7133                 1.9248

                     76                     77                     78
                      A                      A                      A
 Frequencies --   3158.5997              3159.9473              3162.7077
 Red. masses --      1.0885                 1.0863                 1.0902
 Frc consts  --      6.3982                 6.3910                 6.4250
 IR Inten    --     14.7449                11.0305                49.1063

                     79                     80                     81
                      A                      A                      A
 Frequencies --   3174.4364              3180.6510              3193.7060
 Red. masses --      1.0912                 1.0966                 1.0915
 Frc consts  --      6.4787                 6.5360                 6.5597
 IR Inten    --     29.7726                66.5663                14.3845

                     82                     83                     84
                      A                      A                      A
 Frequencies --   3194.7288              3196.7416              3243.6543
 Red. masses --      1.0924                 1.0935                 1.0913
 Frc consts  --      6.5692                 6.5841                 6.7650
 IR Inten    --     36.2757                34.5645                29.5466

 - Thermochemistry -
 -------------------
 Temperature   298.150 Kelvin.  Pressure   1.00000 Atm.
 Atom     1 has atomic number  8 and mass  15.99491

 Molecular mass:   258.06808 amu.
 Principal axes and moments of inertia in atomic units:
                           1         2         3
     Eigenvalues --  2284.165617373.027849657.17185
           X            0.99299   0.11724   0.01509
           Y           -0.11769   0.99247   0.03395
           Z           -0.01100  -0.03549   0.99931
 This molecule is an asymmetric top.
 Rotational symmetry number  1.
 Warning -- assumption of classical behavior for rotation
           may cause significant error
 Rotational temperatures (Kelvin)      0.03792     0.01175     0.00897
 Rotational constants (GHZ):           0.79011     0.24478     0.18688
 Zero-point vibrational energy     587240.6 (Joules/Mol)
                                  140.35387 (Kcal/Mol)
 Warning -- explicit consideration of  22 degrees of freedom as
           vibrations may cause significant error
 Vibrational temperatures:     60.65    79.91   156.96   186.06   257.71
          (Kelvin)            261.11   311.19   396.55   418.43   457.38
                              518.64   570.73   579.93   629.22   639.03
                              643.01   700.67   741.09   765.14   774.61
                              812.09   882.92   918.21   964.61   980.86
                             1002.70  1022.46  1082.91  1095.23  1108.27
                             1143.85  1156.73  1164.69  1206.78  1248.27
                             1274.44  1281.17  1321.13  1403.46  1425.34
                             1437.05  1442.37  1445.13  1447.42  1499.15
                             1520.70  1556.68  1604.36  1649.89  1670.82
                             1684.43  1686.66  1725.50  1755.27  1762.81
                             1791.81  1843.65  1862.54  1945.06  1960.15
                             1975.00  1997.37  2056.35  2099.61  2123.17
                             2129.58  2161.72  2181.07  2218.43  2251.09
                             2309.61  2338.37  2345.53  2354.13  4538.18
                             4544.52  4546.46  4550.43  4567.31  4576.25
                             4595.03  4596.50  4599.40  4666.90

 Zero-point correction=                           0.223668 (Hartree/Particle)
 Thermal correction to Energy=                    0.237521
 Thermal correction to Enthalpy=                  0.238465
 Thermal correction to Gibbs Free Energy=         0.182163
 Sum of electronic and zero-point Energies=           -842.547142
 Sum of electronic and thermal Energies=              -842.533289
 Sum of electronic and thermal Enthalpies=            -842.532345
 Sum of electronic and thermal Free Energies=         -842.588647

                     E (Thermal)             CV                S
                      KCal/Mol        Cal/Mol-Kelvin    Cal/Mol-Kelvin
 Total                  149.047             57.812            118.498
 Electronic               0.000              0.000              1.377
 Translational            0.889              2.981             42.544
 Rotational               0.889              2.981             33.453
 Vibrational            147.269             51.851             41.124
 Vibration     1          0.595              1.980              5.155
 Vibration     2          0.596              1.975              4.610
 Vibration     3          0.606              1.942              3.285
 Vibration     4          0.612              1.924              2.956
 Vibration     5          0.629              1.868              2.338
 Vibration     6          0.630              1.865              2.313
 Vibration     7          0.645              1.816              1.990
 Vibration     8          0.677              1.718              1.561
 Vibration     9          0.687              1.691              1.469
 Vibration    10          0.704              1.639              1.321
 Vibration    11          0.735              1.554              1.120
 Vibration    12          0.763              1.477              0.975
 Vibration    13          0.768              1.463              0.951
 Vibration    14          0.798              1.389              0.835
 Vibration    15          0.804              1.374              0.814
 Vibration    16          0.806              1.368              0.805
 Vibration    17          0.843              1.279              0.691
 Vibration    18          0.870              1.217              0.621
 Vibration    19          0.887              1.180              0.583
 Vibration    20          0.893              1.165              0.569
 Vibration    21          0.920              1.108              0.515
 Vibration    22          0.973              1.003              0.427

                           ! Non-Optimized Parameters !
 Normal termination of Gaussian 16 at Sat Feb 10 18:22:33 2024.
