 Gaussian 16, Revision A.03,
 Gaussian 16:  ES64L-G16RevA.03 25-Dec-2016

 --------------------------------------
 #P UB3LYP/6-311++G(d,p) nosym opt freq
 --------------------------------------

 -------
 Reduced
 -------
 Symbolic Z-matrix:
 Charge = -2 Multiplicity = 1

 SCF Done:  E(UB3LYP) =  -1048.90528972     A.U. after   49 cycles
 SCF Done:  E(UB3LYP) =  -1048.93101351     A.U. after   35 cycles
 SCF Done:  E(UB3LYP) =  -1048.93556793     A.U. after   53 cycles
 SCF Done:  E(UB3LYP) =  -1048.93729504     A.U. after   35 cycles
 SCF Done:  E(UB3LYP) =  -1048.93742041     A.U. after   39 cycles
 SCF Done:  E(UB3LYP) =  -1048.93922692     A.U. after   48 cycles
 SCF Done:  E(UB3LYP) =  -1048.93941496     A.U. after   35 cycles
 SCF Done:  E(UB3LYP) =  -1048.93938459     A.U. after   48 cycles
 SCF Done:  E(UB3LYP) =  -1048.93947814     A.U. after   31 cycles
 SCF Done:  E(UB3LYP) =  -1048.93948015     A.U. after   44 cycles
 Optimization completed.
    -- Stationary point found.
 Normal termination of Gaussian 16 at Sat Jan  6 03:26:27 2024.

 ----------------------------------------------------------------------
 #P Geom=AllCheck Guess=TCheck SCRF=Check GenChk UB3LYP/6-311++G(d,p) F
 req
 ----------------------------------------------------------------------

 Structure from the checkpoint file:  "338-an.chk"
 -------
 Reduced
 -------
 Charge = -2 Multiplicity = 1

                          Input orientation:
 ---------------------------------------------------------------------
 Center     Atomic      Atomic             Coordinates (Angstroms)
 Number     Number       Type             X           Y           Z
 ---------------------------------------------------------------------
      1          8           0       -0.016953   -2.577131   -0.486583
      2          6           0       -0.008936   -1.328326   -0.154621
      3          6           0        1.222778   -0.619396    0.091748
      4          6           0        2.451003   -1.352595    0.097443
      5          6           0        3.649711   -0.788671    0.473658
      6          6           0        3.719261    0.575873    0.865301
      7          6           0        2.556852    1.335985    0.805557
      8          6           0        1.332048    0.784113    0.408638
      9         16           0        0.011540    1.952386    0.158741
     10          8           0        0.012501    2.476349   -1.302235
     11          6           0       -1.322199    0.800291    0.412889
     12          6           0       -2.538889    1.366960    0.813861
     13          6           0       -3.710335    0.621134    0.877171
     14          6           0       -3.658774   -0.744012    0.484805
     15          6           0       -2.468275   -1.322493    0.104669
     16          6           0       -1.231116   -0.604473    0.095428
     17          1           0        2.380535   -2.395877   -0.192386
     18          1           0        4.554147   -1.395765    0.478231
     19          1           0        4.658687    1.020640    1.182212
     20          1           0        2.589227    2.396456    1.050937
     21          1           0       -2.557521    2.427688    1.059588
     22          1           0       -4.643209    1.077300    1.197206
     23          1           0       -4.570571   -1.339976    0.491888
     24          1           0       -2.411512   -2.366461   -0.185694
 ---------------------------------------------------------------------

 SCF Done:  E(UB3LYP) =  -1048.93948015     A.U. after    2 cycles

 Alpha  occ. eigenvalues --  -88.68595 -18.81615 -18.77626  -9.94219  -9.94218
 Alpha  occ. eigenvalues --   -9.94023  -9.94021  -9.93864  -9.93643  -9.93642
 Alpha  occ. eigenvalues --   -9.93030  -9.93029  -9.92321  -9.92320  -9.91759
 Alpha  occ. eigenvalues --   -9.91757  -7.76102  -5.72369  -5.72267  -5.71742
 Alpha  occ. eigenvalues --   -0.73048  -0.69266  -0.61169  -0.60494  -0.53924
 Alpha  occ. eigenvalues --   -0.51071  -0.50716  -0.49104  -0.44345  -0.39524
 Alpha  occ. eigenvalues --   -0.37076  -0.34507  -0.33023  -0.29907  -0.28177
 Alpha  occ. eigenvalues --   -0.23932  -0.22144  -0.21965  -0.20794  -0.18897
 Alpha  occ. eigenvalues --   -0.18473  -0.17136  -0.16397  -0.15148  -0.14409
 Alpha  occ. eigenvalues --   -0.12752  -0.12274  -0.11157  -0.10746  -0.09886
 Alpha  occ. eigenvalues --   -0.08490  -0.07733  -0.02150  -0.02126  -0.00764
 Alpha  occ. eigenvalues --    0.00508   0.01025   0.02680   0.04352   0.13357
 Alpha virt. eigenvalues --    0.15070   0.15201   0.16932   0.17008   0.18636
 Alpha virt. eigenvalues --    0.19759   0.20662   0.20811   0.21577   0.22272
 Alpha virt. eigenvalues --    0.23227   0.24134   0.25299   0.25771   0.26039

  Beta  occ. eigenvalues --  -88.68595 -18.81615 -18.77626  -9.94219  -9.94218
  Beta  occ. eigenvalues --   -9.94023  -9.94021  -9.93864  -9.93643  -9.93642
  Beta  occ. eigenvalues --   -9.93030  -9.93029  -9.92321  -9.92320  -9.91759
  Beta  occ. eigenvalues --   -9.91757  -7.76102  -5.72369  -5.72267  -5.71742
  Beta  occ. eigenvalues --   -0.73048  -0.69266  -0.61169  -0.60494  -0.53924
  Beta  occ. eigenvalues --   -0.51071  -0.50716  -0.49104  -0.44345  -0.39524
  Beta  occ. eigenvalues --   -0.37076  -0.34507  -0.33023  -0.29907  -0.28177
  Beta  occ. eigenvalues --   -0.23932  -0.22144  -0.21965  -0.20794  -0.18897
  Beta  occ. eigenvalues --   -0.18473  -0.17136  -0.16397  -0.15148  -0.14409
  Beta  occ. eigenvalues --   -0.12752  -0.12274  -0.11157  -0.10746  -0.09886
  Beta  occ. eigenvalues --   -0.08490  -0.07733  -0.02150  -0.02126  -0.00764
  Beta  occ. eigenvalues --    0.00508   0.01025   0.02680   0.04352   0.13357
  Beta virt. eigenvalues --    0.15070   0.15201   0.16932   0.17008   0.18636
  Beta virt. eigenvalues --    0.19759   0.20662   0.20811   0.21577   0.22272
  Beta virt. eigenvalues --    0.23227   0.24134   0.25299   0.25771   0.26039

 Mulliken charges and spin densities:
               1          2
     1  O   -0.511745   0.000000
     2  C   -0.420355  -0.000000
     3  C    1.591191   0.000000
     4  C    0.033306   0.000000
     5  C   -0.285782   0.000000
     6  C    0.251593   0.000000
     7  C   -0.329174  -0.000000
     8  C   -1.127510  -0.000000
     9  S   -0.538396  -0.000000
    10  O   -0.341267   0.000000
    11  C   -1.128706  -0.000000
    12  C   -0.328736  -0.000000
    13  C    0.250924  -0.000000
    14  C   -0.286024  -0.000000
    15  C    0.033723   0.000000
    16  C    1.591669   0.000000
    17  H    0.157525   0.000000
    18  H   -0.049463  -0.000000
    19  H   -0.362154  -0.000000
    20  H    0.026421  -0.000000
    21  H    0.026321   0.000000
    22  H   -0.361493   0.000000
    23  H   -0.049303   0.000000
    24  H    0.157434  -0.000000
 Sum of Mulliken charges =  -2.00000   0.00000

 Dipole moment (field-independent basis, Debye):
    X=              0.0020    Y=             -0.3142    Z=              0.3832  Tot=              0.4956
 Quadrupole moment (field-independent basis, Debye-Ang):
   XX=           -183.9725   YY=           -154.2855   ZZ=           -130.9097
   XY=              0.1807   XZ=              0.0890   YZ=              1.7650

  Exact polarizability:********-200.159 879.819 -52.117 324.043 411.720
 Approx polarizability:4410.081 -20.695 832.669  -3.785 278.899 474.980

                      1                      2                      3
                      A                      A                      A
 Frequencies --     52.0003                99.3787               127.2174
 Red. masses --      6.7662                 3.7637                 7.2108
 Frc consts  --      0.0108                 0.0219                 0.0688
 IR Inten    --      1.0727               958.7683                 3.2240

                      4                      5                      6
                      A                      A                      A
 Frequencies --    152.7177               159.2251               227.6337
 Red. masses --      5.6874                 8.4890                 5.1926
 Frc consts  --      0.0782                 0.1268                 0.1585
 IR Inten    --     14.1798                75.1381                 3.5812

                      7                      8                      9
                      A                      A                      A
 Frequencies --    256.1068               292.1117               302.1145
 Red. masses --      7.9377                 9.0855                 7.0689
 Frc consts  --      0.3068                 0.4568                 0.3801
 IR Inten    --  17367.2277                16.7021               209.2258

                     10                     11                     12
                      A                      A                      A
 Frequencies --    341.6520               394.1232               403.3899
 Red. masses --      6.5547                 7.6770                 3.7754
 Frc consts  --      0.4508                 0.7026                 0.3620
 IR Inten    --     11.2708             12785.2013                43.6127

                     13                     14                     15
                      A                      A                      A
 Frequencies --    449.4885               455.0661               457.9144
 Red. masses --      3.0977                 9.6259                 9.8048
 Frc consts  --      0.3687                 1.1745                 1.2113
 IR Inten    --    375.4135                60.3054               100.6333

                     16                     17                     18
                      A                      A                      A
 Frequencies --    462.3765               518.0862               578.4936
 Red. masses --      4.9232                 7.1106                 6.9621
 Frc consts  --      0.6201                 1.1245                 1.3727
 IR Inten    --  19387.4479                 0.5318                45.6574

                     19                     20                     21
                      A                      A                      A
 Frequencies --    620.5113               627.1296               639.4046
 Red. masses --      3.9110                 3.6931                 1.8534
 Frc consts  --      0.8872                 0.8558                 0.4464
 IR Inten    --  42120.1825                35.5041             73819.4249

                     22                     23                     24
                      A                      A                      A
 Frequencies --    668.6588               697.8961               700.9230
 Red. masses --      6.1964                 1.3185                 2.7440
 Frc consts  --      1.6323                 0.3784                 0.7943
 IR Inten    --      5.5466               200.9141                 1.0370

                     25                     26                     27
                      A                      A                      A
 Frequencies --    719.5080               742.1538               766.3131
 Red. masses --      6.6203                 2.6708                 4.8784
 Frc consts  --      2.0193                 0.8667                 1.6879
 IR Inten    --    110.3914               190.3656                46.2922

                     28                     29                     30
                      A                      A                      A
 Frequencies --    794.0305               811.8579               884.2156
 Red. masses --      1.3989                 2.1641                 1.3664
 Frc consts  --      0.5197                 0.8404                 0.6294
 IR Inten    --   1464.3854               104.9936             23900.1473

                     31                     32                     33
                      A                      A                      A
 Frequencies --    892.6267               898.7082               922.2809
 Red. masses --      1.8375                 3.5645                 5.7767
 Frc consts  --      0.8626                 1.6962                 2.8951
 IR Inten    --    287.9962               208.7646              7233.0962

                     34                     35                     36
                      A                      A                      A
 Frequencies --    951.5054               960.0650               971.9775
 Red. masses --      1.5756                 1.2996                 2.2137
 Frc consts  --      0.8405                 0.7058                 1.2322
 IR Inten    --  36261.7968                16.0654             31924.1236

                     37                     38                     39
                      A                      A                      A
 Frequencies --    994.9716              1029.0118              1048.6085
 Red. masses --      3.1269                 2.5145                 3.5262
 Frc consts  --      1.8238                 1.5687                 2.2844
 IR Inten    --    264.5887               589.4806               106.9306

                     40                     41                     42
                      A                      A                      A
 Frequencies --   1092.1573              1111.0741              1144.9777
 Red. masses --      1.7168                 1.7880                 1.2514
 Frc consts  --      1.2065                 1.3005                 0.9666
 IR Inten    --  16778.0166                27.5828              7660.5296

                     43                     44                     45
                      A                      A                      A
 Frequencies --   1150.4194              1189.9652              1219.0119
 Red. masses --      1.1517                 2.6725                 1.7374
 Frc consts  --      0.8981                 2.2297                 1.5211
 IR Inten    --     66.1608                28.5576              3673.9893

                     46                     47                     48
                      A                      A                      A
 Frequencies --   1224.1297              1311.1036              1328.2661
 Red. masses --      2.2791                 3.5297                 3.3019
 Frc consts  --      2.0121                 3.5749                 3.4323
 IR Inten    --    692.6377             35242.4708               859.4621

                     49                     50                     51
                      A                      A                      A
 Frequencies --   1328.3715              1392.0167              1413.2206
 Red. masses --      5.2169                 5.7443                 2.1465
 Frc consts  --      5.4238                 6.5581                 2.5259
 IR Inten    --  14223.8706              1026.1716             30870.5834

                     52                     53                     54
                      A                      A                      A
 Frequencies --   1443.2233              1455.8836              1457.6874
 Red. masses --      2.6709                 2.8784                 2.9667
 Frc consts  --      3.2778                 3.5946                 3.7141
 IR Inten    --     93.7557               478.7881                45.4782

                     55                     56                     57
                      A                      A                      A
 Frequencies --   1500.0999              1507.7974              1568.8808
 Red. masses --      3.7712                 4.0557                 4.5140
 Frc consts  --      5.0000                 5.4325                 6.5462
 IR Inten    --     53.4731               342.1004             24403.5683

                     58                     59                     60
                      A                      A                      A
 Frequencies --   1576.1996              3094.7309              3095.0666
 Red. masses --      5.1310                 1.0840                 1.0844
 Frc consts  --      7.5106                 6.1171                 6.1204
 IR Inten    --    140.8551               217.0157               717.9953

                     61                     62                     63
                      A                      A                      A
 Frequencies --   3107.5275              3107.6416              3136.2549
 Red. masses --      1.0871                 1.0872                 1.0925
 Frc consts  --      6.1850                 6.1862                 6.3311
 IR Inten    --    139.8069                85.3279             13573.6355

                     64                     65                     66
                      A                      A                      A
 Frequencies --   3138.0181              3165.5344              3165.7315
 Red. masses --      1.0933                 1.0904                 1.0905
 Frc consts  --      6.3431                 6.4375                 6.4391
 IR Inten    --     44.7503                11.0872                53.2149

 - Thermochemistry -
 -------------------
 Temperature   298.150 Kelvin.  Pressure   1.00000 Atm.
 Atom     1 has atomic number  8 and mass  15.99491

 Molecular mass:   228.02450 amu.
 Principal axes and moments of inertia in atomic units:
                           1         2         3
     Eigenvalues --  2047.952154333.653085867.71415
           X            0.99998   0.00614   0.00138
           Y           -0.00610   0.99958  -0.02828
           Z           -0.00156   0.02827   0.99960
 This molecule is an asymmetric top.
 Rotational symmetry number  1.
 Warning -- assumption of classical behavior for rotation
           may cause significant error
 Rotational temperatures (Kelvin)      0.04229     0.01999     0.01476
 Rotational constants (GHZ):           0.88124     0.41645     0.30757
 Zero-point vibrational energy     439606.4 (Joules/Mol)
                                  105.06844 (Kcal/Mol)
 Warning -- explicit consideration of  19 degrees of freedom as
           vibrations may cause significant error
 Vibrational temperatures:     74.82   142.98   183.04   219.73   229.09
          (Kelvin)            327.51   368.48   420.28   434.68   491.56
                              567.06   580.39   646.71   654.74   658.84
                              665.26   745.41   832.32   892.78   902.30
                              919.96   962.05  1004.12  1008.47  1035.21
                             1067.79  1102.55  1142.43  1168.08  1272.19
                             1284.29  1293.04  1326.96  1369.00  1381.32
                             1398.46  1431.54  1480.52  1508.71  1571.37
                             1598.59  1647.37  1655.20  1712.09  1753.89
                             1761.25  1886.39  1911.08  1911.23  2002.80
                             2033.31  2076.48  2094.69  2097.29  2158.31
                             2169.38  2257.27  2267.80  4452.63  4453.11
                             4471.04  4471.20  4512.37  4514.91  4554.50
                             4554.78

 Zero-point correction=                           0.167437 (Hartree/Particle)
 Thermal correction to Energy=                    0.179937
 Thermal correction to Enthalpy=                  0.180881
 Thermal correction to Gibbs Free Energy=         0.128744
 Sum of electronic and zero-point Energies=          -1048.772043
 Sum of electronic and thermal Energies=             -1048.759543
 Sum of electronic and thermal Enthalpies=           -1048.758599
 Sum of electronic and thermal Free Energies=        -1048.810736

                     E (Thermal)             CV                S
                      KCal/Mol        Cal/Mol-Kelvin    Cal/Mol-Kelvin
 Total                  112.912             50.849            109.731
 Electronic               0.000              0.000              0.000
 Translational            0.889              2.981             42.175
 Rotational               0.889              2.981             32.321
 Vibrational            111.135             44.887             35.235
 Vibration     1          0.596              1.977              4.740
 Vibration     2          0.604              1.950              3.466
 Vibration     3          0.611              1.926              2.988
 Vibration     4          0.619              1.900              2.638
 Vibration     5          0.621              1.892              2.559
 Vibration     6          0.651              1.799              1.898
 Vibration     7          0.666              1.752              1.688
 Vibration     8          0.687              1.688              1.462
 Vibration     9          0.694              1.670              1.405
 Vibration    10          0.721              1.592              1.204
 Vibration    11          0.761              1.483              0.985
 Vibration    12          0.769              1.463              0.950
 Vibration    13          0.808              1.362              0.797
 Vibration    14          0.813              1.350              0.781
 Vibration    15          0.816              1.343              0.772
 Vibration    16          0.820              1.334              0.759
 Vibration    17          0.873              1.210              0.614
 Vibration    18          0.935              1.078              0.488
 Vibration    19          0.981              0.989              0.416

 Optimization completed.
    -- Stationary point found.
 Normal termination of Gaussian 16 at Sat Jan  6 04:12:37 2024.
