 Q-Chem 5.4, Q-Chem, Inc., Pleasanton, CA (2021)
 Q-Chem 5.4.0 for Intel X86 EM64T Linux

User input:
--------------------------------------------------------------
$molecule
-2 1
N                 -2.8040160000      1.4205720000      1.3358690000
C                 -2.4845300000      0.4919310000      0.3653500000
C                 -3.4370140000     -0.1999440000     -0.3579800000
Br                -5.3455770000      0.1262890000     -0.0090360000
C                 -3.1255950000     -1.2206660000     -1.2871560000
C                 -1.8132300000     -1.5843930000     -1.4266060000
Br                -1.5430770000     -2.8851680000     -2.8835690000
C                 -0.7310170000     -0.9711050000     -0.7229610000
C                  0.6349420000     -1.4424640000     -0.8219490000
O                  0.9787740000     -2.5283430000     -1.3923780000
C                  1.6344010000     -0.5640060000     -0.2287430000
C                  3.0034030000     -0.8926230000     -0.3764350000
C                  4.0076500000     -0.1106200000      0.1588020000
C                  3.6675370000      1.0576470000      0.8923640000
C                  2.3421550000      1.4015420000      1.0553510000
C                  1.2907210000      0.6191190000      0.5073640000
C                 -0.0762560000      1.0215640000      0.7223960000
O                 -0.3329660000      2.0869380000      1.4396040000
C                 -1.0799200000      0.1912600000      0.1175630000
H                 -1.9606400000      1.9929090000      1.5654430000
H                 -3.7024870000      1.8667740000      1.2271670000
H                 -3.8975700000     -1.6562600000     -1.9052860000
H                  3.2227780000     -1.7960000000     -0.9365210000
H                  5.0518040000     -0.3857370000      0.0216340000
H                  4.4511670000      1.6767960000      1.3259740000
H                  2.0485640000      2.2839870000      1.6137350000
$end
$rem
MAX_SCF_CYCLES=200
BASIS  =  6-311++G(d,p)
GUI  =  2
JOB_TYPE  =  SP
METHOD  =  B3LYP
SOLVENT_METHOD = PCM
$end
$pcm
theory = CPCM
$end
$solvent
dielectric 37.219
opticaldielectric 1.43
$end

--------------------------------------------------------------

             Standard Nuclear Orientation (Angstroms)
    I     Atom           X                Y                Z
 ----------------------------------------------------------------
    1      N      -2.8040160000     1.4205720000     1.3358690000
    2      C      -2.4845300000     0.4919310000     0.3653500000
    3      C      -3.4370140000    -0.1999440000    -0.3579800000
    4      Br     -5.3455770000     0.1262890000    -0.0090360000
    5      C      -3.1255950000    -1.2206660000    -1.2871560000
    6      C      -1.8132300000    -1.5843930000    -1.4266060000
    7      Br     -1.5430770000    -2.8851680000    -2.8835690000
    8      C      -0.7310170000    -0.9711050000    -0.7229610000
    9      C       0.6349420000    -1.4424640000    -0.8219490000
   10      O       0.9787740000    -2.5283430000    -1.3923780000
   11      C       1.6344010000    -0.5640060000    -0.2287430000
   12      C       3.0034030000    -0.8926230000    -0.3764350000
   13      C       4.0076500000    -0.1106200000     0.1588020000
   14      C       3.6675370000     1.0576470000     0.8923640000
   15      C       2.3421550000     1.4015420000     1.0553510000
   16      C       1.2907210000     0.6191190000     0.5073640000
   17      C      -0.0762560000     1.0215640000     0.7223960000
   18      O      -0.3329660000     2.0869380000     1.4396040000
   19      C      -1.0799200000     0.1912600000     0.1175630000
   20      H      -1.9606400000     1.9929090000     1.5654430000
   21      H      -3.7024870000     1.8667740000     1.2271670000
   22      H      -3.8975700000    -1.6562600000    -1.9052860000
   23      H       3.2227780000    -1.7960000000    -0.9365210000
   24      H       5.0518040000    -0.3857370000     0.0216340000
   25      H       4.4511670000     1.6767960000     1.3259740000
   26      H       2.0485640000     2.2839870000     1.6137350000
 ----------------------------------------------------------------

    9   -5891.6532920522      5.85e-06  Convergence criterion met
 Total energy in the final basis set =    -5891.6532920522

                    Orbital Energies (a.u.)
 --------------------------------------------------------------

 Alpha MOs
 -- Occupied --
********-482.8074 -62.4735 -62.4602 -56.2937 -56.2902 -56.2901 -56.2806
-56.2770 -56.2767 -19.0354 -19.0283 -14.2882 -10.2083 -10.2059 -10.1987
-10.1893 -10.1879 -10.1660 -10.1583 -10.1575 -10.1556 -10.1548 -10.1515
-10.1515 -10.1469 -10.1455  -8.6820  -8.6688  -6.5126  -6.5009  -6.5008
 -6.4997  -6.4880  -6.4870  -2.6237  -2.6203  -2.6201  -2.6110  -2.6109
 -2.6107  -2.6076  -2.6069  -2.5975  -2.5974  -0.9565  -0.9529  -0.9002
 -0.8404  -0.8313  -0.7931  -0.7742  -0.7440  -0.7297  -0.7112  -0.6955
 -0.6460  -0.6132  -0.6015  -0.5588  -0.5354  -0.5294  -0.4961  -0.4865
 -0.4586  -0.4470  -0.4324  -0.4263  -0.4195  -0.4038  -0.4003  -0.3889
 -0.3772  -0.3720  -0.3683  -0.3634  -0.3479  -0.3401  -0.3294  -0.3232
 -0.3157  -0.3098  -0.2965  -0.2877  -0.2754  -0.2689  -0.2357  -0.2342
 -0.2233  -0.2180  -0.2000  -0.1952  -0.1168

          Ground-State Mulliken Net Atomic Charges

     Atom                 Charge (a.u.)
  ----------------------------------------
      1 N                    -0.364450
      2 C                    -0.972101
      3 C                     0.689274
      4 Br                   -0.278130
      5 C                    -0.339363
      6 C                     0.162297
      7 Br                   -0.288056
      8 C                     0.725832
      9 C                    -1.087819
     10 O                    -0.555992
     11 C                     0.038723
     12 C                     0.035840
     13 C                    -0.463100
     14 C                    -0.565741
     15 C                     0.122888
     16 C                     0.140401
     17 C                    -0.337254
     18 O                    -0.626515
     19 C                     0.458268
     20 H                     0.336037
     21 H                     0.253195
     22 H                     0.244642
     23 H                     0.154182
     24 H                     0.178463
     25 H                     0.179343
     26 H                     0.159135
  ----------------------------------------
  Sum of atomic charges =    -2.000000

                    Cartesian Multipole Moments
 -----------------------------------------------------------------
    Charge (ESU x 10^10)
                -9.6064
    Dipole Moment (Debye)
         X       2.9069      Y       5.6869      Z       2.5540
       Tot       6.8785
    Quadrupole Moments (Debye-Ang)
        XX    -179.0504     XY       0.5610     YY    -183.4950
        XZ       0.9768     YZ     -25.0737     ZZ    -168.0802

 Total job time:  185.84s(wall), 440.09s(cpu)
        *  Thank you very much for using Q-Chem.  Have a nice day.  *
