 Gaussian 16, Revision A.03,
 Gaussian 16:  ES64L-G16RevA.03 25-Dec-2016

 ----------------------------------------------------------------
 #P UB3LYP/6-311++G(d,p) SCRF=(PCM,Solvent=n,n-DiMethylFormamide)
 ----------------------------------------------------------------

 -------
 Reduced
 -------
 Symbolic Z-matrix:
 Charge = -2 Multiplicity = 1

                         Standard orientation:
 ---------------------------------------------------------------------
 Center     Atomic      Atomic             Coordinates (Angstroms)
 Number     Number       Type             X           Y           Z
 ---------------------------------------------------------------------
      1          6           0        2.475148   -1.381379   -0.000636
      2          6           0        3.686699   -0.717276    0.004975
      3          6           0        3.686729    0.717343   -0.004819
      4          6           0        2.475199    1.381482   -0.000133
      5          6           0        1.223340    0.720002   -0.000588
      6          6           0        1.223337   -0.719894   -0.000619
      7          6           0        0.000011   -1.503535   -0.000387
      8          6           0       -1.223334   -0.719955   -0.000111
      9          6           0       -1.223326    0.719940   -0.000553
     10          6           0        0.000000    1.503582   -0.000824
     11          6           0       -2.475167   -1.381448    0.000485
     12          6           0       -3.686713   -0.717329   -0.004611
     13          6           0       -3.686692    0.717291    0.005316
     14          6           0       -2.475161    1.381418   -0.000359
     15          8           0        0.000047   -2.781000   -0.000361
     16          8           0       -0.000040    2.781048   -0.001034
     17          6           0       -4.988584   -1.486152    0.026829
     18          6           0       -4.988560    1.486125   -0.025613
     19          6           0        4.988485   -1.486249   -0.026107
     20          6           0        4.988613    1.486102    0.027903
     21          1           0        2.443744   -2.467264   -0.009777
     22          1           0        2.443815    2.467369    0.008953
     23          1           0       -2.443773   -2.467340    0.009606
     24          1           0       -2.443769    2.467304   -0.009396
     25          1           0       -4.801746   -2.562415   -0.028802
     26          1           0       -5.652100   -1.220683   -0.803704
     27          1           0       -5.566802   -1.298646    0.948722
     28          1           0       -5.652418    1.219479    0.804260
     29          1           0       -5.566382    1.299844   -0.948016
     30          1           0       -4.801746    2.562301    0.031524
     31          1           0        4.801485   -2.562478    0.029582
     32          1           0        5.651922   -1.220782    0.804486
     33          1           0        5.566889   -1.298978   -0.947936
     34          1           0        5.653423    1.219980   -0.801366
     35          1           0        5.565322    1.299186    0.950877
     36          1           0        4.801934    2.562340   -0.028729
 ---------------------------------------------------------------------

 SCF Done:  E(UB3LYP) =  -846.490767626     A.U. after   15 cycles

 The electronic state is 1-A.
 Alpha  occ. eigenvalues --  -19.01400 -19.01399 -10.16555 -10.16554 -10.15195
 Alpha  occ. eigenvalues --  -10.15195 -10.15195 -10.15195 -10.15081 -10.15081
 Alpha  occ. eigenvalues --  -10.15040 -10.15040 -10.13625 -10.13625 -10.13623
 Alpha  occ. eigenvalues --  -10.13623 -10.12622 -10.12621 -10.12582 -10.12582
 Alpha  occ. eigenvalues --   -0.93679  -0.93366  -0.82911  -0.82573  -0.76743
 Alpha  occ. eigenvalues --   -0.73949  -0.73845  -0.73811  -0.68130  -0.67654
 Alpha  occ. eigenvalues --   -0.67509  -0.64063  -0.60701  -0.58144  -0.55621
 Alpha  occ. eigenvalues --   -0.55404  -0.51720  -0.47769  -0.47232  -0.45099
 Alpha  occ. eigenvalues --   -0.42831  -0.41658  -0.41615  -0.41529  -0.41459
 Alpha  occ. eigenvalues --   -0.39661  -0.38869  -0.38422  -0.38405  -0.38001
 Alpha  occ. eigenvalues --   -0.37824  -0.36966  -0.36855  -0.36841  -0.36035
 Alpha  occ. eigenvalues --   -0.34884  -0.34400  -0.33540  -0.32028  -0.31762
 Alpha  occ. eigenvalues --   -0.30773  -0.30511  -0.29134  -0.28276  -0.22431
 Alpha  occ. eigenvalues --   -0.21575  -0.21363  -0.19968  -0.19698  -0.18845
 Alpha  occ. eigenvalues --   -0.09511
 Alpha virt. eigenvalues --   -0.01845  -0.00293   0.00083   0.01255   0.01321
 Alpha virt. eigenvalues --    0.01718   0.01985   0.02215   0.03593   0.03734
 Alpha virt. eigenvalues --    0.03837   0.04142   0.04193   0.04831   0.05360

  Beta  occ. eigenvalues --  -19.01400 -19.01399 -10.16555 -10.16554 -10.15195
  Beta  occ. eigenvalues --  -10.15195 -10.15195 -10.15195 -10.15081 -10.15081
  Beta  occ. eigenvalues --  -10.15040 -10.15040 -10.13625 -10.13625 -10.13623
  Beta  occ. eigenvalues --  -10.13623 -10.12622 -10.12621 -10.12582 -10.12582
  Beta  occ. eigenvalues --   -0.93679  -0.93366  -0.82911  -0.82573  -0.76743
  Beta  occ. eigenvalues --   -0.73949  -0.73845  -0.73811  -0.68130  -0.67654
  Beta  occ. eigenvalues --   -0.67509  -0.64063  -0.60701  -0.58144  -0.55621
  Beta  occ. eigenvalues --   -0.55404  -0.51720  -0.47769  -0.47232  -0.45099
  Beta  occ. eigenvalues --   -0.42831  -0.41658  -0.41615  -0.41529  -0.41459
  Beta  occ. eigenvalues --   -0.39661  -0.38869  -0.38422  -0.38405  -0.38001
  Beta  occ. eigenvalues --   -0.37824  -0.36966  -0.36855  -0.36841  -0.36035
  Beta  occ. eigenvalues --   -0.34884  -0.34400  -0.33540  -0.32028  -0.31762
  Beta  occ. eigenvalues --   -0.30773  -0.30511  -0.29134  -0.28276  -0.22431
  Beta  occ. eigenvalues --   -0.21575  -0.21363  -0.19968  -0.19698  -0.18845
  Beta  occ. eigenvalues --   -0.09511
  Beta virt. eigenvalues --   -0.01845  -0.00293   0.00083   0.01255   0.01321
  Beta virt. eigenvalues --    0.01718   0.01985   0.02215   0.03593   0.03734
  Beta virt. eigenvalues --    0.03837   0.04142   0.04193   0.04831   0.05360

 Mulliken charges and spin densities:
               1          2
     1  C   -0.279682   0.000000
     2  C    0.287721  -0.000000
     3  C    0.287839  -0.000000
     4  C   -0.279661  -0.000000
     5  C    0.154428   0.000000
     6  C    0.154397   0.000000
     7  C   -0.733644  -0.000000
     8  C    0.154188  -0.000000
     9  C    0.154192   0.000000
    10  C   -0.733355  -0.000000
    11  C   -0.279993   0.000000
    12  C    0.287482  -0.000000
    13  C    0.288217   0.000000
    14  C   -0.279672  -0.000000
    15  O   -0.649929  -0.000000
    16  O   -0.649954   0.000000
    17  C   -0.527075  -0.000000
    18  C   -0.527154  -0.000000
    19  C   -0.527057   0.000000
    20  C   -0.527427  -0.000000
    21  H    0.110019  -0.000000
    22  H    0.110048   0.000000
    23  H    0.110021   0.000000
    24  H    0.110043  -0.000000
    25  H    0.153504   0.000000
    26  H    0.141754  -0.000000
    27  H    0.151247  -0.000000
    28  H    0.141633  -0.000000
    29  H    0.151356  -0.000000
    30  H    0.153489   0.000000
    31  H    0.153498   0.000000
    32  H    0.141718   0.000000
    33  H    0.151302   0.000000
    34  H    0.141668  -0.000000
    35  H    0.151356  -0.000000
    36  H    0.153485  -0.000000
 Sum of Mulliken charges =  -2.00000   0.00000

 Dipole moment (field-independent basis, Debye):
    X=             -0.0004    Y=             -0.0005    Z=              0.0065  Tot=              0.0065
 Quadrupole moment (field-independent basis, Debye-Ang):
   XX=           -140.9575   YY=           -183.5841   ZZ=           -131.3448
   XY=              0.0006   XZ=              0.0052   YZ=              0.0087

 Normal termination of Gaussian 16 at Sun Jan 14 01:28:16 2024.
