 Gaussian 16, Revision A.03,
 Gaussian 16:  ES64L-G16RevA.03 25-Dec-2016

 --------------------------------------
 #P UB3LYP/6-311++G(d,p) nosym opt freq
 --------------------------------------

 --------
 Oxidized
 --------
 Symbolic Z-matrix:
 Charge =  0 Multiplicity = 1

 SCF Done:  E(UB3LYP) =  -893.429640164     A.U. after   20 cycles
 SCF Done:  E(UB3LYP) =  -893.464405562     A.U. after   18 cycles
 SCF Done:  E(UB3LYP) =  -893.483479379     A.U. after   17 cycles
 SCF Done:  E(UB3LYP) =  -893.495619612     A.U. after   17 cycles
 SCF Done:  E(UB3LYP) =  -893.498070905     A.U. after   16 cycles
 SCF Done:  E(UB3LYP) =  -893.497067984     A.U. after   15 cycles
 SCF Done:  E(UB3LYP) =  -893.498867651     A.U. after   14 cycles
 SCF Done:  E(UB3LYP) =  -893.498847864     A.U. after   14 cycles
 SCF Done:  E(UB3LYP) =  -893.499075398     A.U. after   14 cycles
 SCF Done:  E(UB3LYP) =  -893.499100552     A.U. after   13 cycles
 SCF Done:  E(UB3LYP) =  -893.499121527     A.U. after   13 cycles
 SCF Done:  E(UB3LYP) =  -893.499133469     A.U. after   13 cycles
 SCF Done:  E(UB3LYP) =  -893.499146867     A.U. after   14 cycles
 SCF Done:  E(UB3LYP) =  -893.499157488     A.U. after   14 cycles
 SCF Done:  E(UB3LYP) =  -893.499160233     A.U. after   13 cycles
 SCF Done:  E(UB3LYP) =  -893.499160579     A.U. after   12 cycles
 Optimization completed.
    -- Stationary point found.
 Normal termination of Gaussian 16 at Thu Dec 21 08:05:19 2023.

 ----------------------------------------------------------------------
 #P Geom=AllCheck Guess=TCheck SCRF=Check GenChk UB3LYP/6-311++G(d,p) F
 req
 ----------------------------------------------------------------------

 Structure from the checkpoint file:  "174.chk"
 --------
 Oxidized
 --------
 Charge =  0 Multiplicity = 1

                          Input orientation:
 ---------------------------------------------------------------------
 Center     Atomic      Atomic             Coordinates (Angstroms)
 Number     Number       Type             X           Y           Z
 ---------------------------------------------------------------------
      1          8           0        2.407324    2.903748   -1.130546
      2          7           0        2.652640    2.327039   -0.085882
      3          8           0        3.172705    2.813049    0.904264
      4          6           0        2.392834    0.862590   -0.054392
      5          6           0        3.517062    0.055147   -0.136956
      6          6           0        3.359012   -1.328576   -0.187678
      7          6           0        2.086807   -1.884000   -0.154513
      8          6           0        0.961372   -1.062342   -0.055567
      9          6           0       -0.390665   -1.709407   -0.041335
     10          8           0       -0.498580   -2.922100   -0.098223
     11          6           0       -1.581147   -0.820441    0.024190
     12          6           0       -2.859061   -1.386457   -0.023842
     13          6           0       -3.983668   -0.572789    0.039459
     14          6           0       -3.841823    0.812888    0.158324
     15          6           0       -2.575937    1.383428    0.215602
     16          6           0       -1.438914    0.572762    0.144122
     17          6           0       -0.096499    1.213112    0.220666
     18          8           0        0.031809    2.396492    0.471480
     19          6           0        1.098029    0.337205    0.008741
     20          1           0        4.500646    0.507386   -0.169547
     21          1           0        4.232596   -1.965543   -0.257222
     22          1           0        1.937277   -2.955197   -0.201326
     23          1           0       -2.945956   -2.462375   -0.110110
     24          1           0       -4.972741   -1.014281   -0.002023
     25          1           0       -4.720953    1.444984    0.208001
     26          1           0       -2.444169    2.453676    0.314315
 ---------------------------------------------------------------------

 SCF Done:  E(UB3LYP) =  -893.499160579     A.U. after    1 cycles

 Alpha  occ. eigenvalues --  -19.17553 -19.17518 -19.14325 -19.14267 -14.56795
 Alpha  occ. eigenvalues --  -10.29760 -10.29550 -10.27097 -10.24121 -10.23313
 Alpha  occ. eigenvalues --  -10.23133 -10.22593 -10.22282 -10.22206 -10.22056
 Alpha  occ. eigenvalues --  -10.21372 -10.21319 -10.21128 -10.21080  -1.25381
 Alpha  occ. eigenvalues --   -1.08228  -1.07973  -1.07707  -0.92542  -0.90182
 Alpha  occ. eigenvalues --   -0.84081  -0.82943  -0.79249  -0.79242  -0.73445
 Alpha  occ. eigenvalues --   -0.70633  -0.68087  -0.66777  -0.62377  -0.59836
 Alpha  occ. eigenvalues --   -0.58629  -0.58057  -0.55677  -0.54320  -0.53205
 Alpha  occ. eigenvalues --   -0.51799  -0.50951  -0.50522  -0.49736  -0.47215
 Alpha  occ. eigenvalues --   -0.46683  -0.46462  -0.46406  -0.45428  -0.43184
 Alpha  occ. eigenvalues --   -0.42312  -0.41909  -0.41552  -0.39611  -0.38680
 Alpha  occ. eigenvalues --   -0.38361  -0.33539  -0.33106  -0.32558  -0.30951
 Alpha  occ. eigenvalues --   -0.29897  -0.29416  -0.29230  -0.28982  -0.28704
 Alpha virt. eigenvalues --   -0.13230  -0.09787  -0.08414  -0.05681  -0.04540
 Alpha virt. eigenvalues --   -0.01560  -0.01129   0.00666   0.00980   0.01483
 Alpha virt. eigenvalues --    0.01585   0.02158   0.03122   0.03623   0.03746

  Beta  occ. eigenvalues --  -19.17553 -19.17518 -19.14325 -19.14267 -14.56795
  Beta  occ. eigenvalues --  -10.29760 -10.29550 -10.27097 -10.24121 -10.23313
  Beta  occ. eigenvalues --  -10.23133 -10.22593 -10.22282 -10.22206 -10.22056
  Beta  occ. eigenvalues --  -10.21372 -10.21319 -10.21128 -10.21080  -1.25381
  Beta  occ. eigenvalues --   -1.08228  -1.07973  -1.07707  -0.92542  -0.90182
  Beta  occ. eigenvalues --   -0.84081  -0.82943  -0.79249  -0.79242  -0.73445
  Beta  occ. eigenvalues --   -0.70633  -0.68087  -0.66777  -0.62377  -0.59836
  Beta  occ. eigenvalues --   -0.58629  -0.58057  -0.55677  -0.54320  -0.53205
  Beta  occ. eigenvalues --   -0.51799  -0.50951  -0.50522  -0.49736  -0.47215
  Beta  occ. eigenvalues --   -0.46683  -0.46462  -0.46406  -0.45428  -0.43184
  Beta  occ. eigenvalues --   -0.42312  -0.41909  -0.41552  -0.39611  -0.38680
  Beta  occ. eigenvalues --   -0.38361  -0.33539  -0.33106  -0.32558  -0.30951
  Beta  occ. eigenvalues --   -0.29897  -0.29416  -0.29230  -0.28982  -0.28704
  Beta virt. eigenvalues --   -0.13230  -0.09787  -0.08414  -0.05681  -0.04540
  Beta virt. eigenvalues --   -0.01560  -0.01129   0.00666   0.00980   0.01483
  Beta virt. eigenvalues --    0.01585   0.02158   0.03122   0.03623   0.03746

 Mulliken charges and spin densities:
               1          2
     1  O    0.039971  -0.000000
     2  N   -0.176779  -0.000000
     3  O    0.045052   0.000000
     4  C   -0.308530  -0.000000
     5  C    0.298733   0.000000
     6  C   -0.390446   0.000000
     7  C   -0.157273  -0.000000
     8  C    1.065087  -0.000000
     9  C   -0.441905  -0.000000
    10  O   -0.200144  -0.000000
    11  C    0.354699   0.000000
    12  C    0.096549  -0.000000
    13  C   -0.399759   0.000000
    14  C   -0.340984  -0.000000
    15  C    0.128275   0.000000
    16  C    0.110910  -0.000000
    17  C   -1.058841   0.000000
    18  O   -0.155410  -0.000000
    19  C    0.149192  -0.000000
    20  H    0.215409  -0.000000
    21  H    0.198258  -0.000000
    22  H    0.185826  -0.000000
    23  H    0.187593   0.000000
    24  H    0.180451   0.000000
    25  H    0.183856  -0.000000
    26  H    0.190209   0.000000
 Sum of Mulliken charges =  -0.00000   0.00000

 Dipole moment (field-independent basis, Debye):
    X=             -1.7854    Y=             -3.6966    Z=             -0.3613  Tot=              4.1210
 Quadrupole moment (field-independent basis, Debye-Ang):
   XX=            -82.6394   YY=           -127.3603   ZZ=           -112.4519
   XY=            -15.8782   XZ=             -2.3678   YZ=             -0.4079

  Exact polarizability: 254.039   3.620 205.111  -0.942   7.294  98.140
 Approx polarizability: 372.342   4.764 387.431   9.198  16.543 180.511

                      1                      2                      3
                      A                      A                      A
 Frequencies --     24.2304                48.8818                87.6334
 Red. masses --     11.7609                 7.4412                 8.4170
 Frc consts  --      0.0041                 0.0105                 0.0381
 IR Inten    --      0.9605                 6.7535                 0.1932

                      4                      5                      6
                      A                      A                      A
 Frequencies --    117.0795               145.1041               159.0907
 Red. masses --      5.5736                 8.4376                 6.8407
 Frc consts  --      0.0450                 0.1047                 0.1020
 IR Inten    --      0.4943                 1.4836                 0.4071

                      7                      8                      9
                      A                      A                      A
 Frequencies --    163.7873               216.9477               251.0013
 Red. masses --      7.9600                 5.2651                 6.2781
 Frc consts  --      0.1258                 0.1460                 0.2330
 IR Inten    --      0.5507                 0.0762                 0.7739

                     10                     11                     12
                      A                      A                      A
 Frequencies --    311.0403               324.2120               351.8751
 Red. masses --      8.4629                 8.0298                 6.7836
 Frc consts  --      0.4824                 0.4973                 0.4949
 IR Inten    --      1.0064                 1.8646                 0.4317

                     13                     14                     15
                      A                      A                      A
 Frequencies --    382.9933               391.9491               425.2055
 Red. masses --      6.4026                11.7732                 5.0540
 Frc consts  --      0.5533                 1.0656                 0.5384
 IR Inten    --      2.6766                29.5572                 0.1868

                     16                     17                     18
                      A                      A                      A
 Frequencies --    431.2385               449.1073               483.2200
 Red. masses --      3.7940                 7.8371                 8.9177
 Frc consts  --      0.4157                 0.9313                 1.2268
 IR Inten    --      0.9008                 0.9385                 0.2421

                     19                     20                     21
                      A                      A                      A
 Frequencies --    491.2435               595.6159               624.9307
 Red. masses --      4.3628                 5.6239                 6.7775
 Frc consts  --      0.6203                 1.1755                 1.5595
 IR Inten    --      0.0920                 2.9720                 2.8592

                     22                     23                     24
                      A                      A                      A
 Frequencies --    656.5920               674.1602               693.5346
 Red. masses --      6.9269                 4.4334                 7.2933
 Frc consts  --      1.7595                 1.1872                 2.0668
 IR Inten    --     12.9558                 9.8291                 2.3177

                     25                     26                     27
                      A                      A                      A
 Frequencies --    721.7990               728.2561               746.0819
 Red. masses --      2.9852                 7.6831                 2.8792
 Frc consts  --      0.9164                 2.4008                 0.9443
 IR Inten    --     46.0382                32.1277                23.2671

                     28                     29                     30
                      A                      A                      A
 Frequencies --    760.6470               797.7720               809.2995
 Red. masses --      5.4419                 2.2480                 7.4445
 Frc consts  --      1.8551                 0.8429                 2.8728
 IR Inten    --      2.0854                 3.3021                 8.8451

                     31                     32                     33
                      A                      A                      A
 Frequencies --    814.3611               839.0597               886.6272
 Red. masses --      2.4481                 2.1745                10.2526
 Frc consts  --      0.9566                 0.9020                 4.7486
 IR Inten    --     15.0624                23.0873                21.2044

                     34                     35                     36
                      A                      A                      A
 Frequencies --    917.7711               933.1806               954.8719
 Red. masses --      1.4016                 6.4506                 1.4075
 Frc consts  --      0.6956                 3.3097                 0.7561
 IR Inten    --      0.0185                 5.4154                 0.3224

                     37                     38                     39
                      A                      A                      A
 Frequencies --    988.9750              1004.2683              1015.4448
 Red. masses --      7.5172                 1.3834                 1.3424
 Frc consts  --      4.3319                 0.8221                 0.8155
 IR Inten    --     76.4829                 1.9746                 0.7294

                     40                     41                     42
                      A                      A                      A
 Frequencies --   1020.5176              1057.6885              1096.3400
 Red. masses --      1.3316                 2.0919                 2.0125
 Frc consts  --      0.8171                 1.3788                 1.4252
 IR Inten    --      0.0461                 0.1781                 0.3650

                     43                     44                     45
                      A                      A                      A
 Frequencies --   1114.1259              1172.0709              1181.7764
 Red. masses --      2.3422                 3.0359                 1.3096
 Frc consts  --      1.7129                 2.4573                 1.0776
 IR Inten    --      0.0081                 7.5448                 3.3887

                     46                     47                     48
                      A                      A                      A
 Frequencies --   1186.1816              1200.1132              1216.7529
 Red. masses --      1.4169                 2.1693                 1.7720
 Frc consts  --      1.1746                 1.8409                 1.5456
 IR Inten    --     11.6589                 1.3503                 0.8391

                     49                     50                     51
                      A                      A                      A
 Frequencies --   1269.5197              1298.0474              1321.3335
 Red. masses --      1.8315                 4.8087                 2.4782
 Frc consts  --      1.7391                 4.7737                 2.5493
 IR Inten    --     15.4956               569.4448                16.2208

                     52                     53                     54
                      A                      A                      A
 Frequencies --   1348.9208              1362.4044              1409.6622
 Red. masses --      7.6490                 7.9115                13.7948
 Frc consts  --      8.2003                 8.6520                16.1509
 IR Inten    --     77.7016                 0.5751               122.8126

                     55                     56                     57
                      A                      A                      A
 Frequencies --   1472.9095              1479.0612              1485.7329
 Red. masses --      3.4490                 2.3563                 2.5059
 Frc consts  --      4.4085                 3.0370                 3.2591
 IR Inten    --     14.4446                 2.8310                 1.1508

                     58                     59                     60
                      A                      A                      A
 Frequencies --   1508.0083              1604.4887              1612.7182
 Red. masses --      2.5787                 6.4077                13.3245
 Frc consts  --      3.4551                 9.7191                20.4182
 IR Inten    --      2.3274                 1.1422               307.5266

                     61                     62                     63
                      A                      A                      A
 Frequencies --   1618.0827              1626.2354              1631.1214
 Red. masses --      7.1399                 6.2487                 6.1569
 Frc consts  --     11.0140                 9.7366                 9.6513
 IR Inten    --      0.7747               128.7379                 9.1955

                     64                     65                     66
                      A                      A                      A
 Frequencies --   1726.8270              1739.1673              3173.5264
 Red. masses --     12.5672                12.5328                 1.0873
 Frc consts  --     22.0793                22.3347                 6.4516
 IR Inten    --     47.8330               277.2852                 2.7388

                     67                     68                     69
                      A                      A                      A
 Frequencies --   3185.0606              3187.3758              3200.2897
 Red. masses --      1.0883                 1.0918                 1.0930
 Frc consts  --      6.5047                 6.5353                 6.5954
 IR Inten    --      2.7441                 7.7257                 0.4713

                     70                     71                     72
                      A                      A                      A
 Frequencies --   3202.0943              3204.6894              3207.8905
 Red. masses --      1.0928                 1.0952                 1.0952
 Frc consts  --      6.6015                 6.6269                 6.6403
 IR Inten    --      0.2321                 9.9965                 2.9892

 - Thermochemistry -
 -------------------
 Temperature   298.150 Kelvin.  Pressure   1.00000 Atm.
 Atom     1 has atomic number  8 and mass  15.99491

 Molecular mass:   253.03751 amu.
 Principal axes and moments of inertia in atomic units:
                           1         2         3
     Eigenvalues --  2637.520095698.797228068.41815
           X            0.94844  -0.31472   0.03767
           Y            0.31630   0.94744  -0.04811
           Z           -0.02055   0.05754   0.99813
 This molecule is an asymmetric top.
 Rotational symmetry number  1.
 Warning -- assumption of classical behavior for rotation
           may cause significant error
 Rotational temperatures (Kelvin)      0.03284     0.01520     0.01073
 Rotational constants (GHZ):           0.68426     0.31669     0.22368
 Zero-point vibrational energy     475753.8 (Joules/Mol)
                                  113.70789 (Kcal/Mol)
 Warning -- explicit consideration of  20 degrees of freedom as
           vibrations may cause significant error
 Vibrational temperatures:     34.86    70.33   126.08   168.45   208.77
          (Kelvin)            228.90   235.65   312.14   361.13   447.52
                              466.47   506.27   551.04   563.93   611.78
                              620.46   646.17   695.25   706.79   856.96
                              899.14   944.69   969.97   997.84  1038.51
                             1047.80  1073.45  1094.40  1147.82  1164.40
                             1171.68  1207.22  1275.66  1320.47  1342.64
                             1373.85  1422.91  1444.92  1461.00  1468.30
                             1521.78  1577.39  1602.98  1686.35  1700.31
                             1706.65  1726.70  1750.64  1826.56  1867.60
                             1901.10  1940.80  1960.20  2028.19  2119.19
                             2128.04  2137.64  2169.69  2308.50  2320.34
                             2328.06  2339.79  2346.82  2484.52  2502.27
                             4566.00  4582.59  4585.92  4604.50  4607.10
                             4610.83  4615.44

 Zero-point correction=                           0.181205 (Hartree/Particle)
 Thermal correction to Energy=                    0.195217
 Thermal correction to Enthalpy=                  0.196161
 Thermal correction to Gibbs Free Energy=         0.139096
 Sum of electronic and zero-point Energies=           -893.317956
 Sum of electronic and thermal Energies=              -893.303943
 Sum of electronic and thermal Enthalpies=            -893.302999
 Sum of electronic and thermal Free Energies=         -893.360065

                     E (Thermal)             CV                S
                      KCal/Mol        Cal/Mol-Kelvin    Cal/Mol-Kelvin
 Total                  122.501             54.558            120.105
 Electronic               0.000              0.000              0.000
 Translational            0.889              2.981             42.485
 Rotational               0.889              2.981             33.161
 Vibrational            120.723             48.596             44.459
 Vibration     1          0.593              1.985              6.253
 Vibration     2          0.595              1.978              4.862
 Vibration     3          0.601              1.958              3.712
 Vibration     4          0.608              1.935              3.148
 Vibration     5          0.616              1.908              2.735
 Vibration     6          0.621              1.892              2.561
 Vibration     7          0.623              1.887              2.506
 Vibration     8          0.646              1.815              1.984
 Vibration     9          0.663              1.761              1.724
 Vibration    10          0.700              1.653              1.357
 Vibration    11          0.709              1.627              1.289
 Vibration    12          0.728              1.571              1.158
 Vibration    13          0.752              1.506              1.027
 Vibration    14          0.759              1.487              0.993
 Vibration    15          0.787              1.415              0.874
 Vibration    16          0.792              1.402              0.855
 Vibration    17          0.808              1.363              0.798
 Vibration    18          0.839              1.287              0.701
 Vibration    19          0.847              1.269              0.680
 Vibration    20          0.953              1.041              0.457

 Optimization completed.
    -- Stationary point found.
 Normal termination of Gaussian 16 at Thu Dec 21 09:33:50 2023.
