 Gaussian 16, Revision A.03,
 Gaussian 16:  ES64L-G16RevA.03 25-Dec-2016

 --------------------------------------
 #P UB3LYP/6-311++G(d,p) nosym opt freq
 --------------------------------------

 -------
 Radical
 -------
 Symbolic Z-matrix:
 Charge = -1 Multiplicity = 2

 SCF Done:  E(UB3LYP) =  -764.245557560     A.U. after   25 cycles
 SCF Done:  E(UB3LYP) =  -764.268185444     A.U. after   17 cycles
 SCF Done:  E(UB3LYP) =  -764.272345662     A.U. after   18 cycles
 SCF Done:  E(UB3LYP) =  -764.272601457     A.U. after   17 cycles
 SCF Done:  E(UB3LYP) =  -764.272637372     A.U. after   16 cycles
 SCF Done:  E(UB3LYP) =  -764.272641446     A.U. after   16 cycles
 SCF Done:  E(UB3LYP) =  -764.272643633     A.U. after   13 cycles
 Optimization completed.
    -- Stationary point found.
 Normal termination of Gaussian 16 at Sat Jan  6 02:27:17 2024.

 ----------------------------------------------------------------------
 #P Geom=AllCheck Guess=TCheck SCRF=Check GenChk UB3LYP/6-311++G(d,p) F
 req
 ----------------------------------------------------------------------

 Structure from the checkpoint file:  "329-rad.chk"
 -------
 Radical
 -------
 Charge = -1 Multiplicity = 2

                          Input orientation:
 ---------------------------------------------------------------------
 Center     Atomic      Atomic             Coordinates (Angstroms)
 Number     Number       Type             X           Y           Z
 ---------------------------------------------------------------------
      1          6           0       -0.639102    2.680038   -0.963697
      2          6           0       -1.713462    2.064182   -0.371612
      3          6           0       -1.587733    0.751162    0.157607
      4          6           0        0.625487    2.026651   -1.065010
      5          6           0        0.751063    0.695671   -0.527924
      6          6           0       -0.384165    0.091276    0.077648
      7          6           0        1.744358    2.628033   -1.664331
      8          6           0        2.970646    1.970214   -1.752093
      9          6           0        3.094929    0.637381   -1.213852
     10          6           0        1.997553    0.040918   -0.623117
     11          6           0        4.113267    2.609354   -2.374784
     12          6           0        5.338549    1.847219   -2.416320
     13          6           0        5.478786    0.574840   -1.909090
     14          6           0        4.386624   -0.110002   -1.282834
     15          8           0        4.114393    3.780349   -2.880096
     16          8           0        4.483776   -1.266737   -0.811501
     17          8           0        6.371480    2.500099   -3.010988
     18          1           0       -0.735744    3.683384   -1.367901
     19          1           0       -2.666817    2.579134   -0.304860
     20          1           0       -2.444085    0.274449    0.623367
     21          1           0       -0.280766   -0.912298    0.479925
     22          1           0        1.671704    3.629528   -2.075023
     23          1           0        2.121088   -0.961939   -0.227207
     24          1           0        6.431522    0.061534   -1.975695
     25          1           0        5.958950    3.357830   -3.256873
 ---------------------------------------------------------------------

 SCF Done:  E(UB3LYP) =  -764.272643633     A.U. after    1 cycles

 Alpha  occ. eigenvalues --  -19.02354 -18.95879 -18.94731 -10.10426 -10.10306
 Alpha  occ. eigenvalues --  -10.09481 -10.07907 -10.07768 -10.07703 -10.07684
 Alpha  occ. eigenvalues --  -10.07589 -10.07501 -10.05966 -10.05915 -10.05851
 Alpha  occ. eigenvalues --  -10.05684 -10.03285  -0.94334  -0.87355  -0.86892
 Alpha  occ. eigenvalues --   -0.76906  -0.72257  -0.67503  -0.66980  -0.62542
 Alpha  occ. eigenvalues --   -0.61881  -0.55398  -0.53114  -0.50312  -0.49262
 Alpha  occ. eigenvalues --   -0.45714  -0.42877  -0.41802  -0.39428  -0.36842
 Alpha  occ. eigenvalues --   -0.35464  -0.34718  -0.33377  -0.32207  -0.31097
 Alpha  occ. eigenvalues --   -0.30970  -0.29309  -0.28525  -0.28448  -0.28171
 Alpha  occ. eigenvalues --   -0.26176  -0.25624  -0.25193  -0.23880  -0.23102
 Alpha  occ. eigenvalues --   -0.21848  -0.20665  -0.18385  -0.14534  -0.13270
 Alpha  occ. eigenvalues --   -0.11703  -0.11454  -0.11213  -0.02429
 Alpha virt. eigenvalues --    0.04915   0.06898   0.08576   0.09146   0.09993
 Alpha virt. eigenvalues --    0.10792   0.10811   0.11340   0.12341   0.13327
 Alpha virt. eigenvalues --    0.14459   0.15124   0.15324   0.15664   0.16826

  Beta  occ. eigenvalues --  -19.02319 -18.95182 -18.94244 -10.10334 -10.10245
  Beta  occ. eigenvalues --  -10.09192 -10.07927 -10.07796 -10.07650 -10.07641
  Beta  occ. eigenvalues --  -10.07593 -10.07422 -10.05951 -10.05936 -10.05805
  Beta  occ. eigenvalues --  -10.05571 -10.03169  -0.94151  -0.86527  -0.85708
  Beta  occ. eigenvalues --   -0.76806  -0.72031  -0.67131  -0.66866  -0.62381
  Beta  occ. eigenvalues --   -0.61698  -0.54549  -0.52990  -0.50028  -0.49213
  Beta  occ. eigenvalues --   -0.45468  -0.42669  -0.41717  -0.39307  -0.36609
  Beta  occ. eigenvalues --   -0.35298  -0.34631  -0.33263  -0.32111  -0.30935
  Beta  occ. eigenvalues --   -0.29968  -0.29050  -0.28252  -0.28113  -0.27723
  Beta  occ. eigenvalues --   -0.26023  -0.24996  -0.24498  -0.22958  -0.22197
  Beta  occ. eigenvalues --   -0.21692  -0.19444  -0.17934  -0.13013  -0.12645
  Beta  occ. eigenvalues --   -0.10974  -0.10740  -0.10240
  Beta virt. eigenvalues --    0.03890   0.05362   0.06894   0.08572   0.09994
  Beta virt. eigenvalues --    0.10052   0.10822   0.11084   0.11342   0.12352
  Beta virt. eigenvalues --    0.13337   0.14586   0.15134   0.15329   0.15837

 Mulliken charges and spin densities:
               1          2
     1  C   -0.191185   0.037578
     2  C   -0.306232  -0.017215
     3  C   -0.320385   0.061670
     4  C    0.255317  -0.006724
     5  C    0.250085   0.065455
     6  C   -0.172338  -0.038264
     7  C    0.083454   0.132605
     8  C    0.362161  -0.004271
     9  C    0.391361   0.063227
    10  C    0.153637  -0.045295
    11  C   -0.986589   0.144229
    12  C   -0.432925   0.069816
    13  C    0.612078   0.090052
    14  C   -0.795509   0.021142
    15  O   -0.443494   0.258602
    16  O   -0.381940   0.176996
    17  O   -0.263902   0.013175
    18  H    0.116715  -0.001700
    19  H    0.130813   0.000872
    20  H    0.130121  -0.004473
    21  H    0.117725   0.002387
    22  H    0.129040  -0.008170
    23  H    0.127821   0.001237
    24  H    0.171569  -0.009148
    25  H    0.262601  -0.003785
 Sum of Mulliken charges =  -1.00000   1.00000

 Dipole moment (field-independent basis, Debye):
    X=            -18.3093    Y=             -5.7209    Z=              8.0193  Tot=             20.7910
 Quadrupole moment (field-independent basis, Debye-Ang):
   XX=           -192.9549   YY=           -131.3497   ZZ=           -123.1950
   XY=            -19.6512   XZ=             35.1157   YZ=             17.3017

  Exact polarizability: 323.441 -11.783 201.974 -64.924 -43.702 131.114
 Approx polarizability: 508.586 -22.164 378.973-100.102 -93.548 217.686

                      1                      2                      3
                      A                      A                      A
 Frequencies --     64.8025                86.9373               122.5430
 Red. masses --      6.8439                 4.9792                 9.1189
 Frc consts  --      0.0169                 0.0222                 0.0807
 IR Inten    --      1.1653                 0.0000                 3.5079

                      4                      5                      6
                      A                      A                      A
 Frequencies --    170.6645               195.2041               244.3267
 Red. masses --      7.0487                 7.3136                 4.4924
 Frc consts  --      0.1210                 0.1642                 0.1580
 IR Inten    --      1.3698                 1.3136                 0.0352

                      7                      8                      9
                      A                      A                      A
 Frequencies --    270.5755               305.8316               322.5997
 Red. masses --      5.6235                 7.7508                 6.2015
 Frc consts  --      0.2426                 0.4271                 0.3803
 IR Inten    --      0.8802                 1.4073                 6.6794

                     10                     11                     12
                      A                      A                      A
 Frequencies --    340.8921               387.8308               412.6473
 Red. masses --      6.4659                 4.0999                10.6184
 Frc consts  --      0.4427                 0.3633                 1.0653
 IR Inten    --      8.5606                 0.1919                 2.5655

                     13                     14                     15
                      A                      A                      A
 Frequencies --    449.1725               479.1746               491.1787
 Red. masses --      5.1854                 2.6257                10.5536
 Frc consts  --      0.6164                 0.3552                 1.5001
 IR Inten    --      0.2376                17.2938                 7.8835

                     16                     17                     18
                      A                      A                      A
 Frequencies --    498.4213               525.5372               592.0379
 Red. masses --      6.9024                 4.0331                 7.2543
 Frc consts  --      1.0103                 0.6563                 1.4981
 IR Inten    --     15.4137                 0.6081                11.1811

                     19                     20                     21
                      A                      A                      A
 Frequencies --    614.3898               623.4001               661.2793
 Red. masses --      3.8394                 6.7712                 6.3796
 Frc consts  --      0.8539                 1.5504                 1.6437
 IR Inten    --      1.3703                 5.7781                 5.6463

                     22                     23                     24
                      A                      A                      A
 Frequencies --    699.3510               708.3607               732.2155
 Red. masses --      4.7628                 5.5175                 1.3003
 Frc consts  --      1.3725                 1.6312                 0.4108
 IR Inten    --     11.4732                 3.8822                12.6271

                     25                     26                     27
                      A                      A                      A
 Frequencies --    739.5591               747.8890               761.3824
 Red. masses --      2.5304                 1.5384                 3.5202
 Frc consts  --      0.8154                 0.5070                 1.2023
 IR Inten    --     43.4865                72.2775                 0.3094

                     28                     29                     30
                      A                      A                      A
 Frequencies --    768.0484               788.3704               825.1479
 Red. masses --      5.7984                 4.4864                 1.5354
 Frc consts  --      2.0153                 1.6429                 0.6159
 IR Inten    --     26.6820                17.1072                43.6611

                     31                     32                     33
                      A                      A                      A
 Frequencies --    838.3716               903.7420               907.0905
 Red. masses --      1.4319                 1.4527                 5.0814
 Frc consts  --      0.5930                 0.6991                 2.4634
 IR Inten    --      0.0020                11.1554                 1.6945

                     34                     35                     36
                      A                      A                      A
 Frequencies --    930.1122               958.1607               961.1728
 Red. masses --      1.3518                 1.4054                 1.2716
 Frc consts  --      0.6890                 0.7602                 0.6921
 IR Inten    --      5.5168                12.7117                 1.4436

                     37                     38                     39
                      A                      A                      A
 Frequencies --    996.1293              1027.0342              1072.5523
 Red. masses --      3.9167                 2.3397                 2.9534
 Frc consts  --      2.2898                 1.4541                 2.0017
 IR Inten    --     32.8293                23.4995                14.5211

                     40                     41                     42
                      A                      A                      A
 Frequencies --   1149.3009              1164.7466              1178.6060
 Red. masses --      1.5542                 1.2496                 1.9298
 Frc consts  --      1.2095                 0.9988                 1.5794
 IR Inten    --      6.1391                 1.3825                 7.2495

                     43                     44                     45
                      A                      A                      A
 Frequencies --   1211.6310              1218.2386              1237.5625
 Red. masses --      1.4293                 4.3361                 1.7343
 Frc consts  --      1.2363                 3.7915                 1.5649
 IR Inten    --    126.7861                86.2589                79.9493

                     46                     47                     48
                      A                      A                      A
 Frequencies --   1270.0422              1276.3980              1291.4069
 Red. masses --      5.0234                 1.7544                 3.1206
 Frc consts  --      4.7741                 1.6840                 3.0663
 IR Inten    --     48.9836                 3.1476                 7.7162

                     49                     50                     51
                      A                      A                      A
 Frequencies --   1358.6045              1385.8077              1396.8522
 Red. masses --      2.3804                 4.6010                 5.2393
 Frc consts  --      2.5887                 5.2061                 6.0232
 IR Inten    --     41.0181                24.6021                28.0618

                     52                     53                     54
                      A                      A                      A
 Frequencies --   1445.7484              1458.0988              1476.4404
 Red. masses --      3.2507                 2.3721                 3.7261
 Frc consts  --      4.0033                 2.9714                 4.7856
 IR Inten    --    261.9660               204.1670               299.7747

                     55                     56                     57
                      A                      A                      A
 Frequencies --   1509.1472              1526.8645              1560.1260
 Red. masses --      3.2839                 5.7612                 5.6442
 Frc consts  --      4.4066                 7.9134                 8.0942
 IR Inten    --    107.1716               462.2661               111.9152

                     58                     59                     60
                      A                      A                      A
 Frequencies --   1576.9891              1611.6586              1632.2899
 Red. masses --      6.1592                 5.5127                 5.7041
 Frc consts  --      9.0247                 8.4364                 8.9543
 IR Inten    --      0.2899                64.7647                34.1034

                     61                     62                     63
                      A                      A                      A
 Frequencies --   1648.2872              3137.8196              3146.0130
 Red. masses --      7.0111                 1.0835                 1.0869
 Frc consts  --     11.2229                 6.2855                 6.3384
 IR Inten    --     85.0198                 1.8268                 2.2117

                     64                     65                     66
                      A                      A                      A
 Frequencies --   3158.0381              3168.0723              3169.8923
 Red. masses --      1.0934                 1.0896                 1.0932
 Frc consts  --      6.4247                 6.4432                 6.4721
 IR Inten    --     47.9998                 6.0293                26.4923

                     67                     68                     69
                      A                      A                      A
 Frequencies --   3171.7010              3175.1874              3483.0871
 Red. masses --      1.0926                 1.0898                 1.0634
 Frc consts  --      6.4761                 6.4735                 7.6010
 IR Inten    --     41.9952                19.3086                71.0479

 - Thermochemistry -
 -------------------
 Temperature   298.150 Kelvin.  Pressure   1.00000 Atm.
 Atom     1 has atomic number  6 and mass  12.00000

 Molecular mass:   224.04734 amu.
 Principal axes and moments of inertia in atomic units:
                           1         2         3
     Eigenvalues --  1746.149465690.595717436.74499
           X            0.94828  -0.16991   0.26815
           Y            0.05722   0.92236   0.38208
           Z           -0.31225  -0.34697   0.88437
 This molecule is an asymmetric top.
 Rotational symmetry number  1.
 Warning -- assumption of classical behavior for rotation
           may cause significant error
 Rotational temperatures (Kelvin)      0.04960     0.01522     0.01165
 Rotational constants (GHZ):           1.03355     0.31714     0.24268
 Zero-point vibrational energy     475029.9 (Joules/Mol)
                                  113.53487 (Kcal/Mol)
 Warning -- explicit consideration of  19 degrees of freedom as
           vibrations may cause significant error
 Vibrational temperatures:     93.24   125.08   176.31   245.55   280.86
          (Kelvin)            351.53   389.30   440.02   464.15   490.47
                              558.00   593.71   646.26   689.43   706.70
                              717.12   756.13   851.81   883.97   896.93
                              951.43  1006.21  1019.17  1053.49  1064.06
                             1076.05  1095.46  1105.05  1134.29  1187.20
                             1206.23  1300.28  1305.10  1338.22  1378.58
                             1382.91  1433.21  1477.67  1543.16  1653.59
                             1675.81  1695.75  1743.27  1752.77  1780.58
                             1827.31  1836.45  1858.05  1954.73  1993.87
                             2009.76  2080.11  2097.88  2124.27  2171.33
                             2196.82  2244.67  2268.94  2318.82  2348.50
                             2371.52  4514.62  4526.41  4543.71  4558.15
                             4560.77  4563.37  4568.39  5011.39

 Zero-point correction=                           0.180929 (Hartree/Particle)
 Thermal correction to Energy=                    0.193164
 Thermal correction to Enthalpy=                  0.194108
 Thermal correction to Gibbs Free Energy=         0.141855
 Sum of electronic and zero-point Energies=           -764.091714
 Sum of electronic and thermal Energies=              -764.079480
 Sum of electronic and thermal Enthalpies=            -764.078536
 Sum of electronic and thermal Free Energies=         -764.130788

                     E (Thermal)             CV                S
                      KCal/Mol        Cal/Mol-Kelvin    Cal/Mol-Kelvin
 Total                  121.212             50.447            109.975
 Electronic               0.000              0.000              1.377
 Translational            0.889              2.981             42.123
 Rotational               0.889              2.981             32.669
 Vibrational            119.435             44.485             33.806
 Vibration     1          0.597              1.971              4.305
 Vibration     2          0.601              1.958              3.728
 Vibration     3          0.610              1.930              3.060
 Vibration     4          0.626              1.879              2.428
 Vibration     5          0.636              1.847              2.178
 Vibration     6          0.660              1.772              1.771
 Vibration     7          0.674              1.727              1.593
 Vibration     8          0.696              1.663              1.385
 Vibration     9          0.708              1.630              1.297
 Vibration    10          0.720              1.594              1.208
 Vibration    11          0.756              1.496              1.008
 Vibration    12          0.776              1.443              0.917
 Vibration    13          0.808              1.363              0.798
 Vibration    14          0.836              1.296              0.712
 Vibration    15          0.847              1.270              0.681
 Vibration    16          0.854              1.254              0.662
 Vibration    17          0.880              1.193              0.597
 Vibration    18          0.950              1.049              0.464
 Vibration    19          0.974              1.001              0.426

 Optimization completed.
    -- Stationary point found.
 Normal termination of Gaussian 16 at Sat Jan  6 03:34:01 2024.
