 Q-Chem 5.4, Q-Chem, Inc., Pleasanton, CA (2021)
 Q-Chem 5.4.0 for Intel X86 EM64T Linux

User input:
--------------------------------------------------------------
$molecule
-2 1
C                  4.8776090000     -2.9403920000     -0.3100800000
C                  5.6399540000     -2.0933220000     -1.0667910000
C                  5.0886180000     -0.8573450000     -1.5220210000
C                  3.5340730000     -2.6266760000      0.0440290000
C                  2.9366950000     -1.3672790000     -0.4054050000
C                  3.7869230000     -0.5157460000     -1.1993270000
C                  2.8158670000     -3.5679170000      0.8343810000
C                  1.4657250000     -3.2401850000      1.1838370000
C                  0.8675190000     -2.0083520000      0.7500460000
C                  1.5859290000     -1.0449510000     -0.0523020000
C                  0.6969860000     -4.1606450000      1.9825800000
C                 -0.6032870000     -3.8540270000      2.3241780000
C                 -0.4968140000     -1.7270890000      1.1303690000
C                 -1.2002430000     -2.6364270000      1.8976400000
O                  3.3606600000     -4.7023970000      1.2364250000
O                  0.9755870000      0.0620680000     -0.4132030000
O                  1.2731830000     -5.3281820000      2.3899630000
H                  5.2623420000     -3.8867940000      0.0529070000
H                  6.6651200000     -2.3472680000     -1.3290840000
H                  5.7026930000     -0.1963610000     -2.1203470000
O                  3.2417430000      0.6761630000     -1.6336030000
H                  2.2312890000     -5.2667850000      1.9825170000
O                 -1.0752550000     -0.5657520000      0.7270710000
H                 -2.2256490000     -2.3989200000      2.1693940000
H                 -1.1648100000     -4.5631920000      2.9275210000
H                 -0.2903350000     -0.1113990000      0.1743260000
C                  4.0271460000      1.5365220000     -2.4067100000
H                  3.3945290000      2.4001720000     -2.6286040000
H                  4.3492050000      1.0760610000     -3.3544550000
H                  4.9272570000      1.8802470000     -1.8722690000
$end

$rem
BASIS  =  6-311++G(d,p)
GUI  =  2
JOB_TYPE  =  SP
METHOD  =  B3LYP
SCF_CONVERGENCE  = 8
SOLVENT_METHOD = sm12
$end

$smx
solvent dimethylformamide
charges CM5
$end

--------------------------------------------------------------

             Standard Nuclear Orientation (Angstroms)
    I     Atom           X                Y                Z
 ----------------------------------------------------------------
    1      C       4.8776090000    -2.9403920000    -0.3100800000
    2      C       5.6399540000    -2.0933220000    -1.0667910000
    3      C       5.0886180000    -0.8573450000    -1.5220210000
    4      C       3.5340730000    -2.6266760000     0.0440290000
    5      C       2.9366950000    -1.3672790000    -0.4054050000
    6      C       3.7869230000    -0.5157460000    -1.1993270000
    7      C       2.8158670000    -3.5679170000     0.8343810000
    8      C       1.4657250000    -3.2401850000     1.1838370000
    9      C       0.8675190000    -2.0083520000     0.7500460000
   10      C       1.5859290000    -1.0449510000    -0.0523020000
   11      C       0.6969860000    -4.1606450000     1.9825800000
   12      C      -0.6032870000    -3.8540270000     2.3241780000
   13      C      -0.4968140000    -1.7270890000     1.1303690000
   14      C      -1.2002430000    -2.6364270000     1.8976400000
   15      O       3.3606600000    -4.7023970000     1.2364250000
   16      O       0.9755870000     0.0620680000    -0.4132030000
   17      O       1.2731830000    -5.3281820000     2.3899630000
   18      H       5.2623420000    -3.8867940000     0.0529070000
   19      H       6.6651200000    -2.3472680000    -1.3290840000
   20      H       5.7026930000    -0.1963610000    -2.1203470000
   21      O       3.2417430000     0.6761630000    -1.6336030000
   22      H       2.2312890000    -5.2667850000     1.9825170000
   23      O      -1.0752550000    -0.5657520000     0.7270710000
   24      H      -2.2256490000    -2.3989200000     2.1693940000
   25      H      -1.1648100000    -4.5631920000     2.9275210000
   26      H      -0.2903350000    -0.1113990000     0.1743260000
   27      C       4.0271460000     1.5365220000    -2.4067100000
   28      H       3.3945290000     2.4001720000    -2.6286040000
   29      H       4.3492050000     1.0760610000    -3.3544550000
   30      H       4.9272570000     1.8802470000    -1.8722690000
 ----------------------------------------------------------------

   17    -954.0052700592      7.00e-09  Convergence criterion met
 Total energy in the final basis set =     -954.2810702363

                    Orbital Energies (a.u.)
 --------------------------------------------------------------

 Alpha MOs
 -- Occupied --
-19.1413 -19.0990 -19.0940 -19.0465 -19.0458 -10.2322 -10.2157 -10.2093
-10.2088 -10.2025 -10.1938 -10.1698 -10.1628 -10.1621 -10.1583 -10.1582
-10.1578 -10.1567 -10.1547 -10.1526  -1.0593  -1.0166  -1.0143  -0.9538
 -0.9508  -0.8424  -0.8239  -0.7715  -0.7510  -0.7271  -0.7108  -0.6890
 -0.6584  -0.6214  -0.6171  -0.5681  -0.5569  -0.5343  -0.5154  -0.4919
 -0.4843  -0.4750  -0.4705  -0.4606  -0.4551  -0.4384  -0.4238  -0.4113
 -0.4056  -0.3959  -0.3908  -0.3832  -0.3784  -0.3763  -0.3694  -0.3595
 -0.3492  -0.3383  -0.3377  -0.3270  -0.3231  -0.3159  -0.3033  -0.2784
 -0.2418  -0.2354  -0.2262  -0.2225  -0.2135  -0.1893  -0.1236

          Ground-State Mulliken Net Atomic Charges

     Atom                 Charge (a.u.)
  ----------------------------------------
      1 C                    -0.434911
      2 C                     1.348827
      3 C                     2.458760
      4 C                    -2.653728
      5 C                     0.291371
      6 C                     0.591149
      7 C                    -2.398907
      8 C                    -1.928837
      9 C                    -0.365710
     10 C                    -1.237997
     11 C                    -0.673697
     12 C                     1.047306
     13 C                    -0.657415
     14 C                     0.791634
     15 O                    -0.404441
     16 O                    -0.419990
     17 O                    -0.314106
     18 H                     0.119277
     19 H                     0.383537
     20 H                     0.398082
     21 O                    -0.042972
     22 H                     0.393578
     23 O                    -0.342472
     24 H                     0.237575
     25 H                     0.253510
     26 H                     0.460855
     27 C                     0.319994
     28 H                     0.325747
     29 H                     0.226898
     30 H                     0.227085
  ----------------------------------------
  Sum of atomic charges =    -2.000000

                    Cartesian Multipole Moments
 -----------------------------------------------------------------
    Charge (ESU x 10^10)
                -9.6064
    Dipole Moment (Debye)
         X     -14.5709      Y      25.4791      Z      -8.1235
       Tot      30.4547
    Quadrupole Moments (Debye-Ang)
        XX    -187.9707     XY      55.2527     YY    -231.9765
        XZ      -6.8525     YZ      34.3256     ZZ    -144.7771

 Total job time:  859.82s(wall), 6681.70s(cpu)
        *  Thank you very much for using Q-Chem.  Have a nice day.  *
