 Gaussian 16, Revision A.03,
 Gaussian 16:  ES64L-G16RevA.03 25-Dec-2016

 ----------------------------------------------------------------------
 #P UB3LYP/6-311++G(d,p) nosym opt freq SCRF=(PCM,Solvent=n,n-DiMethylF
 ormamide)
 ----------------------------------------------------------------------

 -------
 Reduced
 -------
 Symbolic Z-matrix:
 Charge = -2 Multiplicity = 1

 SCF Done:  E(UB3LYP) =  -728.718361820     A.U. after   17 cycles
 SCF Done:  E(UB3LYP) =  -728.720889286     A.U. after   15 cycles
 SCF Done:  E(UB3LYP) =  -728.721320592     A.U. after   15 cycles
 SCF Done:  E(UB3LYP) =  -728.721541204     A.U. after   14 cycles
 SCF Done:  E(UB3LYP) =  -728.721616627     A.U. after   12 cycles
 SCF Done:  E(UB3LYP) =  -728.721626938     A.U. after   12 cycles
 SCF Done:  E(UB3LYP) =  -728.721631779     A.U. after   11 cycles
 SCF Done:  E(UB3LYP) =  -728.721632738     A.U. after   11 cycles
 SCF Done:  E(UB3LYP) =  -728.721632939     A.U. after   11 cycles
 SCF Done:  E(UB3LYP) =  -728.721632985     A.U. after    8 cycles
 Optimization completed.
    -- Stationary point found.
 Normal termination of Gaussian 16 at Sun Feb 11 03:01:47 2024.

 ----------------------------------------------------------------------
 #P Geom=AllCheck Guess=TCheck SCRF=Check GenChk UB3LYP/6-311++G(d,p) F
 req
 ----------------------------------------------------------------------

 Structure from the checkpoint file:  "267-an.chk"
 -------
 Reduced
 -------
 Charge = -2 Multiplicity = 1

                          Input orientation:
 ---------------------------------------------------------------------
 Center     Atomic      Atomic             Coordinates (Angstroms)
 Number     Number       Type             X           Y           Z
 ---------------------------------------------------------------------
      1          6           0       -1.021745    2.463351   -0.857935
      2          6           0       -2.290091    1.919879   -0.904326
      3          6           0       -2.575952    0.736950   -0.180847
      4          6           0        0.029020    1.876712   -0.103254
      5          6           0       -0.267373    0.672659    0.638628
      6          6           0       -1.579111    0.141661    0.567633
      7          6           0        1.346258    2.495584   -0.110584
      8          6           0        2.295425    1.809228    0.673132
      9          6           0        2.002974    0.645123    1.424415
     10          6           0        0.747560    0.015420    1.448351
     11          8           0        1.589378    3.590641   -0.788116
     12          8           0        0.489964   -1.065187    2.142316
     13          1           0       -0.791500    3.369325   -1.407134
     14          1           0       -1.778853   -0.764052    1.130300
     15          8           0        3.581704    2.358803    0.787136
     16          1           0       -3.067405    2.397324   -1.493802
     17          1           0       -3.570961    0.303535   -0.214980
     18          1           0        2.797315    0.210576    2.027277
     19          6           0        4.686500    1.548438    0.339974
     20          6           0        5.953968    2.233116    0.834117
     21          6           0        4.670489    1.368911   -1.176969
     22          1           0        4.609897    0.560442    0.811003
     23          1           0        6.836649    1.653021    0.551673
     24          1           0        5.940937    2.333023    1.922425
     25          1           0        6.045435    3.231861    0.396361
     26          1           0        5.474342    0.695049   -1.488637
     27          1           0        4.807945    2.329959   -1.681441
     28          1           0        3.719440    0.940961   -1.502363
 ---------------------------------------------------------------------

 SCF Done:  E(UB3LYP) =  -728.721632985     A.U. after    1 cycles

 Alpha  occ. eigenvalues --  -19.10678 -19.01370 -19.01014 -10.21058 -10.17161
 Alpha  occ. eigenvalues --  -10.16981 -10.16474 -10.15130 -10.14892 -10.14762
 Alpha  occ. eigenvalues --  -10.14744 -10.14555 -10.14421 -10.13892 -10.13727
 Alpha  occ. eigenvalues --  -10.11717  -1.01536  -0.92126  -0.91482  -0.82389
 Alpha  occ. eigenvalues --   -0.77840  -0.75294  -0.72118  -0.69650  -0.68158
 Alpha  occ. eigenvalues --   -0.64380  -0.59471  -0.58573  -0.55456  -0.52963
 Alpha  occ. eigenvalues --   -0.49251  -0.47741  -0.45196  -0.44216  -0.43177
 Alpha  occ. eigenvalues --   -0.42526  -0.40839  -0.39749  -0.38198  -0.37913
 Alpha  occ. eigenvalues --   -0.37624  -0.36999  -0.35815  -0.35344  -0.34831
 Alpha  occ. eigenvalues --   -0.34381  -0.32584  -0.31921  -0.31337  -0.30522
 Alpha  occ. eigenvalues --   -0.29740  -0.25861  -0.22739  -0.21918  -0.20154
 Alpha  occ. eigenvalues --   -0.19420  -0.19088  -0.11249
 Alpha virt. eigenvalues --   -0.00506  -0.00039   0.00676   0.01074   0.01560
 Alpha virt. eigenvalues --    0.02239   0.02580   0.02762   0.04281   0.04541
 Alpha virt. eigenvalues --    0.04801   0.05063   0.05441   0.06320   0.06804

  Beta  occ. eigenvalues --  -19.10678 -19.01370 -19.01014 -10.21058 -10.17161
  Beta  occ. eigenvalues --  -10.16981 -10.16474 -10.15130 -10.14892 -10.14762
  Beta  occ. eigenvalues --  -10.14744 -10.14555 -10.14421 -10.13892 -10.13727
  Beta  occ. eigenvalues --  -10.11717  -1.01536  -0.92126  -0.91482  -0.82389
  Beta  occ. eigenvalues --   -0.77840  -0.75294  -0.72118  -0.69650  -0.68158
  Beta  occ. eigenvalues --   -0.64380  -0.59471  -0.58573  -0.55456  -0.52963
  Beta  occ. eigenvalues --   -0.49251  -0.47741  -0.45196  -0.44216  -0.43177
  Beta  occ. eigenvalues --   -0.42526  -0.40839  -0.39749  -0.38198  -0.37913
  Beta  occ. eigenvalues --   -0.37624  -0.36999  -0.35815  -0.35344  -0.34831
  Beta  occ. eigenvalues --   -0.34381  -0.32584  -0.31921  -0.31337  -0.30522
  Beta  occ. eigenvalues --   -0.29740  -0.25861  -0.22739  -0.21918  -0.20154
  Beta  occ. eigenvalues --   -0.19420  -0.19088  -0.11249
  Beta virt. eigenvalues --   -0.00506  -0.00039   0.00676   0.01074   0.01560
  Beta virt. eigenvalues --    0.02239   0.02580   0.02762   0.04281   0.04541
  Beta virt. eigenvalues --    0.04801   0.05063   0.05441   0.06320   0.06804

 Mulliken charges and spin densities:
               1          2
     1  C    0.017239  -0.000000
     2  C   -0.447856  -0.000000
     3  C   -0.442021   0.000000
     4  C    0.141554   0.000000
     5  C    0.578217   0.000000
     6  C    0.026549  -0.000000
     7  C   -0.588250   0.000000
     8  C   -0.228378   0.000000
     9  C    0.287866   0.000000
    10  C   -0.502993  -0.000000
    11  O   -0.731932   0.000000
    12  O   -0.725311   0.000000
    13  H    0.152978   0.000000
    14  H    0.143645  -0.000000
    15  O   -0.129212  -0.000000
    16  H    0.154272  -0.000000
    17  H    0.157988   0.000000
    18  H    0.141295  -0.000000
    19  C    0.033549   0.000000
    20  C   -0.500729  -0.000000
    21  C   -0.517978   0.000000
    22  H    0.104518   0.000000
    23  H    0.145604  -0.000000
    24  H    0.146087   0.000000
    25  H    0.144118   0.000000
    26  H    0.137542   0.000000
    27  H    0.152450  -0.000000
    28  H    0.149187   0.000000
 Sum of Mulliken charges =  -2.00000  -0.00000

 Dipole moment (field-independent basis, Debye):
    X=             -8.0690    Y=            -13.8368    Z=             -6.3979  Tot=             17.2482
 Quadrupole moment (field-independent basis, Debye-Ang):
   XX=           -117.4804   YY=           -168.6933   ZZ=           -127.0943
   XY=            -26.1516   XZ=             -2.7761   YZ=             15.3681

  Exact polarizability: 378.323  23.929 268.901  42.069 -64.269 227.885
 Approx polarizability: 405.789  28.012 304.348  49.709 -76.683 250.665

                      1                      2                      3
                      A                      A                      A
 Frequencies --     32.3029                48.8136                87.9892
 Red. masses --      3.0475                 4.0917                 4.0461
 Frc consts  --      0.0019                 0.0057                 0.0185
 IR Inten    --      7.7296                10.2873                11.8566

                      4                      5                      6
                      A                      A                      A
 Frequencies --    124.4548               141.8354               192.5966
 Red. masses --      4.3418                 4.4070                 5.9109
 Frc consts  --      0.0396                 0.0522                 0.1292
 IR Inten    --     15.9685                 3.5108                 5.0219

                      7                      8                      9
                      A                      A                      A
 Frequencies --    219.9746               242.8895               259.8978
 Red. masses --      1.1308                 1.1682                 4.4746
 Frc consts  --      0.0322                 0.0406                 0.1781
 IR Inten    --      0.2134                 0.4366                 3.5352

                     10                     11                     12
                      A                      A                      A
 Frequencies --    267.2188               283.5550               346.6059
 Red. masses --      3.5020                 4.6130                 5.3972
 Frc consts  --      0.1473                 0.2185                 0.3820
 IR Inten    --      0.6071                 9.9771                 5.8188

                     13                     14                     15
                      A                      A                      A
 Frequencies --    361.0179               385.0870               405.7449
 Red. masses --      6.7715                 3.6247                 4.1432
 Frc consts  --      0.5200                 0.3167                 0.4019
 IR Inten    --      5.6294                 0.8508                 0.4237

                     16                     17                     18
                      A                      A                      A
 Frequencies --    442.2513               457.1695               475.2779
 Red. masses --      3.1909                 3.3062                 8.9100
 Frc consts  --      0.3677                 0.4071                 1.1858
 IR Inten    --      4.2740                14.6402                 1.1263

                     19                     20                     21
                      A                      A                      A
 Frequencies --    490.5652               535.7150               573.6731
 Red. masses --      4.9051                 4.4581                 5.1931
 Frc consts  --      0.6955                 0.7538                 1.0069
 IR Inten    --      1.9934                 2.8150                11.1233

                     22                     23                     24
                      A                      A                      A
 Frequencies --    640.3913               658.3460               672.1450
 Red. masses --      2.8472                 5.0516                 5.3993
 Frc consts  --      0.6880                 1.2900                 1.4372
 IR Inten    --      1.2072                48.1226                 4.1438

                     25                     26                     27
                      A                      A                      A
 Frequencies --    715.9406               725.4220               768.7234
 Red. masses --      3.8758                 5.5649                 1.6567
 Frc consts  --      1.1705                 1.7254                 0.5768
 IR Inten    --     57.6682               103.7043                98.5861

                     28                     29                     30
                      A                      A                      A
 Frequencies --    780.1806               814.3628               833.6301
 Red. masses --      3.3554                 2.3668                 2.3494
 Frc consts  --      1.2033                 0.9248                 0.9619
 IR Inten    --      3.6796                11.3687                32.7705

                     31                     32                     33
                      A                      A                      A
 Frequencies --    836.9361               860.8492               907.4608
 Red. masses --      4.2606                 1.5595                 2.7803
 Frc consts  --      1.7584                 0.6809                 1.3490
 IR Inten    --     66.4258                 0.2286                54.6265

                     34                     35                     36
                      A                      A                      A
 Frequencies --    926.9148               942.9553               971.6570
 Red. masses --      1.3098                 1.3492                 1.3610
 Frc consts  --      0.6630                 0.7068                 0.7570
 IR Inten    --      0.5953                 2.8661                 4.5861

                     37                     38                     39
                      A                      A                      A
 Frequencies --    980.8236               989.5917              1028.9813
 Red. masses --      1.2430                 5.8769                 2.0988
 Frc consts  --      0.7045                 3.3909                 1.3093
 IR Inten    --      0.3824               355.2137                20.1729

                     40                     41                     42
                      A                      A                      A
 Frequencies --   1087.9203              1115.8167              1126.7958
 Red. masses --      3.2174                 2.3460                 2.0825
 Frc consts  --      2.2436                 1.7209                 1.5578
 IR Inten    --    144.0042                19.4654               353.4001

                     43                     44                     45
                      A                      A                      A
 Frequencies --   1145.3429              1153.9856              1162.6402
 Red. masses --      1.8554                 1.6725                 1.9825
 Frc consts  --      1.4340                 1.3122                 1.5789
 IR Inten    --     91.5801                26.9522                80.0499

                     46                     47                     48
                      A                      A                      A
 Frequencies --   1187.1421              1201.8624              1227.4580
 Red. masses --      1.9833                 1.7904                 2.9196
 Frc consts  --      1.6468                 1.5237                 2.5917
 IR Inten    --     38.2206               548.1009               204.8284

                     49                     50                     51
                      A                      A                      A
 Frequencies --   1265.4259              1320.9676              1351.0802
 Red. masses --      2.3624                 5.8314                 4.6675
 Frc consts  --      2.2289                 5.9953                 5.0199
 IR Inten    --     25.8744               476.8264              1257.4712

                     52                     53                     54
                      A                      A                      A
 Frequencies --   1363.1194              1369.1536              1375.8917
 Red. masses --      1.4513                 5.1394                 1.2646
 Frc consts  --      1.5889                 5.6763                 1.4104
 IR Inten    --    174.8493               147.4310               176.3522

                     55                     56                     57
                      A                      A                      A
 Frequencies --   1388.1413              1403.0491              1432.1812
 Red. masses --      1.3484                 1.2838                 2.9706
 Frc consts  --      1.5308                 1.4890                 3.5900
 IR Inten    --     38.8103                18.6255               111.2560

                     58                     59                     60
                      A                      A                      A
 Frequencies --   1444.2767              1470.2419              1476.3980
 Red. masses --      2.5377                 1.0558                 1.0480
 Frc consts  --      3.1188                 1.3446                 1.3459
 IR Inten    --     82.4393                 0.9159                 1.6323

                     61                     62                     63
                      A                      A                      A
 Frequencies --   1479.0502              1495.6893              1508.5464
 Red. masses --      1.0480                 1.0544                 3.5128
 Frc consts  --      1.3508                 1.3897                 4.7099
 IR Inten    --      5.0035                18.8238                43.2468

                     64                     65                     66
                      A                      A                      A
 Frequencies --   1530.4045              1590.1315              1608.9714
 Red. masses --      5.8230                 7.7339                 5.4530
 Frc consts  --      8.0355                11.5216                 8.3173
 IR Inten    --    520.5032                15.0869                 7.9667

                     67                     68                     69
                      A                      A                      A
 Frequencies --   2997.7522              3018.9161              3024.5194
 Red. masses --      1.0829                 1.0348                 1.0354
 Frc consts  --      5.7337                 5.5568                 5.5804
 IR Inten    --     49.8809                35.0381                49.7191

                     70                     71                     72
                      A                      A                      A
 Frequencies --   3081.9312              3089.2548              3094.3425
 Red. masses --      1.1021                 1.1014                 1.1019
 Frc consts  --      6.1679                 6.1932                 6.2163
 IR Inten    --     14.0849                98.8210                57.1134

                     73                     74                     75
                      A                      A                      A
 Frequencies --   3096.3447              3126.4335              3136.9314
 Red. masses --      1.1014                 1.0875                 1.0846
 Frc consts  --      6.2215                 6.2628                 6.2883
 IR Inten    --     48.6620                98.0882                16.3276

                     76                     77                     78
                      A                      A                      A
 Frequencies --   3152.6261              3169.7431              3173.9160
 Red. masses --      1.0891                 1.0908                 1.0938
 Frc consts  --      6.3779                 6.4571                 6.4920
 IR Inten    --     34.5463                41.6367                66.5224

 - Thermochemistry -
 -------------------
 Temperature   298.150 Kelvin.  Pressure   1.00000 Atm.
 Atom     1 has atomic number  6 and mass  12.00000

 Molecular mass:   216.07864 amu.
 Principal axes and moments of inertia in atomic units:
                           1         2         3
     Eigenvalues --  1740.101395268.512906541.99630
           X            0.98734  -0.09853  -0.12432
           Y            0.15443   0.77623   0.61124
           Z            0.03627  -0.62270   0.78162
 This molecule is an asymmetric top.
 Rotational symmetry number  1.
 Warning -- assumption of classical behavior for rotation
           may cause significant error
 Rotational temperatures (Kelvin)      0.04978     0.01644     0.01324
 Rotational constants (GHZ):           1.03715     0.34255     0.27587
 Zero-point vibrational energy     567474.6 (Joules/Mol)
                                  135.62968 (Kcal/Mol)
 Warning -- explicit consideration of  21 degrees of freedom as
           vibrations may cause significant error
 Vibrational temperatures:     46.48    70.23   126.60   179.06   204.07
          (Kelvin)            277.10   316.49   349.46   373.93   384.47
                              407.97   498.69   519.42   554.05   583.78
                              636.30   657.76   683.82   705.81   770.77
                              825.39   921.38   947.21   967.07  1030.08
                             1043.72  1106.02  1122.51  1171.69  1199.41
                             1204.16  1238.57  1305.63  1333.62  1356.70
                             1398.00  1411.19  1423.80  1480.47  1565.27
                             1605.41  1621.21  1647.89  1660.33  1672.78
                             1708.03  1729.21  1766.04  1820.67  1900.58
                             1943.90  1961.22  1969.91  1979.60  1997.23
                             2018.67  2060.59  2077.99  2115.35  2124.21
                             2128.02  2151.96  2170.46  2201.91  2287.84
                             2314.95  4313.10  4343.55  4351.61  4434.21
                             4444.75  4452.07  4454.95  4498.24  4513.34
                             4535.93  4560.55  4566.56

 Zero-point correction=                           0.216140 (Hartree/Particle)
 Thermal correction to Energy=                    0.230134
 Thermal correction to Enthalpy=                  0.231078
 Thermal correction to Gibbs Free Energy=         0.175041
 Sum of electronic and zero-point Energies=           -728.505493
 Sum of electronic and thermal Energies=              -728.491499
 Sum of electronic and thermal Enthalpies=            -728.490555
 Sum of electronic and thermal Free Energies=         -728.546592

                     E (Thermal)             CV                S
                      KCal/Mol        Cal/Mol-Kelvin    Cal/Mol-Kelvin
 Total                  144.411             54.895            117.941
 Electronic               0.000              0.000              0.000
 Translational            0.889              2.981             42.015
 Rotational               0.889              2.981             32.461
 Vibrational            142.634             48.934             43.465
 Vibration     1          0.594              1.983              5.683
 Vibration     2          0.595              1.978              4.865
 Vibration     3          0.601              1.958              3.704
 Vibration     4          0.610              1.929              3.030
 Vibration     5          0.615              1.911              2.779
 Vibration     6          0.635              1.850              2.203
 Vibration     7          0.647              1.811              1.959
 Vibration     8          0.659              1.775              1.782
 Vibration     9          0.668              1.746              1.662
 Vibration    10          0.672              1.733              1.614
 Vibration    11          0.682              1.704              1.512
 Vibration    12          0.725              1.582              1.182
 Vibration    13          0.735              1.553              1.118
 Vibration    14          0.754              1.502              1.019
 Vibration    15          0.771              1.458              0.942
 Vibration    16          0.802              1.378              0.820
 Vibration    17          0.815              1.345              0.774
 Vibration    18          0.832              1.305              0.723
 Vibration    19          0.846              1.271              0.682
 Vibration    20          0.891              1.171              0.575
 Vibration    21          0.930              1.088              0.497

                           ! Non-Optimized Parameters !
 Normal termination of Gaussian 16 at Sun Feb 11 03:48:08 2024.
