 Q-Chem 5.4, Q-Chem, Inc., Pleasanton, CA (2021)
 Q-Chem 5.4.0 for Intel X86 EM64T Linux

User input:
--------------------------------------------------------------
$molecule
-2 1
C                  3.4809920000      2.6399170000      0.7568340000
C                  2.8073580000      1.3425670000      0.3899870000
C                  1.4181770000      1.2353720000      0.3488270000
C                  0.7423580000      0.0435960000      0.0212140000
C                  1.5697510000     -1.0602110000     -0.2641470000
C                  2.9620440000     -1.0047070000     -0.2271710000
C                  3.8017340000     -2.2135380000     -0.5513930000
C                  3.6564870000      0.2141080000      0.1030710000
O                  4.9400580000      0.2892090000      0.1391710000
C                 -0.7423900000     -0.0433160000     -0.0205230000
C                 -1.4410020000     -1.1976640000      0.3841500000
C                 -2.8303580000     -1.3047440000      0.3493630000
C                 -3.5295070000     -2.5601590000      0.8039180000
C                 -3.6564650000     -0.2142180000     -0.1034730000
O                 -4.9400130000     -0.2894700000     -0.1401040000
C                 -2.9390210000      0.9669000000     -0.5122190000
C                 -1.5469770000      1.0229680000     -0.4678830000
C                 -3.7532110000      2.1335820000     -1.0096980000
H                  4.1262590000      2.5203020000      1.6378060000
H                  2.7436180000      3.4247350000      0.9642910000
H                  4.1462080000      2.9856650000     -0.0462770000
H                  0.8255610000      2.1128880000      0.6048590000
H                  1.0986830000     -1.9999420000     -0.5501120000
H                  3.1736140000     -3.0781690000     -0.7975160000
H                  4.4772250000     -2.0165940000     -1.3950200000
H                  4.4564080000     -2.4822000000      0.2890020000
H                 -0.8682090000     -2.0425160000      0.7648250000
H                 -4.2287230000     -2.3532160000      1.6255240000
H                 -4.1436670000     -2.9887710000      0.0000830000
H                 -2.8089490000     -3.3169280000      1.1367700000
H                 -1.0560730000      1.9301910000     -0.8182280000
H                 -3.1084010000      2.9709450000     -1.3025020000
H                 -4.3749220000      1.8495580000     -1.8696940000
H                 -4.4586470000      2.4838600000     -0.2437340000
$end
$rem
MAX_SCF_CYCLES=200
BASIS  =  6-311++G(d,p)
GUI  =  2
JOB_TYPE  =  SP
METHOD  =  B3LYP
SOLVENT_METHOD = PCM
$end
$pcm
theory = CPCM
$end
$solvent
dielectric 37.219
opticaldielectric 1.43
$end

--------------------------------------------------------------

             Standard Nuclear Orientation (Angstroms)
    I     Atom           X                Y                Z
 ----------------------------------------------------------------
    1      C       3.4809920000     2.6399170000     0.7568340000
    2      C       2.8073580000     1.3425670000     0.3899870000
    3      C       1.4181770000     1.2353720000     0.3488270000
    4      C       0.7423580000     0.0435960000     0.0212140000
    5      C       1.5697510000    -1.0602110000    -0.2641470000
    6      C       2.9620440000    -1.0047070000    -0.2271710000
    7      C       3.8017340000    -2.2135380000    -0.5513930000
    8      C       3.6564870000     0.2141080000     0.1030710000
    9      O       4.9400580000     0.2892090000     0.1391710000
   10      C      -0.7423900000    -0.0433160000    -0.0205230000
   11      C      -1.4410020000    -1.1976640000     0.3841500000
   12      C      -2.8303580000    -1.3047440000     0.3493630000
   13      C      -3.5295070000    -2.5601590000     0.8039180000
   14      C      -3.6564650000    -0.2142180000    -0.1034730000
   15      O      -4.9400130000    -0.2894700000    -0.1401040000
   16      C      -2.9390210000     0.9669000000    -0.5122190000
   17      C      -1.5469770000     1.0229680000    -0.4678830000
   18      C      -3.7532110000     2.1335820000    -1.0096980000
   19      H       4.1262590000     2.5203020000     1.6378060000
   20      H       2.7436180000     3.4247350000     0.9642910000
   21      H       4.1462080000     2.9856650000    -0.0462770000
   22      H       0.8255610000     2.1128880000     0.6048590000
   23      H       1.0986830000    -1.9999420000    -0.5501120000
   24      H       3.1736140000    -3.0781690000    -0.7975160000
   25      H       4.4772250000    -2.0165940000    -1.3950200000
   26      H       4.4564080000    -2.4822000000     0.2890020000
   27      H      -0.8682090000    -2.0425160000     0.7648250000
   28      H      -4.2287230000    -2.3532160000     1.6255240000
   29      H      -4.1436670000    -2.9887710000     0.0000830000
   30      H      -2.8089490000    -3.3169280000     1.1367700000
   31      H      -1.0560730000     1.9301910000    -0.8182280000
   32      H      -3.1084010000     2.9709450000    -1.3025020000
   33      H      -4.3749220000     1.8495580000    -1.8696940000
   34      H      -4.4586470000     2.4838600000    -0.2437340000
 ----------------------------------------------------------------

    9    -770.2740434816      1.55e-06  Convergence criterion met
 Total energy in the final basis set =     -770.2740434816

                    Orbital Energies (a.u.)
 --------------------------------------------------------------

 Alpha MOs
 -- Occupied --
-19.0302 -19.0301 -10.1803 -10.1803 -10.1432 -10.1432 -10.1431 -10.1431
-10.1410 -10.1407 -10.1385 -10.1385 -10.1384 -10.1384 -10.1373 -10.1373
-10.1372 -10.1372  -0.9466  -0.9466  -0.8256  -0.8019  -0.7522  -0.7502
 -0.7367  -0.6977  -0.6581  -0.6549  -0.6452  -0.6313  -0.5628  -0.5493
 -0.5332  -0.5208  -0.4661  -0.4613  -0.4377  -0.4231  -0.4109  -0.4047
 -0.4034  -0.3889  -0.3880  -0.3879  -0.3823  -0.3772  -0.3766  -0.3693
 -0.3690  -0.3541  -0.3455  -0.3361  -0.3360  -0.3276  -0.3197  -0.3099
 -0.3090  -0.2998  -0.2736  -0.2156  -0.2142  -0.2056  -0.2041  -0.1787
 -0.1387

          Ground-State Mulliken Net Atomic Charges

     Atom                 Charge (a.u.)
  ----------------------------------------
      1 C                    -0.392116
      2 C                     0.969310
      3 C                    -0.819122
      4 C                     0.738610
      5 C                    -0.821683
      6 C                     0.967374
      7 C                    -0.393650
      8 C                    -1.745437
      9 O                    -0.665285
     10 C                     0.735705
     11 C                    -0.822154
     12 C                     0.964650
     13 C                    -0.393603
     14 C                    -1.737031
     15 O                    -0.666727
     16 C                     0.967868
     17 C                    -0.819122
     18 C                    -0.394836
     19 H                     0.150274
     20 H                     0.134276
     21 H                     0.157239
     22 H                     0.139885
     23 H                     0.139846
     24 H                     0.134575
     25 H                     0.149832
     26 H                     0.157572
     27 H                     0.140124
     28 H                     0.149742
     29 H                     0.157492
     30 H                     0.134413
     31 H                     0.140215
     32 H                     0.134519
     33 H                     0.149923
     34 H                     0.157321
  ----------------------------------------
  Sum of atomic charges =    -2.000000

                    Cartesian Multipole Moments
 -----------------------------------------------------------------
    Charge (ESU x 10^10)
                -9.6064
    Dipole Moment (Debye)
         X       0.0058      Y      -0.0004      Z       0.0017
       Tot       0.0061
    Quadrupole Moments (Debye-Ang)
        XX    -298.5430     XY     -10.6573     YY    -117.0479
        XZ      -5.0277     YZ      -0.4684     ZZ    -119.7909

 Total job time:  68.56s(wall), 463.16s(cpu)
        *  Thank you very much for using Q-Chem.  Have a nice day.  *
