 Gaussian 16, Revision A.03,
 Gaussian 16:  ES64L-G16RevA.03 25-Dec-2016

 --------------------------------------
 #P UB3LYP/6-311++G(d,p) nosym opt freq
 --------------------------------------

 -------
 Reduced
 -------
 Symbolic Z-matrix:
 Charge = -2 Multiplicity = 1

 SCF Done:  E(UB3LYP) =  -770.024980169     A.U. after   18 cycles
 Optimization completed.
    -- Stationary point found.
 Normal termination of Gaussian 16 at Tue Jan  9 21:54:51 2024.

 ----------------------------------------------------------------------
 #P Geom=AllCheck Guess=TCheck SCRF=Check GenChk UB3LYP/6-311++G(d,p) F
 req
 ----------------------------------------------------------------------

 Structure from the checkpoint file:  "332-an.chk"
 -------
 Reduced
 -------
 Charge = -2 Multiplicity = 1

                          Input orientation:
 ---------------------------------------------------------------------
 Center     Atomic      Atomic             Coordinates (Angstroms)
 Number     Number       Type             X           Y           Z
 ---------------------------------------------------------------------
      1          6           0        3.480992    2.639917    0.756834
      2          6           0        2.807358    1.342567    0.389987
      3          6           0        1.418177    1.235372    0.348827
      4          6           0        0.742358    0.043596    0.021214
      5          6           0        1.569751   -1.060211   -0.264147
      6          6           0        2.962044   -1.004707   -0.227171
      7          6           0        3.801734   -2.213538   -0.551393
      8          6           0        3.656487    0.214108    0.103071
      9          8           0        4.940058    0.289209    0.139171
     10          6           0       -0.742390   -0.043316   -0.020523
     11          6           0       -1.441002   -1.197664    0.384150
     12          6           0       -2.830358   -1.304744    0.349363
     13          6           0       -3.529507   -2.560159    0.803918
     14          6           0       -3.656465   -0.214218   -0.103473
     15          8           0       -4.940013   -0.289470   -0.140104
     16          6           0       -2.939021    0.966900   -0.512219
     17          6           0       -1.546977    1.022968   -0.467883
     18          6           0       -3.753211    2.133582   -1.009698
     19          1           0        4.126259    2.520302    1.637806
     20          1           0        2.743618    3.424735    0.964291
     21          1           0        4.146208    2.985665   -0.046277
     22          1           0        0.825561    2.112888    0.604859
     23          1           0        1.098683   -1.999942   -0.550112
     24          1           0        3.173614   -3.078169   -0.797516
     25          1           0        4.477225   -2.016594   -1.395020
     26          1           0        4.456408   -2.482200    0.289002
     27          1           0       -0.868209   -2.042516    0.764825
     28          1           0       -4.228723   -2.353216    1.625524
     29          1           0       -4.143667   -2.988771    0.000083
     30          1           0       -2.808949   -3.316928    1.136770
     31          1           0       -1.056073    1.930191   -0.818228
     32          1           0       -3.108401    2.970945   -1.302502
     33          1           0       -4.374922    1.849558   -1.869694
     34          1           0       -4.458647    2.483860   -0.243734
 ---------------------------------------------------------------------

 SCF Done:  E(UB3LYP) =  -770.024980169     A.U. after    1 cycles

 Alpha  occ. eigenvalues --  -18.79619 -18.79618  -9.95449  -9.95449  -9.94068
 Alpha  occ. eigenvalues --   -9.94068  -9.94068  -9.94068  -9.91870  -9.91870
 Alpha  occ. eigenvalues --   -9.91865  -9.91865  -9.91663  -9.91635  -9.91588
 Alpha  occ. eigenvalues --   -9.91588  -9.91587  -9.91587  -0.71257  -0.71252
 Alpha  occ. eigenvalues --   -0.60215  -0.57976  -0.53773  -0.53616  -0.51894
 Alpha  occ. eigenvalues --   -0.48574  -0.44366  -0.44152  -0.43146  -0.41104
 Alpha  occ. eigenvalues --   -0.34074  -0.33338  -0.31675  -0.30262  -0.24650
 Alpha  occ. eigenvalues --   -0.24259  -0.22091  -0.19793  -0.19472  -0.19311
 Alpha  occ. eigenvalues --   -0.19244  -0.18275  -0.18264  -0.18179  -0.17787
 Alpha  occ. eigenvalues --   -0.16468  -0.16248  -0.15488  -0.14485  -0.13772
 Alpha  occ. eigenvalues --   -0.13480  -0.11552  -0.10839  -0.10499  -0.10244
 Alpha  occ. eigenvalues --   -0.08840  -0.08743  -0.07099  -0.04303   0.00562
 Alpha  occ. eigenvalues --    0.00697   0.02934   0.03068   0.05087   0.09059
 Alpha virt. eigenvalues --    0.16039   0.16258   0.16664   0.16836   0.19009
 Alpha virt. eigenvalues --    0.19318   0.19456   0.19883   0.19979   0.20784
 Alpha virt. eigenvalues --    0.20795   0.21082   0.21431   0.22687   0.22848

  Beta  occ. eigenvalues --  -18.79619 -18.79618  -9.95449  -9.95449  -9.94068
  Beta  occ. eigenvalues --   -9.94068  -9.94068  -9.94068  -9.91870  -9.91870
  Beta  occ. eigenvalues --   -9.91865  -9.91865  -9.91663  -9.91635  -9.91588
  Beta  occ. eigenvalues --   -9.91588  -9.91587  -9.91587  -0.71257  -0.71252
  Beta  occ. eigenvalues --   -0.60215  -0.57976  -0.53773  -0.53616  -0.51894
  Beta  occ. eigenvalues --   -0.48574  -0.44366  -0.44152  -0.43146  -0.41104
  Beta  occ. eigenvalues --   -0.34074  -0.33338  -0.31675  -0.30262  -0.24650
  Beta  occ. eigenvalues --   -0.24259  -0.22091  -0.19793  -0.19472  -0.19311
  Beta  occ. eigenvalues --   -0.19244  -0.18275  -0.18264  -0.18179  -0.17787
  Beta  occ. eigenvalues --   -0.16468  -0.16248  -0.15488  -0.14485  -0.13772
  Beta  occ. eigenvalues --   -0.13480  -0.11552  -0.10839  -0.10499  -0.10244
  Beta  occ. eigenvalues --   -0.08840  -0.08743  -0.07099  -0.04303   0.00562
  Beta  occ. eigenvalues --    0.00697   0.02934   0.03068   0.05087   0.09059
  Beta virt. eigenvalues --    0.16039   0.16258   0.16664   0.16836   0.19009
  Beta virt. eigenvalues --    0.19318   0.19456   0.19883   0.19979   0.20784
  Beta virt. eigenvalues --    0.20795   0.21082   0.21431   0.22687   0.22848

 Mulliken charges and spin densities:
               1          2
     1  C   -0.441301  -0.000000
     2  C    1.363525  -0.000000
     3  C   -0.886751   0.000000
     4  C    0.966187  -0.000000
     5  C   -0.885862   0.000000
     6  C    1.363427  -0.000000
     7  C   -0.441504   0.000000
     8  C   -2.360971   0.000000
     9  O   -0.499554  -0.000000
    10  C    0.966064  -0.000000
    11  C   -0.886287  -0.000000
    12  C    1.364203   0.000000
    13  C   -0.441359   0.000000
    14  C   -2.361278  -0.000000
    15  O   -0.499538   0.000000
    16  C    1.363117   0.000000
    17  C   -0.886292   0.000000
    18  C   -0.441504  -0.000000
    19  H    0.122930  -0.000000
    20  H    0.088343  -0.000000
    21  H    0.127993  -0.000000
    22  H    0.072145  -0.000000
    23  H    0.072126  -0.000000
    24  H    0.088370   0.000000
    25  H    0.122957  -0.000000
    26  H    0.127957  -0.000000
    27  H    0.072136  -0.000000
    28  H    0.123017  -0.000000
    29  H    0.127905  -0.000000
    30  H    0.088376   0.000000
    31  H    0.072148  -0.000000
    32  H    0.088340  -0.000000
    33  H    0.122916  -0.000000
    34  H    0.128019  -0.000000
 Sum of Mulliken charges =  -2.00000  -0.00000

 Dipole moment (field-independent basis, Debye):
    X=             -0.0001    Y=              0.0005    Z=              0.0019  Tot=              0.0019
 Quadrupole moment (field-independent basis, Debye-Ang):
   XX=           -292.2968   YY=           -132.0050   ZZ=           -122.2971
   XY=             -9.4359   XZ=             -4.8366   YZ=              0.2095

  Exact polarizability: 384.063   7.718 255.475   6.780  -4.907 155.209
 Approx polarizability: 538.362   9.523 380.266   8.970  -7.068 236.835

                      1                      2                      3
                      A                      A                      A
 Frequencies --     33.2971                56.2079                72.8646
 Red. masses --      3.4885                 6.0470                 4.5622
 Frc consts  --      0.0023                 0.0113                 0.0143
 IR Inten    --      0.0000                 5.0671                 1.6921

                      4                      5                      6
                      A                      A                      A
 Frequencies --    109.6021               115.4624               125.5971
 Red. masses --      1.7445                 1.5114                 1.0216
 Frc consts  --      0.0123                 0.0119                 0.0095
 IR Inten    --      0.5917                 5.8454                 0.0281

                      7                      8                      9
                      A                      A                      A
 Frequencies --    126.1476               132.0770               132.7235
 Red. masses --      1.0198                 1.6409                 1.7323
 Frc consts  --      0.0096                 0.0169                 0.0180
 IR Inten    --      0.0147                 1.2190                 5.1849

                     10                     11                     12
                      A                      A                      A
 Frequencies --    187.9561               219.2014               235.8987
 Red. masses --      4.2061                 3.7459                 2.9815
 Frc consts  --      0.0875                 0.1060                 0.0978
 IR Inten    --      0.0015                 0.0000                 0.3629

                     13                     14                     15
                      A                      A                      A
 Frequencies --    242.8038               245.6918               271.6848
 Red. masses --      3.8041                 3.0672                 2.5747
 Frc consts  --      0.1321                 0.1091                 0.1120
 IR Inten    --      0.0173                 0.0000                 9.4970

                     16                     17                     18
                      A                      A                      A
 Frequencies --    294.4680               300.2459               309.7603
 Red. masses --      3.8517                 4.4963                 4.1938
 Frc consts  --      0.1968                 0.2388                 0.2371
 IR Inten    --      0.0000                 0.2801                10.5688

                     19                     20                     21
                      A                      A                      A
 Frequencies --    342.4752               384.0561               481.3709
 Red. masses --      6.8654                 6.1726                 3.4221
 Frc consts  --      0.4744                 0.5364                 0.4672
 IR Inten    --      1.3147                 0.0031                 4.6749

                     22                     23                     24
                      A                      A                      A
 Frequencies --    481.7624               490.7276               504.7704
 Red. masses --      3.3699                 5.9701                 4.2053
 Frc consts  --      0.4608                 0.8471                 0.6313
 IR Inten    --      0.0131                62.2586                 4.6755

                     25                     26                     27
                      A                      A                      A
 Frequencies --    521.9529               533.5419               581.4273
 Red. masses --      4.7247                 4.7798                 3.8771
 Frc consts  --      0.7584                 0.8017                 0.7722
 IR Inten    --      0.0000                 0.3069                 0.9055

                     28                     29                     30
                      A                      A                      A
 Frequencies --    595.4006               633.6801               638.1999
 Red. masses --      4.7646                 3.3161                 2.8492
 Frc consts  --      0.9952                 0.7845                 0.6837
 IR Inten    --      0.7467                 0.4082                 0.5667

                     31                     32                     33
                      A                      A                      A
 Frequencies --    678.6930               774.7143               775.3378
 Red. masses --      5.8136                 5.7413                 5.5187
 Frc consts  --      1.5778                 2.0302                 1.9547
 IR Inten    --     24.4453                 7.8281                 1.5700

                     34                     35                     36
                      A                      A                      A
 Frequencies --    776.7841               859.7755               869.2059
 Red. masses --      4.4562                 5.0027                 1.3944
 Frc consts  --      1.5842                 2.1788                 0.6207
 IR Inten    --      0.0002                 2.0207                42.0779

                     37                     38                     39
                      A                      A                      A
 Frequencies --    872.0001               873.2580               890.0376
 Red. masses --      1.3135                 1.3146                 1.5789
 Frc consts  --      0.5884                 0.5906                 0.7369
 IR Inten    --      0.0365                 0.8896                10.6741

                     40                     41                     42
                      A                      A                      A
 Frequencies --    947.0535               956.1013               963.9908
 Red. masses --      2.9926                 2.8867                 3.8740
 Frc consts  --      1.5814                 1.5547                 2.1211
 IR Inten    --     19.7020                 2.4591                 0.0000

                     43                     44                     45
                      A                      A                      A
 Frequencies --    985.3781              1015.6653              1024.4661
 Red. masses --      1.6661                 1.7934                 1.9586
 Frc consts  --      0.9531                 1.0900                 1.2111
 IR Inten    --     30.4716                 0.0000                 1.7890

                     46                     47                     48
                      A                      A                      A
 Frequencies --   1025.7340              1044.9826              1044.9948
 Red. masses --      1.9046                 1.4853                 1.4857
 Frc consts  --      1.1807                 0.9556                 0.9559
 IR Inten    --     17.2425                 0.4377                 0.2358

                     49                     50                     51
                      A                      A                      A
 Frequencies --   1047.0193              1047.1618              1106.9691
 Red. masses --      1.4456                 1.4458                 1.6231
 Frc consts  --      0.9337                 0.9341                 1.1719
 IR Inten    --      0.0074                 0.0001                52.0206

                     52                     53                     54
                      A                      A                      A
 Frequencies --   1175.9148              1231.2981              1238.9787
 Red. masses --      1.7298                 1.9513                 5.2838
 Frc consts  --      1.4092                 1.7430                 4.7789
 IR Inten    --      0.0000                 0.9196                13.2309

                     55                     56                     57
                      A                      A                      A
 Frequencies --   1239.8305              1279.2825              1300.8457
 Red. masses --      2.7558                 1.8056                 2.7203
 Frc consts  --      2.4959                 1.7410                 2.7122
 IR Inten    --     17.8385                58.8475                 6.6035

                     58                     59                     60
                      A                      A                      A
 Frequencies --   1311.0684              1355.5543              1377.6831
 Red. masses --      3.1871                 2.6016                 1.7754
 Frc consts  --      3.2277                 2.8166                 1.9853
 IR Inten    --      0.0006                99.0966                 0.0000

                     61                     62                     63
                      A                      A                      A
 Frequencies --   1380.3600              1386.0997              1386.1486
 Red. masses --      1.4017                 1.3083                 1.3003
 Frc consts  --      1.5736                 1.4809                 1.4721
 IR Inten    --     56.9949                 0.0202                 0.0205

                     64                     65                     66
                      A                      A                      A
 Frequencies --   1390.8682              1412.8478              1451.9293
 Red. masses --      2.7986                 4.4264                 2.5173
 Frc consts  --      3.1897                 5.2059                 3.1266
 IR Inten    --      0.0000                15.2540                 2.9085

                     67                     68                     69
                      A                      A                      A
 Frequencies --   1454.6988              1454.7397              1455.6836
 Red. masses --      1.0495                 1.0550                 1.0497
 Frc consts  --      1.3086                 1.3155                 1.3106
 IR Inten    --      0.9209                 6.2746                 3.1114

                     70                     71                     72
                      A                      A                      A
 Frequencies --   1455.7054              1463.6883              1474.2823
 Red. masses --      1.0487                 2.2066                 1.4607
 Frc consts  --      1.3094                 2.7853                 1.8705
 IR Inten    --      0.4983              1049.9232                 0.0018

                     73                     74                     75
                      A                      A                      A
 Frequencies --   1492.3978              1498.5539              1500.1814
 Red. masses --      1.1458                 1.3142                 1.4801
 Frc consts  --      1.5036                 1.7388                 1.9626
 IR Inten    --     11.0988                 0.4656               523.6750

                     76                     77                     78
                      A                      A                      A
 Frequencies --   1516.8625              1533.0676              1539.9800
 Red. masses --      2.3917                 5.2486                 7.8153
 Frc consts  --      3.2423                 7.2680                10.9200
 IR Inten    --      0.0003                20.5238                 2.5914

                     79                     80                     81
                      A                      A                      A
 Frequencies --   1621.2570              1625.4897              2969.0687
 Red. masses --      5.3226                 5.4371                 1.0341
 Frc consts  --      8.2428                 8.4642                 5.3710
 IR Inten    --      0.0011               194.2755                45.6450

                     82                     83                     84
                      A                      A                      A
 Frequencies --   2969.3448              2970.7742              2972.3567
 Red. masses --      1.0342                 1.0342                 1.0343
 Frc consts  --      5.3723                 5.3778                 5.3837
 IR Inten    --    482.5727               267.3405                 0.0178

                     85                     86                     87
                      A                      A                      A
 Frequencies --   2995.5487              2995.7457              2995.8309
 Red. masses --      1.0984                 1.0983                 1.0983
 Frc consts  --      5.8070                 5.8077                 5.8078
 IR Inten    --     30.0898               297.8901                 1.0599

                     88                     89                     90
                      A                      A                      A
 Frequencies --   2995.8984              3037.3759              3037.5888
 Red. masses --      1.0983                 1.1006                 1.1005
 Frc consts  --      5.8081                 5.9824                 5.9830
 IR Inten    --      0.0664                 4.7117                39.2408

                     91                     92                     93
                      A                      A                      A
 Frequencies --   3037.9840              3038.1639              3095.6562
 Red. masses --      1.1003                 1.1003                 1.0880
 Frc consts  --      5.9834                 5.9841                 6.1429
 IR Inten    --    141.9459                 0.2011                20.9880

                     94                     95                     96
                      A                      A                      A
 Frequencies --   3099.9135              3105.2194              3108.3384
 Red. masses --      1.0870                 1.0868                 1.0868
 Frc consts  --      6.1543                 6.1742                 6.1869
 IR Inten    --     45.4539               115.9045                 0.0213

 - Thermochemistry -
 -------------------
 Temperature   298.150 Kelvin.  Pressure   1.00000 Atm.
 Atom     1 has atomic number  6 and mass  12.00000

 Molecular mass:   240.11503 amu.
 Principal axes and moments of inertia in atomic units:
                           1         2         3
     Eigenvalues --  2029.508478984.32934**********
           X            0.99789  -0.05691  -0.03118
           Y            0.05845   0.99698   0.05106
           Z            0.02818  -0.05278   0.99821
 This molecule is an asymmetric top.
 Rotational symmetry number  1.
 Warning -- assumption of classical behavior for rotation
           may cause significant error
 Rotational temperatures (Kelvin)      0.04268     0.00964     0.00818
 Rotational constants (GHZ):           0.88925     0.20088     0.17044
 Zero-point vibrational energy     708252.0 (Joules/Mol)
                                  169.27629 (Kcal/Mol)
 Warning -- explicit consideration of  28 degrees of freedom as
           vibrations may cause significant error
 Vibrational temperatures:     47.91    80.87   104.84   157.69   166.12
          (Kelvin)            180.71   181.50   190.03   190.96   270.43
                              315.38   339.41   349.34   353.50   390.89
                              423.67   431.99   445.68   492.75   552.57
                              692.59   693.15   706.05   726.25   750.97
                              767.65   836.54   856.65   911.72   918.23
                              976.49  1114.64  1115.54  1117.62  1237.03
                             1250.59  1254.61  1256.42  1280.57  1362.60
                             1375.62  1386.97  1417.74  1461.32  1473.98
                             1475.80  1503.50  1503.51  1506.43  1506.63
                             1592.68  1691.88  1771.56  1782.61  1783.84
                             1840.60  1871.63  1886.33  1950.34  1982.18
                             1986.03  1994.29  1994.36  2001.15  2032.77
                             2089.00  2092.99  2093.05  2094.40  2094.44
                             2105.92  2121.16  2147.23  2156.08  2158.43
                             2182.43  2205.74  2215.69  2332.63  2338.72
                             4271.83  4272.22  4274.28  4276.56  4309.93
                             4310.21  4310.33  4310.43  4370.11  4370.41
                             4370.98  4371.24  4453.96  4460.08  4467.72
                             4472.21

 Zero-point correction=                           0.269759 (Hartree/Particle)
 Thermal correction to Energy=                    0.287504
 Thermal correction to Enthalpy=                  0.288448
 Thermal correction to Gibbs Free Energy=         0.224207
 Sum of electronic and zero-point Energies=           -769.755221
 Sum of electronic and thermal Energies=              -769.737476
 Sum of electronic and thermal Enthalpies=            -769.736532
 Sum of electronic and thermal Free Energies=         -769.800773

                     E (Thermal)             CV                S
                      KCal/Mol        Cal/Mol-Kelvin    Cal/Mol-Kelvin
 Total                  180.411             66.891            135.207
 Electronic               0.000              0.000              0.000
 Translational            0.889              2.981             42.329
 Rotational               0.889              2.981             33.623
 Vibrational            178.634             60.929             59.255
 Vibration     1          0.594              1.983              5.623
 Vibration     2          0.596              1.975              4.586
 Vibration     3          0.599              1.967              4.074
 Vibration     4          0.606              1.942              3.276
 Vibration     5          0.608              1.937              3.175
 Vibration     6          0.611              1.927              3.012
 Vibration     7          0.611              1.927              3.004
 Vibration     8          0.612              1.921              2.916
 Vibration     9          0.613              1.921              2.906
 Vibration    10          0.633              1.856              2.248
 Vibration    11          0.647              1.812              1.966
 Vibration    12          0.655              1.786              1.834
 Vibration    13          0.659              1.775              1.782
 Vibration    14          0.660              1.770              1.761
 Vibration    15          0.675              1.725              1.585
 Vibration    16          0.689              1.684              1.448
 Vibration    17          0.693              1.673              1.416
 Vibration    18          0.699              1.655              1.364
 Vibration    19          0.722              1.591              1.201
 Vibration    20          0.753              1.504              1.023
 Vibration    21          0.838              1.291              0.706
 Vibration    22          0.838              1.291              0.705
 Vibration    23          0.847              1.271              0.682
 Vibration    24          0.860              1.239              0.646
 Vibration    25          0.877              1.201              0.605
 Vibration    26          0.889              1.176              0.579
 Vibration    27          0.938              1.071              0.483
 Vibration    28          0.953              1.042              0.458

 Optimization completed.
    -- Stationary point found.
 Normal termination of Gaussian 16 at Tue Jan  9 22:40:15 2024.
