 Gaussian 16, Revision A.03,
 Gaussian 16:  ES64L-G16RevA.03 25-Dec-2016

 --------------------------------------
 #P UB3LYP/6-311++G(d,p) nosym opt freq
 --------------------------------------

 -------
 Reduced
 -------
 Symbolic Z-matrix:
 Charge = -2 Multiplicity = 1

 SCF Done:  E(UB3LYP) =  -652.881087222     A.U. after   80 cycles
 SCF Done:  E(UB3LYP) =  -652.918007921     A.U. after   45 cycles
 SCF Done:  E(UB3LYP) =  -652.922713574     A.U. after   68 cycles
 SCF Done:  E(UB3LYP) =  -652.923222221     A.U. after   33 cycles
 SCF Done:  E(UB3LYP) =  -652.923511294     A.U. after   40 cycles
 SCF Done:  E(UB3LYP) =  -652.923813093     A.U. after   37 cycles
 SCF Done:  E(UB3LYP) =  -652.923903249     A.U. after   31 cycles
 SCF Done:  E(UB3LYP) =  -652.923986170     A.U. after   50 cycles
 SCF Done:  E(UB3LYP) =  -652.923994661     A.U. after   35 cycles
 SCF Done:  E(UB3LYP) =  -652.923996131     A.U. after   33 cycles
 SCF Done:  E(UB3LYP) =  -652.923996499     A.U. after   29 cycles
 Optimization completed.
    -- Stationary point found.
 Normal termination of Gaussian 16 at Sat Jan  6 03:56:11 2024.

 ----------------------------------------------------------------------
 #P Geom=AllCheck Guess=TCheck SCRF=Check GenChk UB3LYP/6-311++G(d,p) F
 req
 ----------------------------------------------------------------------

 Structure from the checkpoint file:  "344-an.chk"
 -------
 Reduced
 -------
 Charge = -2 Multiplicity = 1

                          Input orientation:
 ---------------------------------------------------------------------
 Center     Atomic      Atomic             Coordinates (Angstroms)
 Number     Number       Type             X           Y           Z
 ---------------------------------------------------------------------
      1          8           0        0.015705   -2.436213   -0.849816
      2          6           0        0.040850   -1.238945   -0.457083
      3          6           0        1.322038   -0.617103   -0.162787
      4          6           0        2.439636   -1.515825   -0.182314
      5          6           0        3.735376   -1.129503    0.052669
      6          6           0        4.029864    0.241181    0.308999
      7          6           0        2.985679    1.135134    0.351145
      8          6           0        1.619755    0.772516    0.159996
      9          6           0        0.682887    1.834679    0.221938
     10          6           0       -0.685233    1.848620    0.083762
     11          6           0       -1.637132    0.768991   -0.012586
     12          6           0       -3.005938    1.125958    0.139910
     13          6           0       -4.045208    0.203793    0.058132
     14          6           0       -3.746261   -1.135481   -0.158370
     15          6           0       -2.400663   -1.517888   -0.283795
     16          6           0       -1.334990   -0.610535   -0.229228
     17          1           0        2.209146   -2.553449   -0.390480
     18          1           0        4.537419   -1.864905    0.035823
     19          1           0        5.054174    0.574169    0.462036
     20          1           0        3.196871    2.186056    0.543151
     21          1           0        1.133710    2.813706    0.387874
     22          1           0       -1.148527    2.828946    0.182391
     23          1           0       -3.242086    2.175408    0.296705
     24          1           0       -5.079213    0.538390    0.145341
     25          1           0       -4.538736   -1.875189   -0.239056
     26          1           0       -2.139121   -2.552508   -0.464356
 ---------------------------------------------------------------------

 SCF Done:  E(UB3LYP) =  -652.923996499     A.U. after    9 cycles

 Alpha  occ. eigenvalues --  -18.83937 -10.00203  -9.96859  -9.95812  -9.95757
 Alpha  occ. eigenvalues --   -9.95226  -9.95175  -9.94973  -9.94724  -9.94713
 Alpha  occ. eigenvalues --   -9.94629  -9.94520  -9.94221  -9.94187  -9.94050
 Alpha  occ. eigenvalues --   -9.93868  -0.76719  -0.63653  -0.62557  -0.57331
 Alpha  occ. eigenvalues --   -0.53536  -0.52947  -0.52114  -0.48903  -0.42172
 Alpha  occ. eigenvalues --   -0.41421  -0.37446  -0.36674  -0.33647  -0.32623
 Alpha  occ. eigenvalues --   -0.27868  -0.26858  -0.25397  -0.23976  -0.22657
 Alpha  occ. eigenvalues --   -0.20984  -0.19977  -0.19418  -0.18545  -0.17954
 Alpha  occ. eigenvalues --   -0.17042  -0.15909  -0.14454  -0.13344  -0.12373
 Alpha  occ. eigenvalues --   -0.12152  -0.11475  -0.10503  -0.08861  -0.04427
 Alpha  occ. eigenvalues --   -0.03143  -0.02258  -0.00726   0.01525   0.12711
 Alpha virt. eigenvalues --    0.14180   0.14575   0.15694   0.16139   0.16218
 Alpha virt. eigenvalues --    0.16711   0.18002   0.19046   0.20430   0.20681
 Alpha virt. eigenvalues --    0.21372   0.21506   0.22989   0.23935   0.24233

  Beta  occ. eigenvalues --  -18.83937 -10.00203  -9.96859  -9.95812  -9.95757
  Beta  occ. eigenvalues --   -9.95226  -9.95175  -9.94973  -9.94724  -9.94713
  Beta  occ. eigenvalues --   -9.94629  -9.94520  -9.94221  -9.94187  -9.94050
  Beta  occ. eigenvalues --   -9.93868  -0.76719  -0.63653  -0.62557  -0.57331
  Beta  occ. eigenvalues --   -0.53536  -0.52947  -0.52114  -0.48903  -0.42172
  Beta  occ. eigenvalues --   -0.41421  -0.37446  -0.36674  -0.33647  -0.32623
  Beta  occ. eigenvalues --   -0.27868  -0.26858  -0.25397  -0.23976  -0.22657
  Beta  occ. eigenvalues --   -0.20984  -0.19977  -0.19418  -0.18545  -0.17954
  Beta  occ. eigenvalues --   -0.17042  -0.15909  -0.14454  -0.13344  -0.12373
  Beta  occ. eigenvalues --   -0.12152  -0.11475  -0.10503  -0.08861  -0.04427
  Beta  occ. eigenvalues --   -0.03143  -0.02258  -0.00726   0.01525   0.12711
  Beta virt. eigenvalues --    0.14180   0.14575   0.15694   0.16139   0.16218
  Beta virt. eigenvalues --    0.16711   0.18002   0.19046   0.20430   0.20681
  Beta virt. eigenvalues --    0.21372   0.21506   0.22989   0.23935   0.24233

 Mulliken charges and spin densities:
               1          2
     1  O   -0.340983  -0.000000
     2  C   -0.672302  -0.000000
     3  C   -0.864368   0.000001
     4  C    0.307999  -0.000000
     5  C    0.348274   0.000000
     6  C    1.534579  -0.000000
     7  C   -0.261729  -0.000000
     8  C   -1.149404   0.000000
     9  C    1.118224  -0.000000
    10  C    1.674724  -0.000001
    11  C   -1.410490   0.000000
    12  C    0.465355  -0.000000
    13  C    0.991175   0.000000
    14  C    1.130879  -0.000000
    15  C    0.018748  -0.000000
    16  C   -0.827832   0.000001
    17  H    0.201425  -0.000000
    18  H   -0.379395  -0.000000
    19  H   -1.374085  -0.000000
    20  H   -0.260313   0.000000
    21  H   -0.123698   0.000000
    22  H   -0.214396   0.000000
    23  H   -0.061878   0.000000
    24  H   -1.761862   0.000000
    25  H   -0.273005  -0.000000
    26  H    0.184356  -0.000000
 Sum of Mulliken charges =  -2.00000  -0.00000

 Dipole moment (field-independent basis, Debye):
    X=              0.4771    Y=              0.3607    Z=              0.6368  Tot=              0.8736
 Quadrupole moment (field-independent basis, Debye-Ang):
   XX=           -285.6636   YY=           -146.3936   ZZ=           -125.5256
   XY=              0.6662   XZ=             -5.6467   YZ=             -5.3097

  Exact polarizability:5712.053 -73.9252393.940 244.086 232.269 283.767
 Approx polarizability:******** -70.1111924.214 527.338 258.250 380.421

                      1                      2                      3
                      A                      A                      A
 Frequencies --     31.9578                75.0866               124.6144
 Red. masses --      6.3323                 3.8921                 4.8731
 Frc consts  --      0.0038                 0.0129                 0.0446
 IR Inten    --      4.1753                 3.5936                30.9744

                      4                      5                      6
                      A                      A                      A
 Frequencies --    200.0437               226.1030               249.4185
 Red. masses --      4.8557                 4.2285                 4.8955
 Frc consts  --      0.1145                 0.1274                 0.1794
 IR Inten    --     12.7989                13.4783                 6.6860

                      7                      8                      9
                      A                      A                      A
 Frequencies --    311.0931               321.6427               352.7886
 Red. masses --      6.7109                 5.5558                 4.1909
 Frc consts  --      0.3827                 0.3386                 0.3073
 IR Inten    --     27.4326                 9.2700                20.1641

                     10                     11                     12
                      A                      A                      A
 Frequencies --    415.2409               419.1455               453.7985
 Red. masses --      4.6887                 6.8081                 3.4169
 Frc consts  --      0.4763                 0.7047                 0.4146
 IR Inten    --     44.3668                36.9887                94.0487

                     13                     14                     15
                      A                      A                      A
 Frequencies --    490.0608               498.2499               555.9125
 Red. masses --      3.2428                 7.6498                 5.7774
 Frc consts  --      0.4589                 1.1189                 1.0520
 IR Inten    --     29.7161                20.0177                 2.5562

                     16                     17                     18
                      A                      A                      A
 Frequencies --    557.3011               575.5599               627.1957
 Red. masses --      3.4693                 6.1082                 6.6962
 Frc consts  --      0.6349                 1.1922                 1.5520
 IR Inten    --     52.1738                 1.4443                22.0700

                     19                     20                     21
                      A                      A                      A
 Frequencies --    638.2642               667.2619               704.2072
 Red. masses --      4.0774                 5.2458                 2.5414
 Frc consts  --      0.9787                 1.3761                 0.7425
 IR Inten    --      9.2643                85.0897                86.5388

                     22                     23                     24
                      A                      A                      A
 Frequencies --    721.9888               735.7471               765.2341
 Red. masses --      2.3780                 3.4318                 1.8988
 Frc consts  --      0.7303                 1.0945                 0.6551
 IR Inten    --     64.2678                 9.5867               166.1403

                     25                     26                     27
                      A                      A                      A
 Frequencies --    770.5230               784.2046               796.0810
 Red. masses --      1.2636                 3.6675                 2.1910
 Frc consts  --      0.4420                 1.3288                 0.8181
 IR Inten    --     17.5003               249.4749                83.1991

                     28                     29                     30
                      A                      A                      A
 Frequencies --    828.7008               854.7305               866.0281
 Red. masses --      1.3981                 1.7414                 4.3479
 Frc consts  --      0.5657                 0.7496                 1.9213
 IR Inten    --    146.9006               127.8679                 7.5931

                     31                     32                     33
                      A                      A                      A
 Frequencies --    895.8709               929.2297               936.9992
 Red. masses --      1.3003                 4.9173                 1.3710
 Frc consts  --      0.6148                 2.5016                 0.7092
 IR Inten    --     43.0369                68.0173                24.9725

                     34                     35                     36
                      A                      A                      A
 Frequencies --    948.9663               981.5692               997.7243
 Red. masses --      1.3293                 1.4114                 3.3321
 Frc consts  --      0.7053                 0.8012                 1.9543
 IR Inten    --    114.2427               107.5717                58.4011

                     37                     38                     39
                      A                      A                      A
 Frequencies --   1023.7020              1044.2559              1058.5862
 Red. masses --      2.6010                 1.3481                 2.3846
 Frc consts  --      1.6060                 0.8662                 1.5744
 IR Inten    --    406.3482               649.7496                30.8588

                     40                     41                     42
                      A                      A                      A
 Frequencies --   1093.2218              1125.4880              1136.6751
 Red. masses --      2.9366                 1.9404                 1.8970
 Frc consts  --      2.0678                 1.4482                 1.4441
 IR Inten    --     23.0163               123.1330               195.4446

                     43                     44                     45
                      A                      A                      A
 Frequencies --   1160.3191              1165.7982              1175.2370
 Red. masses --      1.6540                 1.1729                 1.5036
 Frc consts  --      1.3120                 0.9392                 1.2236
 IR Inten    --    256.5059               165.9444                18.4805

                     46                     47                     48
                      A                      A                      A
 Frequencies --   1209.2522              1243.4321              1280.6320
 Red. masses --      2.6710                 1.7382                 2.0652
 Frc consts  --      2.3012                 1.5834                 1.9955
 IR Inten    --    407.5785                27.4880               306.5743

                     49                     50                     51
                      A                      A                      A
 Frequencies --   1297.3216              1310.4150              1332.5924
 Red. masses --      2.1470                 2.1293                 3.5839
 Frc consts  --      2.1290                 2.1543                 3.7497
 IR Inten    --     53.1832                20.0058               108.1781

                     52                     53                     54
                      A                      A                      A
 Frequencies --   1393.9262              1406.0038              1437.2185
 Red. masses --      3.3260                 1.9328                 1.9728
 Frc consts  --      3.8077                 2.2512                 2.4009
 IR Inten    --    394.4061               274.1345                11.6184

                     55                     56                     57
                      A                      A                      A
 Frequencies --   1468.4294              1487.4426              1499.5030
 Red. masses --      2.1976                 2.4079                 3.2045
 Frc consts  --      2.7919                 3.1388                 4.2453
 IR Inten    --     49.4005               176.8618               326.4934

                     58                     59                     60
                      A                      A                      A
 Frequencies --   1507.0929              1545.5685              1566.4646
 Red. masses --      2.7886                 5.4352                 4.9373
 Frc consts  --      3.7318                 7.6497                 7.1380
 IR Inten    --    134.2659                61.9489               162.9362

                     61                     62                     63
                      A                      A                      A
 Frequencies --   1588.2850              1614.6633              3071.2210
 Red. masses --      4.8363                 5.7591                 1.0836
 Frc consts  --      7.1882                 8.8465                 6.0220
 IR Inten    --     28.9168                20.7186                31.4948

                     64                     65                     66
                      A                      A                      A
 Frequencies --   3099.0381              3099.8946              3105.3228
 Red. masses --      1.0850                 1.0846                 1.0881
 Frc consts  --      6.1396                 6.1407                 6.1822
 IR Inten    --    217.0460                38.4957                13.4530

                     67                     68                     69
                      A                      A                      A
 Frequencies --   3111.7326              3127.5888              3130.6938
 Red. masses --      1.0880                 1.0881                 1.0936
 Frc consts  --      6.2068                 6.2712                 6.3152
 IR Inten    --    344.9996               174.9597               604.0629

                     70                     71                     72
                      A                      A                      A
 Frequencies --   3134.3346              3183.3046              3191.0071
 Red. masses --      1.0944                 1.0900                 1.0888
 Frc consts  --      6.3347                 6.5077                 6.5318
 IR Inten    --    147.1280                16.0188                 5.5187

 - Thermochemistry -
 -------------------
 Temperature   298.150 Kelvin.  Pressure   1.00000 Atm.
 Atom     1 has atomic number  8 and mass  15.99491

 Molecular mass:   206.07317 amu.
 Principal axes and moments of inertia in atomic units:
                           1         2         3
     Eigenvalues --  1414.546224761.446146137.38916
           X            0.99950  -0.00849  -0.03054
           Y            0.00247   0.98142  -0.19188
           Z            0.03160   0.19171   0.98094
 This molecule is an asymmetric top.
 Rotational symmetry number  1.
 Warning -- assumption of classical behavior for rotation
           may cause significant error
 Rotational temperatures (Kelvin)      0.06123     0.01819     0.01411
 Rotational constants (GHZ):           1.27584     0.37903     0.29406
 Zero-point vibrational energy     518785.8 (Joules/Mol)
                                  123.99278 (Kcal/Mol)
 Warning -- explicit consideration of  17 degrees of freedom as
           vibrations may cause significant error
 Vibrational temperatures:     45.98   108.03   179.29   287.82   325.31
          (Kelvin)            358.86   447.59   462.77   507.58   597.44
                              603.06   652.91   705.09   716.87   799.83
                              801.83   828.10   902.39   918.32   960.04
                             1013.20  1038.78  1058.58  1101.00  1108.61
                             1128.30  1145.38  1192.32  1229.77  1246.02
                             1288.96  1336.95  1348.13  1365.35  1412.26
                             1435.50  1472.88  1502.45  1523.07  1572.90
                             1619.33  1635.42  1669.44  1677.32  1690.90
                             1739.84  1789.02  1842.54  1866.56  1885.39
                             1917.30  2005.55  2022.93  2067.84  2112.74
                             2140.10  2157.45  2168.37  2223.73  2253.79
                             2285.19  2323.14  4418.80  4458.82  4460.06
                             4467.87  4477.09  4499.90  4504.37  4509.61
                             4580.07  4591.15

 Zero-point correction=                           0.197595 (Hartree/Particle)
 Thermal correction to Energy=                    0.209233
 Thermal correction to Enthalpy=                  0.210177
 Thermal correction to Gibbs Free Energy=         0.159453
 Sum of electronic and zero-point Energies=           -652.726401
 Sum of electronic and thermal Energies=              -652.714764
 Sum of electronic and thermal Enthalpies=            -652.713819
 Sum of electronic and thermal Free Energies=         -652.764543

                     E (Thermal)             CV                S
                      KCal/Mol        Cal/Mol-Kelvin    Cal/Mol-Kelvin
 Total                  131.296             48.744            106.758
 Electronic               0.000              0.000              0.000
 Translational            0.889              2.981             41.873
 Rotational               0.889              2.981             32.092
 Vibrational            129.518             42.782             32.793
 Vibration     1          0.594              1.983              5.704
 Vibration     2          0.599              1.966              4.015
 Vibration     3          0.610              1.928              3.028
 Vibration     4          0.638              1.840              2.133
 Vibration     5          0.650              1.801              1.910
 Vibration     6          0.662              1.764              1.735
 Vibration     7          0.700              1.653              1.357
 Vibration     8          0.707              1.632              1.302
 Vibration     9          0.729              1.570              1.154
 Vibration    10          0.779              1.437              0.908
 Vibration    11          0.782              1.429              0.895
 Vibration    12          0.812              1.352              0.784
 Vibration    13          0.846              1.272              0.683
 Vibration    14          0.854              1.254              0.663
 Vibration    15          0.911              1.127              0.532
 Vibration    16          0.913              1.124              0.529
 Vibration    17          0.932              1.084              0.494

                           ! Non-Optimized Parameters !
 Normal termination of Gaussian 16 at Sat Jan  6 04:49:44 2024.
