 Gaussian 16, Revision A.03,
 Gaussian 16:  ES64L-G16RevA.03 25-Dec-2016

 ----------------------------------------------------------------
 #P UB3LYP/6-311++G(d,p) SCRF=(PCM,Solvent=n,n-DiMethylFormamide)
 ----------------------------------------------------------------

 -------
 Reduced
 -------
 Symbolic Z-matrix:
 Charge = -2 Multiplicity = 1

                         Standard orientation:
 ---------------------------------------------------------------------
 Center     Atomic      Atomic             Coordinates (Angstroms)
 Number     Number       Type             X           Y           Z
 ---------------------------------------------------------------------
      1          6           0        4.768498   -1.409603    0.091373
      2          8           0        4.400829   -0.052819   -0.043874
      3          6           0        3.040502    0.243070   -0.028022
      4          6           0        2.733340    1.630583   -0.024907
      5          6           0        1.415077    2.029107   -0.012313
      6          6           0        0.341322    1.105860   -0.002263
      7          6           0       -1.023910    1.602366    0.012021
      8          8           0       -1.304170    2.850308    0.022028
      9          6           0       -2.043736    0.569945    0.008519
     10          6           0       -3.409661    0.943742    0.017026
     11          6           0       -4.428745    0.012153    0.014760
     12          6           0       -4.109187   -1.374693    0.005785
     13          6           0       -2.788290   -1.772263   -0.004816
     14          6           0       -1.717412   -0.841190   -0.005625
     15          6           0       -0.354014   -1.331055   -0.018062
     16          8           0       -0.066214   -2.581156   -0.031273
     17          6           0        0.661646   -0.299018   -0.016115
     18          6           0        2.032062   -0.691943   -0.025573
     19          1           0        4.427220   -2.011895   -0.760401
     20          1           0        4.354356   -1.849541    1.009542
     21          1           0        5.859802   -1.444621    0.137229
     22          1           0        3.549202    2.347160   -0.030541
     23          1           0        1.151083    3.081954   -0.008848
     24          1           0       -3.618805    2.009170    0.024769
     25          1           0       -5.468533    0.333779    0.021628
     26          1           0       -4.905104   -2.117495    0.006546
     27          1           0       -2.513918   -2.822606   -0.012509
     28          1           0        2.216187   -1.758941   -0.033198
 ---------------------------------------------------------------------

 SCF Done:  E(UB3LYP) =  -803.746777655     A.U. after   17 cycles

 The electronic state is 1-A.
 Alpha  occ. eigenvalues --  -19.14081 -19.02024 -19.01518 -10.21010 -10.20907
 Alpha  occ. eigenvalues --  -10.17366 -10.16727 -10.15023 -10.14885 -10.14731
 Alpha  occ. eigenvalues --  -10.14589 -10.14432 -10.14314 -10.14120 -10.13526
 Alpha  occ. eigenvalues --  -10.13265 -10.13256 -10.13191  -1.04986  -0.94105
 Alpha  occ. eigenvalues --   -0.93435  -0.82695  -0.81944  -0.75329  -0.72552
 Alpha  occ. eigenvalues --   -0.72024  -0.71680  -0.67834  -0.63172  -0.60419
 Alpha  occ. eigenvalues --   -0.58296  -0.56036  -0.52810  -0.51598  -0.50351
 Alpha  occ. eigenvalues --   -0.46410  -0.45964  -0.45616  -0.43706  -0.42693
 Alpha  occ. eigenvalues --   -0.41299  -0.40355  -0.39636  -0.38120  -0.38000
 Alpha  occ. eigenvalues --   -0.37121  -0.36618  -0.35734  -0.35167  -0.33519
 Alpha  occ. eigenvalues --   -0.32485  -0.32240  -0.31849  -0.31204  -0.29801
 Alpha  occ. eigenvalues --   -0.28227  -0.23300  -0.22387  -0.22039  -0.20272
 Alpha  occ. eigenvalues --   -0.20105  -0.19282  -0.10123
 Alpha virt. eigenvalues --   -0.02400  -0.00071   0.00612   0.00741   0.01308
 Alpha virt. eigenvalues --    0.02154   0.02299   0.02377   0.03789   0.03846
 Alpha virt. eigenvalues --    0.04060   0.04781   0.05543   0.05898   0.06518

  Beta  occ. eigenvalues --  -19.14081 -19.02024 -19.01518 -10.21010 -10.20907
  Beta  occ. eigenvalues --  -10.17366 -10.16727 -10.15023 -10.14885 -10.14731
  Beta  occ. eigenvalues --  -10.14589 -10.14432 -10.14314 -10.14120 -10.13526
  Beta  occ. eigenvalues --  -10.13265 -10.13256 -10.13191  -1.04986  -0.94105
  Beta  occ. eigenvalues --   -0.93435  -0.82695  -0.81944  -0.75329  -0.72552
  Beta  occ. eigenvalues --   -0.72024  -0.71680  -0.67834  -0.63172  -0.60419
  Beta  occ. eigenvalues --   -0.58296  -0.56036  -0.52810  -0.51598  -0.50351
  Beta  occ. eigenvalues --   -0.46410  -0.45964  -0.45616  -0.43706  -0.42693
  Beta  occ. eigenvalues --   -0.41299  -0.40355  -0.39636  -0.38120  -0.38000
  Beta  occ. eigenvalues --   -0.37121  -0.36618  -0.35734  -0.35167  -0.33519
  Beta  occ. eigenvalues --   -0.32485  -0.32240  -0.31849  -0.31204  -0.29801
  Beta  occ. eigenvalues --   -0.28227  -0.23300  -0.22387  -0.22039  -0.20272
  Beta  occ. eigenvalues --   -0.20105  -0.19282  -0.10123
  Beta virt. eigenvalues --   -0.02400  -0.00071   0.00612   0.00741   0.01308
  Beta virt. eigenvalues --    0.02154   0.02299   0.02377   0.03789   0.03846
  Beta virt. eigenvalues --    0.04060   0.04781   0.05543   0.05898   0.06518

 Mulliken charges and spin densities:
               1          2
     1  C   -0.332863  -0.000000
     2  O   -0.232883   0.000000
     3  C   -0.702555  -0.000000
     4  C   -0.403220  -0.000000
     5  C    0.085063   0.000000
     6  C    0.209141   0.000000
     7  C   -0.657033   0.000000
     8  O   -0.643750  -0.000000
     9  C    0.130992  -0.000000
    10  C    0.051938  -0.000000
    11  C   -0.519292   0.000000
    12  C   -0.513545   0.000000
    13  C   -0.007431   0.000000
    14  C    0.329228   0.000000
    15  C   -0.613008   0.000000
    16  O   -0.668064  -0.000000
    17  C    0.542242  -0.000000
    18  C    0.395971  -0.000000
    19  H    0.154493  -0.000000
    20  H    0.154416   0.000000
    21  H    0.179279   0.000000
    22  H    0.181778   0.000000
    23  H    0.153642  -0.000000
    24  H    0.143277   0.000000
    25  H    0.152593  -0.000000
    26  H    0.154785  -0.000000
    27  H    0.140873   0.000000
    28  H    0.133935   0.000000
 Sum of Mulliken charges =  -2.00000  -0.00000

 Dipole moment (field-independent basis, Debye):
    X=              6.4952    Y=             -2.1298    Z=              0.2287  Tot=              6.8393
 Quadrupole moment (field-independent basis, Debye-Ang):
   XX=           -141.1053   YY=           -162.6847   ZZ=           -117.5068
   XY=              1.5339   XZ=              1.0614   YZ=             -0.6024

 Normal termination of Gaussian 16 at Sun Jan 14 01:25:47 2024.
