 Gaussian 16, Revision A.03,
 Gaussian 16:  ES64L-G16RevA.03 25-Dec-2016

 ----------------------------------------------------------------
 #P UB3LYP/6-311++G(d,p) SCRF=(PCM,Solvent=n,n-DiMethylFormamide)
 ----------------------------------------------------------------

 -------
 Reduced
 -------
 Symbolic Z-matrix:
 Charge = -2 Multiplicity = 1

                         Standard orientation:
 ---------------------------------------------------------------------
 Center     Atomic      Atomic             Coordinates (Angstroms)
 Number     Number       Type             X           Y           Z
 ---------------------------------------------------------------------
      1          6           0        1.138965   -0.021090    1.207492
      2          6           0        2.440462   -0.028780    1.840771
      3          6           0        3.618272   -0.016264    1.133409
      4          6           0        3.704186    0.006007   -0.321175
      5          6           0        2.443180    0.014335   -0.948138
      6          6           0        1.187086    0.002325   -0.246954
      7          8           0        0.066927   -0.034623    1.906562
      8          8           0        4.857221    0.016313   -0.913420
      9          6           0       -1.403511    0.005441   -0.347833
     10          6           0       -2.082318   -1.212892   -0.161580
     11          6           0       -2.081610    1.218367   -0.127105
     12          6           0       -3.422220    1.199449    0.265602
     13          6           0       -3.422906   -1.204398    0.231344
     14          6           0       -4.102094   -0.005029    0.443282
     15          1           0        2.442199   -0.045713    2.930658
     16          1           0        4.571580   -0.023070    1.665417
     17          1           0        2.405903    0.031230   -2.032972
     18          1           0       -3.936668    2.142466    0.441390
     19          1           0       -3.937847   -2.151743    0.380364
     20          1           0       -5.145681   -0.009063    0.748338
     21          6           0       -0.026787    0.014714   -1.010477
     22          8           0       -0.094401    0.034697   -2.267218
     23          6           0       -1.342339    2.526422   -0.268576
     24          1           0       -0.879266    2.614133   -1.255690
     25          1           0       -0.537046    2.578471    0.470723
     26          1           0       -2.015768    3.377505   -0.116995
     27          6           0       -1.343365   -2.516600   -0.339489
     28          1           0       -0.537222   -2.588155    0.397219
     29          1           0       -0.881578   -2.577710   -1.329233
     30          1           0       -2.016590   -3.371492   -0.210041
 ---------------------------------------------------------------------

 SCF Done:  E(UB3LYP) =  -804.964417822     A.U. after   17 cycles

 The electronic state is 1-A.
 Alpha  occ. eigenvalues --  -19.07046 -19.03313 -19.01724 -10.21990 -10.19275
 Alpha  occ. eigenvalues --  -10.17473 -10.16801 -10.16798 -10.16309 -10.16086
 Alpha  occ. eigenvalues --  -10.15831 -10.15825 -10.15273 -10.15268 -10.14376
 Alpha  occ. eigenvalues --  -10.13640 -10.13231 -10.11829  -0.99156  -0.95124
 Alpha  occ. eigenvalues --   -0.92904  -0.84882  -0.78575  -0.77112  -0.75426
 Alpha  occ. eigenvalues --   -0.71919  -0.68412  -0.66889  -0.65765  -0.61459
 Alpha  occ. eigenvalues --   -0.57796  -0.56026  -0.54538  -0.51464  -0.47147
 Alpha  occ. eigenvalues --   -0.46724  -0.44456  -0.43487  -0.43055  -0.41479
 Alpha  occ. eigenvalues --   -0.40657  -0.40390  -0.39691  -0.39262  -0.39167
 Alpha  occ. eigenvalues --   -0.38246  -0.37438  -0.36394  -0.36162  -0.34155
 Alpha  occ. eigenvalues --   -0.34137  -0.33953  -0.33040  -0.32098  -0.32071
 Alpha  occ. eigenvalues --   -0.31865  -0.24776  -0.23468  -0.23158  -0.22230
 Alpha  occ. eigenvalues --   -0.21820  -0.19785  -0.19442  -0.13030
 Alpha virt. eigenvalues --   -0.03339  -0.00153   0.00066   0.00317   0.00872
 Alpha virt. eigenvalues --    0.01321   0.01800   0.02270   0.03328   0.03703
 Alpha virt. eigenvalues --    0.04007   0.04386   0.05132   0.05379   0.05817

  Beta  occ. eigenvalues --  -19.07046 -19.03313 -19.01724 -10.21990 -10.19275
  Beta  occ. eigenvalues --  -10.17473 -10.16801 -10.16798 -10.16309 -10.16086
  Beta  occ. eigenvalues --  -10.15831 -10.15825 -10.15273 -10.15268 -10.14376
  Beta  occ. eigenvalues --  -10.13640 -10.13231 -10.11829  -0.99156  -0.95124
  Beta  occ. eigenvalues --   -0.92904  -0.84882  -0.78575  -0.77112  -0.75426
  Beta  occ. eigenvalues --   -0.71919  -0.68412  -0.66889  -0.65765  -0.61459
  Beta  occ. eigenvalues --   -0.57796  -0.56026  -0.54538  -0.51464  -0.47147
  Beta  occ. eigenvalues --   -0.46724  -0.44456  -0.43487  -0.43055  -0.41479
  Beta  occ. eigenvalues --   -0.40657  -0.40390  -0.39691  -0.39262  -0.39167
  Beta  occ. eigenvalues --   -0.38246  -0.37438  -0.36394  -0.36162  -0.34155
  Beta  occ. eigenvalues --   -0.34137  -0.33953  -0.33040  -0.32098  -0.32071
  Beta  occ. eigenvalues --   -0.31865  -0.24776  -0.23468  -0.23158  -0.22230
  Beta  occ. eigenvalues --   -0.21820  -0.19785  -0.19442  -0.13030
  Beta virt. eigenvalues --   -0.03339  -0.00153   0.00066   0.00317   0.00872
  Beta virt. eigenvalues --    0.01321   0.01800   0.02270   0.03328   0.03703
  Beta virt. eigenvalues --    0.04007   0.04386   0.05132   0.05379   0.05817

 Mulliken charges and spin densities:
               1          2
     1  C   -0.635321  -0.000000
     2  C   -0.521387   0.000000
     3  C    0.009051  -0.000000
     4  C   -0.648223   0.000000
     5  C    0.051277  -0.000000
     6  C    0.630970   0.000000
     7  O   -0.476923  -0.000000
     8  O   -0.723825  -0.000000
     9  C    1.337286  -0.000000
    10  C    0.216603   0.000000
    11  C    0.210674  -0.000000
    12  C   -0.618762   0.000000
    13  C   -0.619173   0.000000
    14  C   -0.236407  -0.000000
    15  H    0.157249  -0.000000
    16  H    0.157200  -0.000000
    17  H    0.150031  -0.000000
    18  H    0.140653  -0.000000
    19  H    0.140491  -0.000000
    20  H    0.184143  -0.000000
    21  C   -0.417318   0.000000
    22  O   -0.430302  -0.000000
    23  C   -0.520369   0.000000
    24  H    0.165948  -0.000000
    25  H    0.172710  -0.000000
    26  H    0.153192  -0.000000
    27  C   -0.521717   0.000000
    28  H    0.173230  -0.000000
    29  H    0.165836   0.000000
    30  H    0.153183   0.000000
 Sum of Mulliken charges =  -2.00000  -0.00000

 Dipole moment (field-independent basis, Debye):
    X=            -18.1872    Y=             -0.0481    Z=              3.5514  Tot=             18.5307
 Quadrupole moment (field-independent basis, Debye-Ang):
   XX=           -212.1064   YY=           -110.1165   ZZ=           -145.4613
   XY=             -0.2950   XZ=             16.6497   YZ=              0.5709

 Normal termination of Gaussian 16 at Wed Jan 24 22:54:38 2024.
