 Gaussian 16, Revision A.03,
 Gaussian 16:  ES64L-G16RevA.03 25-Dec-2016

 --------------------------------------
 #P UB3LYP/6-311++G(d,p) nosym opt freq
 --------------------------------------

 -------
 Reduced
 -------
 Symbolic Z-matrix:
 Charge = -2 Multiplicity = 1

 SCF Done:  E(UB3LYP) =  -804.695965712     A.U. after   31 cycles
 Optimization completed.
    -- Stationary point found.
 Normal termination of Gaussian 16 at Wed Jan 10 05:10:22 2024.

 ----------------------------------------------------------------------
 #P Geom=AllCheck Guess=TCheck SCRF=Check GenChk UB3LYP/6-311++G(d,p) F
 req
 ----------------------------------------------------------------------

 Structure from the checkpoint file:  "078-an.chk"
 -------
 Reduced
 -------
 Charge = -2 Multiplicity = 1

                          Input orientation:
 ---------------------------------------------------------------------
 Center     Atomic      Atomic             Coordinates (Angstroms)
 Number     Number       Type             X           Y           Z
 ---------------------------------------------------------------------
      1          6           0        0.517867    1.674956   -2.013604
      2          6           0       -0.828283    1.967378   -2.457863
      3          6           0       -1.776754    0.995290   -2.665712
      4          6           0       -1.550383   -0.430681   -2.468084
      5          6           0       -0.243491   -0.726887   -2.034974
      6          6           0        0.779071    0.258473   -1.804739
      7          8           0        1.369908    2.613002   -1.834037
      8          8           0       -2.499895   -1.285537   -2.687165
      9          6           0        3.212650    0.796832   -1.091128
     10          6           0        4.162657    1.058353   -2.095567
     11          6           0        3.440452    1.261403    0.217310
     12          6           0        4.610122    1.968751    0.506002
     13          6           0        5.324208    1.767820   -1.780778
     14          6           0        5.558897    2.223212   -0.483766
     15          1           0       -1.059398    3.019586   -2.623958
     16          1           0       -2.777085    1.275292   -3.001584
     17          1           0        0.019649   -1.765491   -1.860049
     18          1           0        4.774452    2.330852    1.519272
     19          1           0        6.050009    1.972067   -2.565845
     20          1           0        6.466415    2.773966   -0.248754
     21          6           0        2.070250   -0.181055   -1.361705
     22          8           0        2.397721   -1.378217   -1.152098
     23          6           0        2.398143    1.034615    1.284878
     24          1           0        2.153451   -0.027331    1.379330
     25          1           0        1.473785    1.555481    1.016496
     26          1           0        2.742754    1.405897    2.256587
     27          6           0        3.895632    0.613907   -3.512791
     28          1           0        3.007345    1.123422   -3.898883
     29          1           0        3.696416   -0.460665   -3.559508
     30          1           0        4.745907    0.844530   -4.164461
 ---------------------------------------------------------------------

 SCF Done:  E(UB3LYP) =  -804.695965712     A.U. after    1 cycles

 Alpha  occ. eigenvalues --  -18.82662 -18.78821 -18.75445  -9.97726  -9.96416
 Alpha  occ. eigenvalues --   -9.96143  -9.96142  -9.95980  -9.95976  -9.95148
 Alpha  occ. eigenvalues --   -9.95051  -9.95042  -9.94644  -9.92020  -9.89942
 Alpha  occ. eigenvalues --   -9.89290  -9.88610  -9.86389  -0.74823  -0.70488
 Alpha  occ. eigenvalues --   -0.66580  -0.64282  -0.56678  -0.54904  -0.53643
 Alpha  occ. eigenvalues --   -0.48239  -0.46904  -0.46818  -0.41211  -0.39176
 Alpha  occ. eigenvalues --   -0.35760  -0.34892  -0.30052  -0.29677  -0.26283
 Alpha  occ. eigenvalues --   -0.25744  -0.21838  -0.20845  -0.19872  -0.19696
 Alpha  occ. eigenvalues --   -0.19412  -0.19321  -0.18550  -0.17682  -0.16400
 Alpha  occ. eigenvalues --   -0.15699  -0.14327  -0.13511  -0.13144  -0.12481
 Alpha  occ. eigenvalues --   -0.11645  -0.10860  -0.08868  -0.08403  -0.07026
 Alpha  occ. eigenvalues --   -0.06305  -0.02764  -0.02703   0.01719   0.01788
 Alpha  occ. eigenvalues --    0.02924   0.04722   0.06768   0.12508
 Alpha virt. eigenvalues --    0.14255   0.15661   0.16628   0.18297   0.18743
 Alpha virt. eigenvalues --    0.19540   0.20035   0.20339   0.20769   0.20829
 Alpha virt. eigenvalues --    0.21364   0.22532   0.22610   0.23315   0.23609

  Beta  occ. eigenvalues --  -18.82662 -18.78821 -18.75445  -9.97726  -9.96416
  Beta  occ. eigenvalues --   -9.96143  -9.96142  -9.95980  -9.95976  -9.95148
  Beta  occ. eigenvalues --   -9.95051  -9.95042  -9.94644  -9.92020  -9.89942
  Beta  occ. eigenvalues --   -9.89290  -9.88610  -9.86389  -0.74823  -0.70488
  Beta  occ. eigenvalues --   -0.66580  -0.64282  -0.56678  -0.54904  -0.53643
  Beta  occ. eigenvalues --   -0.48239  -0.46904  -0.46818  -0.41211  -0.39176
  Beta  occ. eigenvalues --   -0.35760  -0.34892  -0.30052  -0.29677  -0.26283
  Beta  occ. eigenvalues --   -0.25744  -0.21838  -0.20845  -0.19872  -0.19696
  Beta  occ. eigenvalues --   -0.19412  -0.19321  -0.18550  -0.17682  -0.16400
  Beta  occ. eigenvalues --   -0.15699  -0.14327  -0.13511  -0.13144  -0.12481
  Beta  occ. eigenvalues --   -0.11645  -0.10860  -0.08868  -0.08403  -0.07026
  Beta  occ. eigenvalues --   -0.06305  -0.02764  -0.02703   0.01719   0.01788
  Beta  occ. eigenvalues --    0.02924   0.04722   0.06768   0.12508
  Beta virt. eigenvalues --    0.14255   0.15661   0.16628   0.18297   0.18743
  Beta virt. eigenvalues --    0.19540   0.20035   0.20339   0.20769   0.20829
  Beta virt. eigenvalues --    0.21364   0.22532   0.22610   0.23315   0.23609

 Mulliken charges and spin densities:
               1          2
     1  C   -0.769356  -0.000000
     2  C   -0.372466   0.000000
     3  C    0.211947  -0.000000
     4  C   -1.088577  -0.000000
     5  C    0.183412  -0.000000
     6  C    0.854114   0.000000
     7  O   -0.362810  -0.000000
     8  O   -0.578691   0.000000
     9  C    1.494587   0.000000
    10  C    0.341386   0.000000
    11  C    0.336743  -0.000000
    12  C   -0.682114  -0.000000
    13  C   -0.681940  -0.000000
    14  C   -0.132623  -0.000000
    15  H    0.084245  -0.000000
    16  H    0.074686  -0.000000
    17  H    0.133939  -0.000000
    18  H    0.047710  -0.000000
    19  H    0.047575  -0.000000
    20  H    0.105827   0.000000
    21  C   -0.606522  -0.000000
    22  O   -0.350727  -0.000000
    23  C   -0.581579   0.000000
    24  H    0.151456  -0.000000
    25  H    0.191142  -0.000000
    26  H    0.094190  -0.000000
    27  C   -0.582924   0.000000
    28  H    0.191887  -0.000000
    29  H    0.151215  -0.000000
    30  H    0.094269   0.000000
 Sum of Mulliken charges =  -2.00000   0.00000

 Dipole moment (field-independent basis, Debye):
    X=             -5.1669    Y=             -1.8249    Z=             17.9907  Tot=             18.8067
 Quadrupole moment (field-independent basis, Debye-Ang):
   XX=           -191.7891   YY=           -153.9849   ZZ=           -157.1200
   XY=            -22.6953   XZ=            -10.7294   YZ=             -0.0921

  Exact polarizability: 374.669  27.438 220.269  35.211  11.504 264.451
 Approx polarizability: 512.996  -5.875 411.844  64.719 -11.367 328.556

                      1                      2                      3
                      A                      A                      A
 Frequencies --      8.6111                25.7240                69.3975
 Red. masses --      4.6963                 7.0316                 4.5493
 Frc consts  --      0.0002                 0.0027                 0.0129
 IR Inten    --      0.0822                 0.0022                 0.0581

                      4                      5                      6
                      A                      A                      A
 Frequencies --     92.6874               113.8867               137.6282
 Red. masses --      6.0449                 3.4339                 1.2080
 Frc consts  --      0.0306                 0.0262                 0.0135
 IR Inten    --      4.9136                 9.0345                 1.1671

                      7                      8                      9
                      A                      A                      A
 Frequencies --    142.6317               148.8468               174.3630
 Red. masses --      1.0732                 4.3036                 5.1292
 Frc consts  --      0.0129                 0.0562                 0.0919
 IR Inten    --      0.8587                 9.8178                 0.2577

                     10                     11                     12
                      A                      A                      A
 Frequencies --    196.7077               228.0642               231.1626
 Red. masses --      6.7037                 4.6473                 2.7962
 Frc consts  --      0.1528                 0.1424                 0.0880
 IR Inten    --      0.4851                21.7793                 0.0568

                     13                     14                     15
                      A                      A                      A
 Frequencies --    307.1999               329.6855               340.9021
 Red. masses --      3.8332                 5.6572                 6.7816
 Frc consts  --      0.2131                 0.3623                 0.4643
 IR Inten    --      0.2421                 0.1217                 0.6227

                     16                     17                     18
                      A                      A                      A
 Frequencies --    392.5445               418.8320               426.5199
 Red. masses --      5.4285                 3.2392                 7.2744
 Frc consts  --      0.4928                 0.3348                 0.7797
 IR Inten    --      6.5235                 0.5485                 2.4047

                     19                     20                     21
                      A                      A                      A
 Frequencies --    460.1604               471.4859               508.6431
 Red. masses --      3.1742                11.1463                 3.1854
 Frc consts  --      0.3960                 1.4599                 0.4856
 IR Inten    --      0.3358                33.4475                 0.5754

                     22                     23                     24
                      A                      A                      A
 Frequencies --    531.3541               545.2320               558.2170
 Red. masses --      4.3718                 5.0663                 2.3956
 Frc consts  --      0.7272                 0.8874                 0.4398
 IR Inten    --      0.1393                13.3563                15.8067

                     25                     26                     27
                      A                      A                      A
 Frequencies --    575.4913               625.3331               659.3338
 Red. masses --      4.5742                 4.3919                 6.8435
 Frc consts  --      0.8926                 1.0119                 1.7528
 IR Inten    --      2.8367                 0.6503                19.0867

                     28                     29                     30
                      A                      A                      A
 Frequencies --    719.6562               727.9753               743.5112
 Red. masses --      3.6687                 1.4915                 3.2687
 Frc consts  --      1.1195                 0.4657                 1.0646
 IR Inten    --      0.9418                51.0239                29.5128

                     31                     32                     33
                      A                      A                      A
 Frequencies --    762.8730               774.4742               811.0123
 Red. masses --      3.1060                 5.7121                 5.9809
 Frc consts  --      1.0650                 2.0186                 2.3178
 IR Inten    --     11.2431                 2.5395                65.9645

                     34                     35                     36
                      A                      A                      A
 Frequencies --    823.7875               829.8073               848.4809
 Red. masses --      2.2763                 1.9994                 6.6359
 Frc consts  --      0.9101                 0.8112                 2.8147
 IR Inten    --      5.2805                41.0476                 6.3940

                     37                     38                     39
                      A                      A                      A
 Frequencies --    855.9849               910.8946               927.7620
 Red. masses --      1.3209                 1.2533                 2.5975
 Frc consts  --      0.5702                 0.6127                 1.3173
 IR Inten    --      0.0023                 2.1764                 2.7248

                     40                     41                     42
                      A                      A                      A
 Frequencies --    933.9683               968.3381              1009.2184
 Red. masses --      1.3100                 2.7608                 1.5983
 Frc consts  --      0.6733                 1.5252                 0.9592
 IR Inten    --      0.1710                49.8783                 0.2382

                     43                     44                     45
                      A                      A                      A
 Frequencies --   1049.2624              1050.1048              1055.1763
 Red. masses --      1.5597                 1.5975                 1.6520
 Frc consts  --      1.0117                 1.0379                 1.0837
 IR Inten    --      2.7677                 1.4184                 0.1545

                     46                     47                     48
                      A                      A                      A
 Frequencies --   1081.7940              1101.7270              1134.7180
 Red. masses --      2.5446                 1.6534                 1.6968
 Frc consts  --      1.7545                 1.1824                 1.2872
 IR Inten    --     16.6959                44.8541               100.5735

                     49                     50                     51
                      A                      A                      A
 Frequencies --   1168.5826              1186.2244              1228.6043
 Red. masses --      1.2082                 2.2081                 2.4087
 Frc consts  --      0.9721                 1.8307                 2.1422
 IR Inten    --      0.3918                27.2154               129.2399

                     52                     53                     54
                      A                      A                      A
 Frequencies --   1258.8278              1259.7685              1273.1806
 Red. masses --      1.7153                 4.0901                 4.3870
 Frc consts  --      1.6015                 3.8244                 4.1899
 IR Inten    --      0.0779                 2.7198               113.1821

                     55                     56                     57
                      A                      A                      A
 Frequencies --   1307.6315              1325.2967              1374.8216
 Red. masses --      2.8379                 5.6382                 5.6710
 Frc consts  --      2.8590                 5.8347                 6.3155
 IR Inten    --    136.9461                 1.7164               227.4481

                     58                     59                     60
                      A                      A                      A
 Frequencies --   1395.4749              1396.9019              1422.4817
 Red. masses --      1.2716                 1.2758                 4.7545
 Frc consts  --      1.4590                 1.4668                 5.6682
 IR Inten    --      5.3142                 2.9389                76.7306

                     61                     62                     63
                      A                      A                      A
 Frequencies --   1445.6790              1462.1270              1473.0600
 Red. masses --      2.7814                 1.9148                 1.0585
 Frc consts  --      3.4250                 2.4118                 1.3533
 IR Inten    --     34.4397               554.6314                 0.0142

                     64                     65                     66
                      A                      A                      A
 Frequencies --   1475.1096              1475.3527              1486.3705
 Red. masses --      2.4533                 1.8114                 2.5407
 Frc consts  --      3.1453                 2.3230                 3.3072
 IR Inten    --     45.7659                 1.8255               292.7458

                     67                     68                     69
                      A                      A                      A
 Frequencies --   1502.4736              1504.4476              1540.3048
 Red. masses --      1.2593                 1.2438                 8.2882
 Frc consts  --      1.6749                 1.6586                11.5857
 IR Inten    --      4.0442               124.5783               731.7610

                     70                     71                     72
                      A                      A                      A
 Frequencies --   1602.5997              1615.6752              1615.8163
 Red. masses --      7.1241                 6.7026                 5.2720
 Frc consts  --     10.7802                10.3087                 8.1098
 IR Inten    --      7.2307                60.7583                 1.4617

                     73                     74                     75
                      A                      A                      A
 Frequencies --   3003.6017              3004.5031              3066.0781
 Red. masses --      1.0380                 1.0377                 1.0974
 Frc consts  --      5.5171                 5.5191                 6.0786
 IR Inten    --    115.7955                 4.5021                 0.1603

                     76                     77                     78
                      A                      A                      A
 Frequencies --   3066.7287              3070.4437              3076.0240
 Red. masses --      1.0975                 1.0835                 1.1005
 Frc consts  --      6.0815                 6.0185                 6.1352
 IR Inten    --     13.0251                72.9699                 6.5865

                     79                     80                     81
                      A                      A                      A
 Frequencies --   3076.0505              3101.6643              3104.0578
 Red. masses --      1.1005                 1.0827                 1.0925
 Frc consts  --      6.1354                 6.1368                 6.2022
 IR Inten    --     17.4364                17.4739               145.7886

                     82                     83                     84
                      A                      A                      A
 Frequencies --   3111.1645              3137.8375              3153.1047
 Red. masses --      1.0890                 1.0956                 1.0868
 Frc consts  --      6.2103                 6.3555                 6.3663
 IR Inten    --    173.6860               136.8555                30.7176

 - Thermochemistry -
 -------------------
 Temperature   298.150 Kelvin.  Pressure   1.00000 Atm.
 Atom     1 has atomic number  6 and mass  12.00000

 Molecular mass:   240.07864 amu.
 Principal axes and moments of inertia in atomic units:
                           1         2         3
     Eigenvalues --  2009.509976821.237636827.59677
           X            0.93056  -0.21208  -0.29845
           Y            0.24904  -0.23090   0.94057
           Z            0.26839   0.94958   0.16205
 This molecule is an asymmetric top.
 Rotational symmetry number  1.
 Warning -- assumption of classical behavior for rotation
           may cause significant error
 Rotational temperatures (Kelvin)      0.04310     0.01270     0.01269
 Rotational constants (GHZ):           0.89810     0.26458     0.26433
 Zero-point vibrational energy     589814.3 (Joules/Mol)
                                  140.96899 (Kcal/Mol)
 Warning -- explicit consideration of  25 degrees of freedom as
           vibrations may cause significant error
 Vibrational temperatures:     12.39    37.01    99.85   133.36   163.86
          (Kelvin)            198.02   205.22   214.16   250.87   283.02
                              328.13   332.59   441.99   474.34   490.48
                              564.78   602.61   613.67   662.07   678.36
                              731.82   764.50   784.47   803.15   828.00
                              899.71   948.63  1035.42  1047.39  1069.75
                             1097.60  1114.30  1166.87  1185.25  1193.91
                             1220.77  1231.57  1310.57  1334.84  1343.77
                             1393.22  1452.04  1509.65  1510.87  1518.16
                             1556.46  1585.14  1632.61  1681.33  1706.71
                             1767.69  1811.17  1812.53  1831.82  1881.39
                             1906.81  1978.06  2007.78  2009.83  2046.63
                             2080.01  2103.67  2119.40  2122.35  2122.70
                             2138.56  2161.72  2164.56  2216.15  2305.78
                             2324.60  2324.80  4321.51  4322.81  4411.40
                             4412.34  4417.68  4425.71  4425.75  4462.60
                             4466.05  4476.27  4514.65  4536.61

 Zero-point correction=                           0.224648 (Hartree/Particle)
 Thermal correction to Energy=                    0.240932
 Thermal correction to Enthalpy=                  0.241876
 Thermal correction to Gibbs Free Energy=         0.178880
 Sum of electronic and zero-point Energies=           -804.471317
 Sum of electronic and thermal Energies=              -804.455034
 Sum of electronic and thermal Enthalpies=            -804.454090
 Sum of electronic and thermal Free Energies=         -804.517086

                     E (Thermal)             CV                S
                      KCal/Mol        Cal/Mol-Kelvin    Cal/Mol-Kelvin
 Total                  151.187             61.734            132.587
 Electronic               0.000              0.000              0.000
 Translational            0.889              2.981             42.329
 Rotational               0.889              2.981             32.903
 Vibrational            149.410             55.772             57.355
 Vibration     1          0.593              1.987              8.308
 Vibration     2          0.593              1.985              6.135
 Vibration     3          0.598              1.969              4.170
 Vibration     4          0.602              1.954              3.603
 Vibration     5          0.607              1.938              3.202
 Vibration     6          0.614              1.916              2.837
 Vibration     7          0.616              1.911              2.768
 Vibration     8          0.618              1.904              2.687
 Vibration     9          0.627              1.874              2.388
 Vibration    10          0.636              1.844              2.164
 Vibration    11          0.651              1.798              1.894
 Vibration    12          0.653              1.793              1.870
 Vibration    13          0.697              1.660              1.377
 Vibration    14          0.712              1.616              1.262
 Vibration    15          0.720              1.594              1.208
 Vibration    16          0.760              1.486              0.990
 Vibration    17          0.782              1.429              0.896
 Vibration    18          0.788              1.413              0.870
 Vibration    19          0.818              1.338              0.766
 Vibration    20          0.828              1.313              0.733
 Vibration    21          0.864              1.231              0.637
 Vibration    22          0.886              1.181              0.584
 Vibration    23          0.900              1.150              0.554
 Vibration    24          0.914              1.122              0.527
 Vibration    25          0.932              1.084              0.494

 Optimization completed.
    -- Stationary point found.
 Normal termination of Gaussian 16 at Wed Jan 10 06:55:34 2024.
