 Gaussian 16, Revision A.03,
 Gaussian 16:  ES64L-G16RevA.03 25-Dec-2016

 ----------------------------------------------------------------
 #P UB3LYP/6-311++G(d,p) SCRF=(PCM,Solvent=n,n-DiMethylFormamide)
 ----------------------------------------------------------------

 ------------------
 Quinone PCM in DMF
 ------------------
 Symbolic Z-matrix:
 Charge =  0 Multiplicity = 1

                         Standard orientation:
 ---------------------------------------------------------------------
 Center     Atomic      Atomic             Coordinates (Angstroms)
 Number     Number       Type             X           Y           Z
 ---------------------------------------------------------------------
      1         17           0       -1.547160   -2.262329    0.000048
      2          6           0       -0.741097   -0.734038    0.000010
      3          6           0       -1.459317    0.416567   -0.000016
      4         17           0       -3.183402    0.452146   -0.000025
      5          6           0       -0.780404    1.732879   -0.000013
      6          8           0       -1.367891    2.783170   -0.000015
      7          6           0        0.779840    1.733104    0.000025
      8          8           0        1.367009    2.783568    0.000045
      9          6           0        1.459123    0.417003   -0.000003
     10          6           0        0.741284   -0.733774   -0.000006
     11         17           0        1.547989   -2.261625   -0.000034
     12         17           0        3.183189    0.452728   -0.000002
 ---------------------------------------------------------------------

 SCF Done:  E(UB3LYP) =  -2220.02513441     A.U. after   14 cycles

 The electronic state is 1-A.
 Alpha  occ. eigenvalues -- -101.59790-101.59790-101.58935-101.58934 -19.17196
 Alpha  occ. eigenvalues --  -19.17194 -10.31691 -10.31673 -10.31087 -10.31058
 Alpha  occ. eigenvalues --  -10.28599 -10.28597  -9.51241  -9.51239  -9.50375
 Alpha  occ. eigenvalues --   -9.50374  -7.27743  -7.27743  -7.26876  -7.26875
 Alpha  occ. eigenvalues --   -7.26744  -7.26744  -7.26611  -7.26611  -7.25867
 Alpha  occ. eigenvalues --   -7.25867  -7.25766  -7.25765  -1.11993  -1.09344
 Alpha  occ. eigenvalues --   -0.97150  -0.93158  -0.90115  -0.88332  -0.83998
 Alpha  occ. eigenvalues --   -0.76145  -0.73118  -0.63681  -0.63600  -0.58358
 Alpha  occ. eigenvalues --   -0.53491  -0.50929  -0.49763  -0.48963  -0.48773
 Alpha  occ. eigenvalues --   -0.47211  -0.45988  -0.44429  -0.44181  -0.39662
 Alpha  occ. eigenvalues --   -0.37562  -0.37420  -0.36581  -0.36318  -0.35123
 Alpha  occ. eigenvalues --   -0.34794  -0.32484  -0.32088  -0.29787  -0.27096
 Alpha virt. eigenvalues --   -0.16541  -0.05720  -0.04408  -0.04371  -0.00967
 Alpha virt. eigenvalues --    0.00107   0.01633   0.01752   0.02770   0.03287
 Alpha virt. eigenvalues --    0.04561   0.05225   0.05617   0.06737   0.06943

  Beta  occ. eigenvalues -- -101.59790-101.59790-101.58935-101.58934 -19.17196
  Beta  occ. eigenvalues --  -19.17194 -10.31691 -10.31673 -10.31087 -10.31058
  Beta  occ. eigenvalues --  -10.28599 -10.28597  -9.51241  -9.51239  -9.50375
  Beta  occ. eigenvalues --   -9.50374  -7.27743  -7.27743  -7.26876  -7.26875
  Beta  occ. eigenvalues --   -7.26744  -7.26744  -7.26611  -7.26611  -7.25867
  Beta  occ. eigenvalues --   -7.25867  -7.25766  -7.25765  -1.11993  -1.09344
  Beta  occ. eigenvalues --   -0.97150  -0.93158  -0.90115  -0.88332  -0.83998
  Beta  occ. eigenvalues --   -0.76145  -0.73118  -0.63681  -0.63600  -0.58358
  Beta  occ. eigenvalues --   -0.53491  -0.50929  -0.49763  -0.48963  -0.48773
  Beta  occ. eigenvalues --   -0.47211  -0.45988  -0.44429  -0.44181  -0.39662
  Beta  occ. eigenvalues --   -0.37562  -0.37420  -0.36581  -0.36318  -0.35123
  Beta  occ. eigenvalues --   -0.34794  -0.32484  -0.32088  -0.29787  -0.27096
  Beta virt. eigenvalues --   -0.16541  -0.05720  -0.04408  -0.04371  -0.00967
  Beta virt. eigenvalues --    0.00107   0.01633   0.01752   0.02770   0.03287
  Beta virt. eigenvalues --    0.04561   0.05225   0.05617   0.06737   0.06943

 Mulliken charges and spin densities:
               1          2
     1  Cl   0.676256  -0.000000
     2  C   -0.618946  -0.000000
     3  C    0.313603   0.000000
     4  Cl   0.381365   0.000000
     5  C   -0.538669   0.000000
     6  O   -0.213205  -0.000000
     7  C   -0.538255   0.000000
     8  O   -0.213257  -0.000000
     9  C    0.313638  -0.000000
    10  C   -0.620318  -0.000000
    11  Cl   0.676456   0.000000
    12  Cl   0.381331   0.000000
 Sum of Mulliken charges =  -0.00000   0.00000

 Dipole moment (field-independent basis, Debye):
    X=              0.0009    Y=             -5.3974    Z=             -0.0000  Tot=              5.3974
 Quadrupole moment (field-independent basis, Debye-Ang):
   XX=            -97.1489   YY=           -109.5469   ZZ=            -92.1462
   XY=              0.0002   XZ=             -0.0002   YZ=             -0.0002

 Normal termination of Gaussian 16 at Sat Jan 13 19:15:55 2024.
