 Gaussian 16, Revision A.03,
 Gaussian 16:  ES64L-G16RevA.03 25-Dec-2016

 ----------------------------------------------------------------------
 #P UB3LYP/6-311++G(d,p) nosym opt freq SCRF=(PCM,Solvent=n,n-DiMethylF
 ormamide)
 ----------------------------------------------------------------------

 -------
 Reduced
 -------
 Symbolic Z-matrix:
 Charge = -2 Multiplicity = 1

 SCF Done:  E(UB3LYP) =  -990.251256122     A.U. after   13 cycles
 SCF Done:  E(UB3LYP) =  -990.251384455     A.U. after   10 cycles
 SCF Done:  E(UB3LYP) =  -990.251394657     A.U. after   10 cycles
 SCF Done:  E(UB3LYP) =  -990.251414088     A.U. after   10 cycles
 SCF Done:  E(UB3LYP) =  -990.251414970     A.U. after    9 cycles
 SCF Done:  E(UB3LYP) =  -990.251415629     A.U. after    8 cycles
 Optimization completed.
    -- Stationary point found.
 Normal termination of Gaussian 16 at Sat Feb 10 22:39:10 2024.

 ----------------------------------------------------------------------
 #P Geom=AllCheck Guess=TCheck SCRF=Check GenChk UB3LYP/6-311++G(d,p) F
 req
 ----------------------------------------------------------------------

 Structure from the checkpoint file:  "205-an.chk"
 -------
 Reduced
 -------
 Charge = -2 Multiplicity = 1

                          Input orientation:
 ---------------------------------------------------------------------
 Center     Atomic      Atomic             Coordinates (Angstroms)
 Number     Number       Type             X           Y           Z
 ---------------------------------------------------------------------
      1          8           0       -2.679403   -2.579476    0.536855
      2          6           0       -2.569595   -1.220509    0.398004
      3          6           0       -3.698242   -0.437001    0.409475
      4          6           0       -3.604322    0.975166    0.265166
      5          6           0       -2.382888    1.585278    0.111140
      6          8           0       -2.311590    2.946795   -0.027927
      7          6           0       -1.170790    0.806656    0.094291
      8          6           0        0.095475    1.434372   -0.063549
      9          8           0        0.184141    2.766567   -0.200083
     10          6           0        1.266227    0.627157   -0.074389
     11          6           0        2.569589    1.220511   -0.231805
     12          8           0        2.679398    2.579501   -0.370461
     13          6           0        3.698219    0.436983   -0.243561
     14          6           0        3.604300   -0.975191   -0.099319
     15          6           0        2.382886   -1.585289    0.054924
     16          8           0        2.311595   -2.946807    0.193980
     17          6           0        1.170801   -0.806650    0.072002
     18          6           0       -0.095462   -1.434362    0.229862
     19          8           0       -0.184144   -2.766597    0.366035
     20          6           0       -1.266216   -0.627147    0.240729
     21          1           0       -1.727712   -2.914448    0.496731
     22          1           0       -4.667789   -0.908445    0.529587
     23          1           0       -4.502029    1.584138    0.275166
     24          1           0       -1.324848    3.138941   -0.122352
     25          1           0        1.727760    2.914529   -0.329712
     26          1           0        4.667754    0.908422   -0.363787
     27          1           0        4.501997   -1.584176   -0.109500
     28          1           0        1.324883   -3.138922    0.288790
 ---------------------------------------------------------------------

 SCF Done:  E(UB3LYP) =  -990.251415629     A.U. after    1 cycles

 Alpha  occ. eigenvalues --  -19.10738 -19.10738 -19.10737 -19.10737 -19.06170
 Alpha  occ. eigenvalues --  -19.06170 -10.20711 -10.20711 -10.20710 -10.20709
 Alpha  occ. eigenvalues --  -10.20030 -10.20029 -10.15776 -10.15773 -10.15736
 Alpha  occ. eigenvalues --  -10.15736 -10.14558 -10.14558 -10.14514 -10.14514
 Alpha  occ. eigenvalues --   -1.02873  -1.02705  -1.02095  -1.01973  -0.95903
 Alpha  occ. eigenvalues --   -0.95705  -0.83798  -0.81688  -0.76828  -0.72338
 Alpha  occ. eigenvalues --   -0.72332  -0.70589  -0.65938  -0.62635  -0.61416
 Alpha  occ. eigenvalues --   -0.57727  -0.56225  -0.52775  -0.50489  -0.50410
 Alpha  occ. eigenvalues --   -0.49323  -0.48940  -0.48481  -0.44977  -0.43017
 Alpha  occ. eigenvalues --   -0.41836  -0.41245  -0.40147  -0.39773  -0.39222
 Alpha  occ. eigenvalues --   -0.38966  -0.38685  -0.38480  -0.38033  -0.37950
 Alpha  occ. eigenvalues --   -0.36523  -0.34375  -0.34346  -0.34217  -0.33489
 Alpha  occ. eigenvalues --   -0.32633  -0.31910  -0.28724  -0.28099  -0.24529
 Alpha  occ. eigenvalues --   -0.24481  -0.23079  -0.22845  -0.20502  -0.18594
 Alpha  occ. eigenvalues --   -0.12491
 Alpha virt. eigenvalues --   -0.01786  -0.00880   0.00375   0.01051   0.01394
 Alpha virt. eigenvalues --    0.02175   0.02846   0.03900   0.04652   0.04702
 Alpha virt. eigenvalues --    0.04729   0.04933   0.06369   0.07036   0.07335

  Beta  occ. eigenvalues --  -19.10738 -19.10738 -19.10737 -19.10737 -19.06170
  Beta  occ. eigenvalues --  -19.06170 -10.20711 -10.20711 -10.20710 -10.20709
  Beta  occ. eigenvalues --  -10.20030 -10.20029 -10.15776 -10.15773 -10.15736
  Beta  occ. eigenvalues --  -10.15736 -10.14558 -10.14558 -10.14514 -10.14514
  Beta  occ. eigenvalues --   -1.02873  -1.02705  -1.02095  -1.01973  -0.95903
  Beta  occ. eigenvalues --   -0.95705  -0.83798  -0.81688  -0.76828  -0.72338
  Beta  occ. eigenvalues --   -0.72332  -0.70589  -0.65938  -0.62635  -0.61416
  Beta  occ. eigenvalues --   -0.57727  -0.56225  -0.52775  -0.50489  -0.50410
  Beta  occ. eigenvalues --   -0.49323  -0.48940  -0.48481  -0.44977  -0.43017
  Beta  occ. eigenvalues --   -0.41836  -0.41245  -0.40147  -0.39773  -0.39222
  Beta  occ. eigenvalues --   -0.38966  -0.38685  -0.38480  -0.38033  -0.37950
  Beta  occ. eigenvalues --   -0.36523  -0.34375  -0.34346  -0.34217  -0.33489
  Beta  occ. eigenvalues --   -0.32633  -0.31910  -0.28724  -0.28099  -0.24529
  Beta  occ. eigenvalues --   -0.24481  -0.23079  -0.22845  -0.20502  -0.18594
  Beta  occ. eigenvalues --   -0.12491
  Beta virt. eigenvalues --   -0.01786  -0.00880   0.00375   0.01051   0.01394
  Beta virt. eigenvalues --    0.02175   0.02846   0.03900   0.04652   0.04702
  Beta virt. eigenvalues --    0.04729   0.04933   0.06369   0.07036   0.07335

 Mulliken charges and spin densities:
               1          2
     1  O   -0.474672  -0.000000
     2  C   -0.338536   0.000000
     3  C   -0.195101   0.000000
     4  C   -0.194953  -0.000000
     5  C   -0.338632  -0.000000
     6  O   -0.474706   0.000000
     7  C    0.431637   0.000000
     8  C   -0.277112   0.000000
     9  O   -0.727481  -0.000000
    10  C    0.431523   0.000000
    11  C   -0.338514  -0.000000
    12  O   -0.474680   0.000000
    13  C   -0.195099   0.000000
    14  C   -0.194951  -0.000000
    15  C   -0.338637   0.000000
    16  O   -0.474701  -0.000000
    17  C    0.431628  -0.000000
    18  C   -0.277121  -0.000000
    19  O   -0.727477  -0.000000
    20  C    0.431540  -0.000000
    21  H    0.409997   0.000000
    22  H    0.168930   0.000000
    23  H    0.168992  -0.000000
    24  H    0.410102  -0.000000
    25  H    0.410004   0.000000
    26  H    0.168929   0.000000
    27  H    0.168993  -0.000000
    28  H    0.410097   0.000000
 Sum of Mulliken charges =  -2.00000   0.00000

 Dipole moment (field-independent basis, Debye):
    X=              0.0001    Y=              0.0002    Z=             -0.7959  Tot=              0.7959
 Quadrupole moment (field-independent basis, Debye-Ang):
   XX=           -172.6700   YY=           -187.1467   ZZ=           -126.7880
   XY=             -0.6351   XZ=              3.6302   YZ=              6.0067

  Exact polarizability: 541.720 -14.916 360.769 -28.776 -19.502 152.466
 Approx polarizability: 603.497 -13.029 455.489 -32.214 -26.953 172.848

                      1                      2                      3
                      A                      A                      A
 Frequencies --     56.1986                60.8515                97.8703
 Red. masses --      7.7762                 9.5931                14.2671
 Frc consts  --      0.0145                 0.0209                 0.0805
 IR Inten    --      2.3111                 0.1944                 0.0000

                      4                      5                      6
                      A                      A                      A
 Frequencies --    120.3991               129.2564               177.5612
 Red. masses --      7.7229                 7.3284                 9.2736
 Frc consts  --      0.0660                 0.0721                 0.1723
 IR Inten    --      0.1663                 0.0000                 0.8221

                      7                      8                      9
                      A                      A                      A
 Frequencies --    228.3062               259.9549               314.4259
 Red. masses --      6.9767                 6.3389                 7.2813
 Frc consts  --      0.2143                 0.2524                 0.4241
 IR Inten    --      0.1434                 0.0000                 0.0000

                     10                     11                     12
                      A                      A                      A
 Frequencies --    324.1661               369.6279               374.9902
 Red. masses --      7.4871                 7.5370                 5.4196
 Frc consts  --      0.4636                 0.6067                 0.4490
 IR Inten    --      0.0000                 0.0006                 0.0000

                     13                     14                     15
                      A                      A                      A
 Frequencies --    379.6641               409.1519               430.6020
 Red. masses --     10.6345                 5.7964                10.3349
 Frc consts  --      0.9032                 0.5717                 1.1290
 IR Inten    --      0.0000               146.0575                 0.0000

                     16                     17                     18
                      A                      A                      A
 Frequencies --    442.6898               469.1393               479.7565
 Red. masses --      7.5782                10.2855                11.7225
 Frc consts  --      0.8750                 1.3338                 1.5897
 IR Inten    --      0.0000                 1.4482               210.1990

                     19                     20                     21
                      A                      A                      A
 Frequencies --    480.6873               481.4390               482.9666
 Red. masses --     11.8431                 4.3215                 9.7165
 Frc consts  --      1.6123                 0.5902                 1.3353
 IR Inten    --      0.0000                 0.6220                59.4832

                     22                     23                     24
                      A                      A                      A
 Frequencies --    523.0693               542.3806               568.8776
 Red. masses --      5.4573                 4.1611                 9.4395
 Frc consts  --      0.8797                 0.7212                 1.7999
 IR Inten    --      0.0000                23.1741                 0.0000

                     25                     26                     27
                      A                      A                      A
 Frequencies --    610.9589               610.9967               639.2078
 Red. masses --      4.1631                 4.4342                 3.6933
 Frc consts  --      0.9156                 0.9753                 0.8891
 IR Inten    --      9.7904                 0.2474                 0.0000

                     28                     29                     30
                      A                      A                      A
 Frequencies --    709.2586               710.2500               727.5523
 Red. masses --      8.2218                 6.9096                 4.6864
 Frc consts  --      2.4368                 2.0536                 1.4616
 IR Inten    --      0.0074                 0.0000                27.0638

                     31                     32                     33
                      A                      A                      A
 Frequencies --    732.1192               748.2486               795.7975
 Red. masses --      7.9520                10.7387                 1.5752
 Frc consts  --      2.5112                 3.5424                 0.5878
 IR Inten    --    271.5395                 0.0000                 0.0002

                     34                     35                     36
                      A                      A                      A
 Frequencies --    797.5593               816.7858               842.9014
 Red. masses --      1.7383                 9.0786                 9.2886
 Frc consts  --      0.6515                 3.5685                 3.8883
 IR Inten    --    266.1837               246.8415                 0.0005

                     37                     38                     39
                      A                      A                      A
 Frequencies --    856.1618               857.4679               863.1804
 Red. masses --      1.2461                 1.3385                 1.0637
 Frc consts  --      0.5382                 0.5798                 0.4670
 IR Inten    --      0.0043                 0.6039               452.0436

                     40                     41                     42
                      A                      A                      A
 Frequencies --    863.4567               905.0451               905.9208
 Red. masses --      1.1542                 1.0386                 1.0396
 Frc consts  --      0.5070                 0.5012                 0.5027
 IR Inten    --      4.3185                 5.6086                 0.0013

                     43                     44                     45
                      A                      A                      A
 Frequencies --    931.1263               974.2633               990.6223
 Red. masses --     11.1335                 5.2520                 4.1676
 Frc consts  --      5.6872                 2.9372                 2.4096
 IR Inten    --    986.1471                 0.0000                 0.0000

                     46                     47                     48
                      A                      A                      A
 Frequencies --   1074.7593              1128.0484              1169.0743
 Red. masses --      1.5172                 1.6332                 5.5493
 Frc consts  --      1.0326                 1.2245                 4.4686
 IR Inten    --    197.9631                 0.0000               121.4770

                     49                     50                     51
                      A                      A                      A
 Frequencies --   1186.8032              1235.5105              1244.2899
 Red. masses --      9.5575                 1.8874                12.3314
 Frc consts  --      7.9314                 1.6975                11.2488
 IR Inten    --    493.0180               279.4087                 0.0026

                     52                     53                     54
                      A                      A                      A
 Frequencies --   1244.4924              1249.7124              1275.6862
 Red. masses --      5.0214                 2.0266                 6.0404
 Frc consts  --      4.5821                 1.8648                 5.7916
 IR Inten    --    353.2082                 0.0000                 0.0000

                     55                     56                     57
                      A                      A                      A
 Frequencies --   1307.5993              1324.9906              1343.9989
 Red. masses --      2.3732                 2.9542                 3.0687
 Frc consts  --      2.3908                 3.0557                 3.2659
 IR Inten    --    195.3473                 0.0000                 0.0000

                     58                     59                     60
                      A                      A                      A
 Frequencies --   1346.8848              1366.6218              1444.9380
 Red. masses --      6.1896                 9.9255                 5.1655
 Frc consts  --      6.6156                10.9219                 6.3542
 IR Inten    --   2049.8450                33.0548               889.2278

                     61                     62                     63
                      A                      A                      A
 Frequencies --   1446.3765              1495.5445              1526.4797
 Red. masses --      7.5100                 1.7324                 1.6992
 Frc consts  --      9.2567                 2.2829                 2.3328
 IR Inten    --      0.0022                 0.0000              1041.4215

                     64                     65                     66
                      A                      A                      A
 Frequencies --   1548.2237              1548.9833              1585.9289
 Red. masses --      5.4187                 2.9705                 1.9816
 Frc consts  --      7.6527                 4.1993                 2.9365
 IR Inten    --      0.0000               684.9682               224.3122

                     67                     68                     69
                      A                      A                      A
 Frequencies --   1586.3870              1651.9684              1659.2838
 Red. masses --      2.5919                 3.2222                 2.0188
 Frc consts  --      3.8431                 5.1809                 3.2748
 IR Inten    --      0.0018                 0.0000                 0.0000

                     70                     71                     72
                      A                      A                      A
 Frequencies --   1691.5867              2827.1338              2841.4335
 Red. masses --      2.3120                 1.0734                 1.0739
 Frc consts  --      3.8979                 5.0547                 5.1087
 IR Inten    --     21.9113                 0.0107              4814.4694

                     73                     74                     75
                      A                      A                      A
 Frequencies --   2931.5671              2945.7555              3157.5999
 Red. masses --      1.0762                 1.0753                 1.0869
 Frc consts  --      5.4493                 5.4974                 6.3847
 IR Inten    --     67.8770                 0.0003                99.2419

                     76                     77                     78
                      A                      A                      A
 Frequencies --   3157.7793              3173.2037              3173.3340
 Red. masses --      1.0871                 1.0934                 1.0932
 Frc consts  --      6.3866                 6.4869                 6.4863
 IR Inten    --      0.0001                72.1460                 0.0001

 - Thermochemistry -
 -------------------
 Temperature   298.150 Kelvin.  Pressure   1.00000 Atm.
 Atom     1 has atomic number  8 and mass  15.99491

 Molecular mass:   272.03209 amu.
 Principal axes and moments of inertia in atomic units:
                           1         2         3
     Eigenvalues --  3511.742745404.476118916.21681
           X            0.99492   0.06613   0.07587
           Y           -0.07333   0.99264   0.09639
           Z           -0.06894  -0.10147   0.99245
 This molecule is an asymmetric top.
 Rotational symmetry number  1.
 Warning -- assumption of classical behavior for rotation
           may cause significant error
 Rotational temperatures (Kelvin)      0.02466     0.01603     0.00971
 Rotational constants (GHZ):           0.51392     0.33393     0.20241
 Zero-point vibrational energy     502341.2 (Joules/Mol)
                                  120.06243 (Kcal/Mol)
 Warning -- explicit consideration of  26 degrees of freedom as
           vibrations may cause significant error
 Vibrational temperatures:     80.86    87.55   140.81   173.23   185.97
          (Kelvin)            255.47   328.48   374.02   452.39   466.40
                              531.81   539.53   546.25   588.68   619.54
                              636.93   674.99   690.26   691.60   692.68
                              694.88   752.58   780.36   818.49   879.03
                              879.09   919.68  1020.46  1021.89  1046.79
                             1053.36  1076.56  1144.98  1147.51  1175.17
                             1212.75  1231.83  1233.71  1241.92  1242.32
                             1302.16  1303.42  1339.68  1401.75  1425.28
                             1546.34  1623.01  1682.04  1707.55  1777.62
                             1790.26  1790.55  1798.06  1835.43  1881.34
                             1906.37  1933.71  1937.87  1966.26  2078.94
                             2081.01  2151.75  2196.26  2227.55  2228.64
                             2281.80  2282.46  2376.81  2387.34  2433.82
                             4067.61  4088.19  4217.87  4238.29  4543.08
                             4543.34  4565.53  4565.72

 Zero-point correction=                           0.191332 (Hartree/Particle)
 Thermal correction to Energy=                    0.205924
 Thermal correction to Enthalpy=                  0.206868
 Thermal correction to Gibbs Free Energy=         0.150042
 Sum of electronic and zero-point Energies=           -990.060084
 Sum of electronic and thermal Energies=              -990.045492
 Sum of electronic and thermal Enthalpies=            -990.044548
 Sum of electronic and thermal Free Energies=         -990.101373

                     E (Thermal)             CV                S
                      KCal/Mol        Cal/Mol-Kelvin    Cal/Mol-Kelvin
 Total                  129.219             60.217            119.599
 Electronic               0.000              0.000              0.000
 Translational            0.889              2.981             42.701
 Rotational               0.889              2.981             33.492
 Vibrational            127.442             54.255             43.406
 Vibration     1          0.596              1.975              4.586
 Vibration     2          0.597              1.973              4.429
 Vibration     3          0.603              1.951              3.496
 Vibration     4          0.609              1.932              3.094
 Vibration     5          0.612              1.924              2.957
 Vibration     6          0.628              1.870              2.354
 Vibration     7          0.651              1.798              1.892
 Vibration     8          0.668              1.746              1.662
 Vibration     9          0.702              1.646              1.339
 Vibration    10          0.709              1.627              1.289
 Vibration    11          0.742              1.535              1.081
 Vibration    12          0.746              1.523              1.059
 Vibration    13          0.750              1.514              1.041
 Vibration    14          0.774              1.450              0.930
 Vibration    15          0.792              1.404              0.857
 Vibration    16          0.802              1.377              0.818
 Vibration    17          0.826              1.319              0.740
 Vibration    18          0.836              1.295              0.711
 Vibration    19          0.837              1.293              0.708
 Vibration    20          0.838              1.291              0.706
 Vibration    21          0.839              1.288              0.702
 Vibration    22          0.878              1.199              0.603
 Vibration    23          0.897              1.156              0.560
 Vibration    24          0.925              1.099              0.506
 Vibration    25          0.970              1.009              0.431
 Vibration    26          0.970              1.009              0.431

 Optimization completed.
    -- Stationary point found.
 Normal termination of Gaussian 16 at Sat Feb 10 23:50:32 2024.
