 Q-Chem 5.4, Q-Chem, Inc., Pleasanton, CA (2021)
 Q-Chem 5.4.0 for Intel X86 EM64T Linux

User input:
--------------------------------------------------------------
$molecule
-1 2
C                  2.2551760000     -0.0702820000      0.0791920000
C                  0.7539460000      0.0378050000      0.0302610000
C                  0.1123750000      1.2465190000      0.0817290000
C                 -1.3283420000      1.3864980000      0.0370420000
O                 -1.9067340000      2.5077590000      0.0853420000
C                 -2.0693380000      0.1444040000     -0.0676770000
C                 -1.4247160000     -1.0591100000     -0.1186830000
Br                -2.4795050000     -2.6827510000     -0.2586340000
C                  0.0171110000     -1.2239400000     -0.0755980000
O                  0.6063460000     -2.3324100000     -0.1228310000
H                  2.5757020000     -0.6818900000      0.9290540000
H                  2.7155680000      0.9184130000      0.1584420000
H                  2.6405100000     -0.5722880000     -0.8144490000
H                  0.6816810000      2.1694380000      0.1603000000
H                 -3.1497820000      0.2118360000     -0.1034920000
$end
$rem
MAX_SCF_CYCLES=200
BASIS  =  6-311++G(d,p)
GUI  =  2
JOB_TYPE  =  SP
METHOD  =  B3LYP
SOLVENT_METHOD = COSMO
$end
$solvent
dielectric 37.219
opticaldielectric 1.43
$end

--------------------------------------------------------------

             Standard Nuclear Orientation (Angstroms)
    I     Atom           X                Y                Z
 ----------------------------------------------------------------
    1      C       2.6201991070    -2.1670211233     0.0001018830
    2      C       1.8171754335    -0.8930817494     0.0000185461
    3      C       2.4137115247     0.3395562865     0.0000506678
    4      C       1.6723595667     1.5836036300    -0.0000124711
    5      O       2.2356708300     2.7135491355    -0.0000470877
    6      C       0.2288321921     1.4455190047    -0.0000411184
    7      C      -0.3616891165     0.2135004711    -0.0000476967
    8      Br     -2.2997409152     0.1024534918     0.0000400243
    9      C       0.3602261060    -1.0461537491    -0.0000816053
   10      O      -0.1863239538    -2.1772671853    -0.0001766510
   11      H       2.3788684270    -2.7813330502     0.8738564485
   12      H       3.6925144728    -1.9527819678     0.0008087897
   13      H       2.3799536055    -2.7808684114    -0.8742894243
   14      H       3.4974105028     0.4270704069     0.0001399579
   15      H      -0.3574788664     2.3562485850    -0.0000559451
 ----------------------------------------------------------------

   10   -2994.5197718531      8.30e-06  Convergence criterion met
 Total energy in the final basis set =    -2994.5197718531
    5   -2994.6035926297      5.88e-06  Convergence criterion met
 Total energy in the final basis set =    -2994.6035926297

                    Orbital Energies (a.u.)
 --------------------------------------------------------------

 Alpha MOs
 -- Occupied --
******** -62.4780 -56.2983 -56.2948 -56.2945 -19.0895 -19.0879 -10.2349
-10.2305 -10.2232 -10.1825 -10.1746 -10.1646 -10.1585  -8.6867  -6.5175
 -6.5057  -6.5050  -2.6286  -2.6253  -2.6247  -2.6153  -2.6153  -1.0151
 -1.0089  -0.8461  -0.8020  -0.7496  -0.6971  -0.6752  -0.5831  -0.5658
 -0.4942  -0.4763  -0.4367  -0.4337  -0.4144  -0.4092  -0.3973  -0.3951
 -0.3825  -0.3721  -0.3588  -0.3246  -0.2898  -0.2815  -0.2565  -0.2503
 -0.2493  -0.1722

 Beta MOs
 -- Occupied --
******** -62.4780 -56.2983 -56.2947 -56.2945 -19.0828 -19.0810 -10.2333
-10.2292 -10.2220 -10.1816 -10.1731 -10.1638 -10.1586  -8.6867  -6.5176
 -6.5057  -6.5050  -2.6286  -2.6253  -2.6247  -2.6153  -2.6153  -1.0033
 -0.9967  -0.8407  -0.8001  -0.7468  -0.6929  -0.6673  -0.5792  -0.5614
 -0.4920  -0.4718  -0.4314  -0.4220  -0.4115  -0.4062  -0.3930  -0.3851
 -0.3699  -0.3572  -0.3568  -0.3134  -0.2895  -0.2550  -0.2501  -0.2435
 -0.2433

          Ground-State Mulliken Net Atomic Charges

     Atom                 Charge (a.u.)    Spin (a.u.)
  --------------------------------------------------------
      1 C                    -0.420626       0.002017
      2 C                     1.495147       0.086553
      3 C                    -0.767742       0.033891
      4 C                    -0.303782       0.141044
      5 O                    -0.531994       0.235399
      6 C                    -0.059242       0.099488
      7 C                     1.029728       0.104164
      8 Br                   -0.215974       0.005809
      9 C                    -1.719050       0.052230
     10 O                    -0.440251       0.247209
     11 H                     0.176455       0.003822
     12 H                     0.159240      -0.000396
     13 H                     0.176315       0.003828
     14 H                     0.181206      -0.005532
     15 H                     0.240570      -0.009526
  --------------------------------------------------------
  Sum of atomic charges =    -1.000000

                    Cartesian Multipole Moments
 -----------------------------------------------------------------
    Charge (ESU x 10^10)
                -4.8032
    Dipole Moment (Debye)
         X      -1.9957      Y      -2.0854      Z      -0.0010
       Tot       2.8864
    Quadrupole Moments (Debye-Ang)
        XX     -86.3912     XY     -20.5554     YY    -104.7717
        XZ      -0.0012     YZ      -0.0020     ZZ     -74.6067

 Total job time:  23.90s(wall), 174.79s(cpu)
        *  Thank you very much for using Q-Chem.  Have a nice day.  *
