 Gaussian 16, Revision A.03,
 Gaussian 16:  ES64L-G16RevA.03 25-Dec-2016

 ----------------------------------------------------------------
 #P UB3LYP/6-311++G(d,p) SCRF=(PCM,Solvent=n,n-DiMethylFormamide)
 ----------------------------------------------------------------

 ------------------
 Quinone PCM in DMF
 ------------------
 Symbolic Z-matrix:
 Charge =  0 Multiplicity = 1

                         Standard orientation:
 ---------------------------------------------------------------------
 Center     Atomic      Atomic             Coordinates (Angstroms)
 Number     Number       Type             X           Y           Z
 ---------------------------------------------------------------------
      1          6           0       -3.935452    0.364301   -0.531856
      2          6           0       -4.667486   -0.816636   -0.598920
      3          6           0       -4.057909   -2.038322   -0.301232
      4          6           0       -2.587709    0.327963   -0.166075
      5          6           0       -1.976448   -0.896493    0.132995
      6          6           0       -2.716321   -2.079612    0.064154
      7          6           0       -1.801926    1.590756   -0.096451
      8          6           0       -0.358617    1.523544    0.290641
      9          6           0        0.230775    0.341783    0.603343
     10          6           0       -0.540356   -0.940681    0.527677
     11          8           0       -2.318941    2.668803   -0.349239
     12          8           0        0.002735   -2.004492    0.786335
     13          1           0       -5.713330   -0.788534   -0.883019
     14          6           0        1.677002    0.195165    1.005166
     15          1           0       -4.631559   -2.956679   -0.354643
     16          6           0        0.337563    2.855352    0.305351
     17          6           0        2.611765   -0.047691   -0.199054
     18          6           0        4.073098   -0.241742    0.218344
     19          6           0        5.017039   -0.484919   -0.964831
     20          6           0        6.476315   -0.679210   -0.542685
     21          1           0       -4.387328    1.322099   -0.758350
     22          1           0       -2.224414   -3.015233    0.299524
     23          1           0        1.758560   -0.656974    1.683095
     24          1           0        2.008121    1.080450    1.552565
     25          1           0        0.200312    3.359942   -0.654265
     26          1           0        1.402295    2.767545    0.507822
     27          1           0       -0.113906    3.511435    1.055685
     28          1           0        2.536349    0.796349   -0.895039
     29          1           0        2.266455   -0.933100   -0.742977
     30          1           0        4.139766   -1.087532    0.914173
     31          1           0        4.413613    0.640466    0.776565
     32          1           0        4.947837    0.359209   -1.661795
     33          1           0        4.677017   -1.366960   -1.520559
     34          1           0        6.856279    0.200885   -0.014149
     35          1           0        7.122487   -0.850970   -1.407943
     36          1           0        6.583089   -1.538231    0.127139
 ---------------------------------------------------------------------

 SCF Done:  E(UB3LYP) =  -771.223163973     A.U. after   15 cycles

 The electronic state is 1-A.
 Alpha  occ. eigenvalues --  -19.13355 -19.13333 -10.28175 -10.28107 -10.21414
 Alpha  occ. eigenvalues --  -10.21149 -10.20695 -10.20642 -10.19854 -10.19816
 Alpha  occ. eigenvalues --  -10.19774 -10.19759 -10.17715 -10.17477 -10.17053
 Alpha  occ. eigenvalues --  -10.16387 -10.16361 -10.15626  -1.06773  -1.06587
 Alpha  occ. eigenvalues --   -0.89054  -0.85331  -0.80682  -0.78714  -0.77819
 Alpha  occ. eigenvalues --   -0.76302  -0.72569  -0.69051  -0.67584  -0.63821
 Alpha  occ. eigenvalues --   -0.62192  -0.59838  -0.58310  -0.57981  -0.55153
 Alpha  occ. eigenvalues --   -0.51994  -0.50085  -0.48246  -0.47226  -0.46193
 Alpha  occ. eigenvalues --   -0.46048  -0.45680  -0.45203  -0.43812  -0.43213
 Alpha  occ. eigenvalues --   -0.42778  -0.41673  -0.41272  -0.40782  -0.40341
 Alpha  occ. eigenvalues --   -0.39654  -0.38502  -0.37770  -0.37142  -0.36890
 Alpha  occ. eigenvalues --   -0.36317  -0.34040  -0.33397  -0.33048  -0.32524
 Alpha  occ. eigenvalues --   -0.29094  -0.28900  -0.27898  -0.27253  -0.27122
 Alpha virt. eigenvalues --   -0.12310  -0.05667  -0.02963  -0.00837  -0.00134
 Alpha virt. eigenvalues --    0.00389   0.01071   0.01172   0.01785   0.02370
 Alpha virt. eigenvalues --    0.02537   0.03079   0.03222   0.03798   0.04231

  Beta  occ. eigenvalues --  -19.13355 -19.13333 -10.28175 -10.28107 -10.21414
  Beta  occ. eigenvalues --  -10.21149 -10.20695 -10.20642 -10.19854 -10.19816
  Beta  occ. eigenvalues --  -10.19774 -10.19759 -10.17715 -10.17477 -10.17053
  Beta  occ. eigenvalues --  -10.16387 -10.16361 -10.15626  -1.06773  -1.06587
  Beta  occ. eigenvalues --   -0.89054  -0.85331  -0.80682  -0.78714  -0.77819
  Beta  occ. eigenvalues --   -0.76302  -0.72569  -0.69051  -0.67584  -0.63821
  Beta  occ. eigenvalues --   -0.62192  -0.59838  -0.58310  -0.57981  -0.55153
  Beta  occ. eigenvalues --   -0.51994  -0.50085  -0.48246  -0.47226  -0.46193
  Beta  occ. eigenvalues --   -0.46048  -0.45680  -0.45203  -0.43812  -0.43213
  Beta  occ. eigenvalues --   -0.42778  -0.41673  -0.41272  -0.40782  -0.40341
  Beta  occ. eigenvalues --   -0.39654  -0.38502  -0.37770  -0.37142  -0.36890
  Beta  occ. eigenvalues --   -0.36317  -0.34040  -0.33397  -0.33048  -0.32524
  Beta  occ. eigenvalues --   -0.29094  -0.28900  -0.27898  -0.27253  -0.27122
  Beta virt. eigenvalues --   -0.12310  -0.05667  -0.02963  -0.00837  -0.00134
  Beta virt. eigenvalues --    0.00389   0.01071   0.01172   0.01785   0.02370
  Beta virt. eigenvalues --    0.02537   0.03079   0.03222   0.03798   0.04231

 Mulliken charges and spin densities:
               1          2
     1  C    0.236890  -0.000000
     2  C   -0.460896  -0.000000
     3  C   -0.380355  -0.000000
     4  C    0.139097  -0.000000
     5  C   -0.120381  -0.000000
     6  C    0.206441   0.000000
     7  C   -0.431801   0.000000
     8  C    0.814908  -0.000000
     9  C    1.096108   0.000000
    10  C   -1.026011  -0.000000
    11  O   -0.274663  -0.000000
    12  O   -0.260874   0.000000
    13  H    0.204244  -0.000000
    14  C   -0.520007  -0.000000
    15  H    0.203870   0.000000
    16  C   -0.416873  -0.000000
    17  C   -0.554584   0.000000
    18  C   -0.187583  -0.000000
    19  C   -0.186653  -0.000000
    20  C   -0.658195   0.000000
    21  H    0.188574  -0.000000
    22  H    0.188793   0.000000
    23  H    0.217450   0.000000
    24  H    0.206631   0.000000
    25  H    0.186807   0.000000
    26  H    0.140172  -0.000000
    27  H    0.202964   0.000000
    28  H    0.140514  -0.000000
    29  H    0.176169   0.000000
    30  H    0.115605  -0.000000
    31  H    0.120903  -0.000000
    32  H    0.133158   0.000000
    33  H    0.131777   0.000000
    34  H    0.141201   0.000000
    35  H    0.145024  -0.000000
    36  H    0.141577   0.000000
 Sum of Mulliken charges =  -0.00000   0.00000

 Dipole moment (field-independent basis, Debye):
    X=             -0.2864    Y=             -0.3440    Z=             -0.2945  Tot=              0.5358
 Quadrupole moment (field-independent basis, Debye-Ang):
   XX=            -94.2570   YY=           -115.6463   ZZ=           -110.1375
   XY=             15.3674   XZ=              1.6169   YZ=              4.5500

 Normal termination of Gaussian 16 at Sun Jan 21 07:59:55 2024.
