 Q-Chem 5.4, Q-Chem, Inc., Pleasanton, CA (2021)
 Q-Chem 5.4.0 for Intel X86 EM64T Linux

User input:
--------------------------------------------------------------
$molecule
-2 1
C                  2.6521810000      1.4395060000      0.8661480000
C                  2.3289120000      0.5215050000     -0.3337490000
C                  3.5879860000     -0.2414300000     -0.7696240000
C                  1.1182260000     -0.3520010000     -0.0384690000
C                  1.2334400000     -1.7029160000      0.2950740000
C                  0.1184020000     -2.5595620000      0.5795080000
O                  0.2426840000     -3.8082220000      0.8982180000
C                 -1.1497760000     -1.8989970000      0.4728310000
C                 -1.3066070000     -0.5529660000      0.1361520000
C                 -2.7139040000      0.0264010000      0.0539950000
C                 -2.9437010000      1.1520070000      1.0842380000
C                 -3.0554910000      0.5207620000     -1.3672330000
C                 -0.1718880000      0.2954750000     -0.1306440000
O                 -0.2946340000      1.5527800000     -0.4457450000
H                  3.4741770000      2.1354820000      0.6318550000
H                  2.9529180000      0.8403840000      1.7348850000
H                  1.7646300000      2.0189870000      1.1274680000
H                  2.0283540000      1.1903810000     -1.1518200000
H                  4.3864200000      0.4542450000     -1.0579760000
H                  3.3803980000     -0.8969860000     -1.6217840000
H                  3.9798660000     -0.8715500000      0.0374710000
H                  2.2138130000     -2.1709440000      0.3591350000
H                 -2.0340870000     -2.5068120000      0.6739010000
H                 -3.4095860000     -0.7905420000      0.2965140000
H                 -2.2272310000      1.9556720000      0.8967350000
H                 -3.9683850000      1.5519830000      1.0197640000
H                 -2.7867890000      0.7759030000      2.1012030000
H                 -4.0772640000      0.9301370000     -1.4155840000
H                 -2.9834570000     -0.3039650000     -2.0849440000
H                 -2.3396050000      1.2952850000     -1.6543770000
$end
$rem
MAX_SCF_CYCLES=200
BASIS  =  6-311++G(d,p)
GUI  =  2
JOB_TYPE  =  SP
METHOD  =  B3LYP
SOLVENT_METHOD = COSMO
$end
$solvent
dielectric 37.219
opticaldielectric 1.43
$end

--------------------------------------------------------------

             Standard Nuclear Orientation (Angstroms)
    I     Atom           X                Y                Z
 ----------------------------------------------------------------
    1      C      -2.5043332460    -1.8332142441     1.0874782840
    2      C      -2.2617296559    -1.0958202720    -0.2483267620
    3      C      -3.5830433046    -0.5280804692    -0.7860310726
    4      C      -1.1348852466    -0.0820972248    -0.1121252136
    5      C      -1.3714692492     1.2892946760     0.0010507561
    6      C      -0.3383513216     2.2762020426     0.1304184818
    7      O      -0.5747698703     3.5438895804     0.2455203995
    8      C       0.9841612093     1.7223454901     0.1160983451
    9      C       1.2617646870     0.3589438333    -0.0014618349
   10      C       2.7155026748    -0.0987928595    -0.0063324330
   11      C       3.0427467544    -1.0184997552     1.1887603273
   12      C       3.1034199184    -0.7836854003    -1.3335121211
   13      C       0.2082674889    -0.6188006807    -0.1145050300
   14      O       0.4439220822    -1.8945393969    -0.2246355190
   15      H      -3.2601038446    -2.6280860380     0.9781948902
   16      H      -2.8596237116    -1.1308728610     1.8520560471
   17      H      -1.5690643582    -2.2817971333     1.4278878145
   18      H      -1.9004896942    -1.8585629867    -0.9516756207
   19      H      -4.3152438500    -1.3292867199    -0.9489983669
   20      H      -3.4329771573    -0.0028054260    -1.7350249572
   21      H      -4.0317391169     0.1866883433    -0.0861731581
   22      H      -2.3899827047     1.6725902867     0.0008153034
   23      H       1.8099744325     2.4307376608     0.2060272977
   24      H       3.3346100607     0.8050864725     0.0931309961
   25      H       2.4016132694    -1.9022971680     1.1417065725
   26      H       4.0992968918    -1.3310391474     1.1771013126
   27      H       2.8503272983    -0.4986712450     2.1337716916
   28      H       4.1578741297    -1.1031199716    -1.3277117587
   29      H       2.9595099147    -0.0952711972    -2.1736599635
   30      H       2.4604964917    -1.6548651543    -1.4835975064
 ----------------------------------------------------------------

   15    -617.4909649393      2.80e-06  Convergence criterion met
 Total energy in the final basis set =     -617.4909649393
    5    -617.7751701317      7.39e-06  Convergence criterion met
 Total energy in the final basis set =     -617.7751701317

                    Orbital Energies (a.u.)
 --------------------------------------------------------------

 Alpha MOs
 -- Occupied --
-19.0159 -19.0021 -10.1619 -10.1556 -10.1472 -10.1461 -10.1382 -10.1353
-10.1318 -10.1315 -10.1202 -10.1193 -10.1111 -10.1108  -0.9284  -0.9160
 -0.7882  -0.7770  -0.7393  -0.6793  -0.6626  -0.6573  -0.6339  -0.5818
 -0.5654  -0.5099  -0.4980  -0.4482  -0.4257  -0.4230  -0.4102  -0.4079
 -0.3991  -0.3859  -0.3777  -0.3665  -0.3634  -0.3606  -0.3408  -0.3363
 -0.3340  -0.3176  -0.3170  -0.3158  -0.3040  -0.2975  -0.2931  -0.2861
 -0.2176  -0.1995  -0.1961  -0.1792  -0.1104

          Ground-State Mulliken Net Atomic Charges

     Atom                 Charge (a.u.)
  ----------------------------------------
      1 C                    -0.727598
      2 C                     0.222819
      3 C                    -0.564709
      4 C                     1.147770
      5 C                    -0.259075
      6 C                    -0.659970
      7 O                    -0.797307
      8 C                    -0.269079
      9 C                     0.660973
     10 C                     0.303007
     11 C                    -0.680431
     12 C                    -0.689047
     13 C                    -1.284206
     14 O                    -0.687643
     15 H                     0.122627
     16 H                     0.136691
     17 H                     0.181161
     18 H                     0.157779
     19 H                     0.158809
     20 H                     0.133206
     21 H                     0.137088
     22 H                     0.121093
     23 H                     0.125879
     24 H                     0.151515
     25 H                     0.178875
     26 H                     0.128663
     27 H                     0.121060
     28 H                     0.128609
     29 H                     0.121373
     30 H                     0.180069
  ----------------------------------------
  Sum of atomic charges =    -2.000000

                    Cartesian Multipole Moments
 -----------------------------------------------------------------
    Charge (ESU x 10^10)
                -9.6064
    Dipole Moment (Debye)
         X       0.7503      Y      -9.0136      Z      -0.2218
       Tot       9.0475
    Quadrupole Moments (Debye-Ang)
        XX    -105.1676     XY      12.2755     YY    -167.1874
        XZ       1.4139     YZ      -4.8484     ZZ     -99.6199

 Total job time:  69.65s(wall), 533.48s(cpu)
        *  Thank you very much for using Q-Chem.  Have a nice day.  *
