 Q-Chem 5.4, Q-Chem, Inc., Pleasanton, CA (2021)
 Q-Chem 5.4.0 for Intel X86 EM64T Linux

User input:
--------------------------------------------------------------
$molecule
-2 1
Cl                 3.0130710000      2.8801070000      0.3392980000
C                  2.6106840000      1.1238870000      0.2620000000
C                  3.7199430000      0.3110220000      0.3433040000
C                  3.5579200000     -1.1014760000      0.2956470000
C                  2.2946710000     -1.6248290000      0.1693000000
C                  1.1351030000     -0.8122730000      0.0835640000
C                 -0.1300580000     -1.4956340000     -0.0465530000
O                 -0.2272940000     -2.7825910000     -0.0851380000
C                 -1.2791870000     -0.6298540000     -0.1301670000
C                 -2.5745130000     -1.1990330000     -0.2603610000
C                 -3.7127630000     -0.4260250000     -0.3451930000
C                 -3.6022560000      0.9932500000     -0.3021770000
C                 -2.3563370000      1.5742480000     -0.1761620000
C                 -1.1651370000      0.8104780000     -0.0864060000
C                  0.1002770000      1.5191210000      0.0442470000
O                  0.1354440000      2.7975450000      0.0771280000
C                  1.2675950000      0.6584810000      0.1297660000
H                  4.7026790000      0.7580640000      0.4425730000
H                  4.4316670000     -1.7470080000      0.3594810000
H                  2.1186570000     -2.6949040000      0.1283580000
H                 -2.6201080000     -2.2835250000     -0.2897320000
H                 -4.6906340000     -0.8956480000     -0.4444360000
H                 -4.4945580000      1.6140690000     -0.3682880000
H                 -2.2348650000      2.6525280000     -0.1400490000
$end

$rem
BASIS  =  6-311++G(d,p)
GUI  =  2
JOB_TYPE  =  SP
METHOD  =  B3LYP
SCF_CONVERGENCE  = 8
SOLVENT_METHOD = sm12
$end

$smx
solvent dimethylformamide
charges CM5
$end

--------------------------------------------------------------

             Standard Nuclear Orientation (Angstroms)
    I     Atom           X                Y                Z
 ----------------------------------------------------------------
    1      Cl      3.0130710000     2.8801070000     0.3392980000
    2      C       2.6106840000     1.1238870000     0.2620000000
    3      C       3.7199430000     0.3110220000     0.3433040000
    4      C       3.5579200000    -1.1014760000     0.2956470000
    5      C       2.2946710000    -1.6248290000     0.1693000000
    6      C       1.1351030000    -0.8122730000     0.0835640000
    7      C      -0.1300580000    -1.4956340000    -0.0465530000
    8      O      -0.2272940000    -2.7825910000    -0.0851380000
    9      C      -1.2791870000    -0.6298540000    -0.1301670000
   10      C      -2.5745130000    -1.1990330000    -0.2603610000
   11      C      -3.7127630000    -0.4260250000    -0.3451930000
   12      C      -3.6022560000     0.9932500000    -0.3021770000
   13      C      -2.3563370000     1.5742480000    -0.1761620000
   14      C      -1.1651370000     0.8104780000    -0.0864060000
   15      C       0.1002770000     1.5191210000     0.0442470000
   16      O       0.1354440000     2.7975450000     0.0771280000
   17      C       1.2675950000     0.6584810000     0.1297660000
   18      H       4.7026790000     0.7580640000     0.4425730000
   19      H       4.4316670000    -1.7470080000     0.3594810000
   20      H       2.1186570000    -2.6949040000     0.1283580000
   21      H      -2.6201080000    -2.2835250000    -0.2897320000
   22      H      -4.6906340000    -0.8956480000    -0.4444360000
   23      H      -4.4945580000     1.6140690000    -0.3682880000
   24      H      -2.2348650000     2.6525280000    -0.1400490000
 ----------------------------------------------------------------

   18   -1148.5380442230      9.18e-09  Convergence criterion met
 Total energy in the final basis set =    -1148.8144902947

                    Orbital Energies (a.u.)
 --------------------------------------------------------------

 Alpha MOs
 -- Occupied --
******** -19.0280 -19.0274 -10.2286 -10.1963 -10.1873 -10.1760 -10.1742
-10.1742 -10.1725 -10.1699 -10.1696 -10.1693 -10.1657 -10.1586 -10.1565
-10.1562  -9.4485  -7.2130  -7.2039  -7.2029  -0.9509  -0.9435  -0.8688
 -0.8453  -0.8171  -0.7727  -0.7441  -0.7287  -0.7248  -0.6556  -0.6301
 -0.6123  -0.5743  -0.5419  -0.5304  -0.5148  -0.4665  -0.4562  -0.4552
 -0.4455  -0.4211  -0.4178  -0.4020  -0.3999  -0.3858  -0.3818  -0.3703
 -0.3659  -0.3447  -0.3409  -0.3383  -0.3259  -0.3192  -0.3079  -0.2955
 -0.2512  -0.2397  -0.2389  -0.2330  -0.2072  -0.1979  -0.1191

          Ground-State Mulliken Net Atomic Charges

     Atom                 Charge (a.u.)
  ----------------------------------------
      1 Cl                    0.989013
      2 C                     1.128507
      3 C                     2.636321
      4 C                     1.105383
      5 C                     0.017819
      6 C                    -1.404169
      7 C                    -2.999515
      8 O                    -0.341675
      9 C                    -1.702911
     10 C                    -0.384418
     11 C                     1.575478
     12 C                     1.527106
     13 C                    -0.006796
     14 C                    -1.367834
     15 C                    -3.382246
     16 O                    -0.201159
     17 C                    -1.081150
     18 H                     0.396314
     19 H                     0.375304
     20 H                     0.089591
     21 H                     0.109665
     22 H                     0.404022
     23 H                     0.399167
     24 H                     0.118184
  ----------------------------------------
  Sum of atomic charges =    -2.000000

                    Cartesian Multipole Moments
 -----------------------------------------------------------------
    Charge (ESU x 10^10)
                -9.6064
    Dipole Moment (Debye)
         X      -1.0110      Y      -1.1180      Z      -0.1168
       Tot       1.5119
    Quadrupole Moments (Debye-Ang)
        XX    -148.1572     XY      -7.8961     YY    -170.0763
        XZ      -2.8020     YZ      -1.8909     ZZ    -119.5209

 Total job time:  585.12s(wall), 4385.18s(cpu)
        *  Thank you very much for using Q-Chem.  Have a nice day.  *
