 Q-Chem 5.4, Q-Chem, Inc., Pleasanton, CA (2021)
 Q-Chem 5.4.0 for Intel X86 EM64T Linux

User input:
--------------------------------------------------------------
$molecule
0 1
C                 -1.6215830000     -1.4055470000     -0.1355960000
C                 -0.3198500000     -0.6560130000     -0.0929520000
C                 -0.2514980000      0.6778720000      0.1360370000
C                 -1.4715330000      1.5243050000      0.3665490000
C                  1.0723840000      1.3731980000      0.1682030000
O                  1.1588650000      2.5743850000      0.3735070000
C                  2.2989730000      0.5705160000     -0.0562430000
C                  2.2316150000     -0.7444910000     -0.2821330000
C                  0.9275850000     -1.4500260000     -0.3172420000
O                  0.8908760000     -2.6531770000     -0.5262370000
H                 -1.4474190000     -2.4622540000     -0.3307880000
H                 -2.2764890000     -1.0078780000     -0.9174810000
H                 -2.1605860000     -1.3077090000      0.8121100000
H                 -2.0328380000      1.1725490000      1.2380840000
H                 -2.1498620000      1.4744360000     -0.4911360000
H                 -1.1903060000      2.5633560000      0.5291030000
H                  3.2343720000      1.1180310000     -0.0239180000
H                  3.1072940000     -1.3615530000     -0.4498670000
$end
$rem
MAX_SCF_CYCLES=200
BASIS  =  6-311++G(d,p)
GUI  =  2
JOB_TYPE  =  SP
METHOD  =  B3LYP
SOLVENT_METHOD = PCM
$end
$pcm
theory = CPCM
$end
$solvent
dielectric 37.219
opticaldielectric 1.43
$end

--------------------------------------------------------------

             Standard Nuclear Orientation (Angstroms)
    I     Atom           X                Y                Z
 ----------------------------------------------------------------
    1      C      -1.6215830000    -1.4055470000    -0.1355960000
    2      C      -0.3198500000    -0.6560130000    -0.0929520000
    3      C      -0.2514980000     0.6778720000     0.1360370000
    4      C      -1.4715330000     1.5243050000     0.3665490000
    5      C       1.0723840000     1.3731980000     0.1682030000
    6      O       1.1588650000     2.5743850000     0.3735070000
    7      C       2.2989730000     0.5705160000    -0.0562430000
    8      C       2.2316150000    -0.7444910000    -0.2821330000
    9      C       0.9275850000    -1.4500260000    -0.3172420000
   10      O       0.8908760000    -2.6531770000    -0.5262370000
   11      H      -1.4474190000    -2.4622540000    -0.3307880000
   12      H      -2.2764890000    -1.0078780000    -0.9174810000
   13      H      -2.1605860000    -1.3077090000     0.8121100000
   14      H      -2.0328380000     1.1725490000     1.2380840000
   15      H      -2.1498620000     1.4744360000    -0.4911360000
   16      H      -1.1903060000     2.5633560000     0.5291030000
   17      H       3.2343720000     1.1180310000    -0.0239180000
   18      H       3.1072940000    -1.3615530000    -0.4498670000
 ----------------------------------------------------------------

    8    -460.2336859155      4.65e-06  Convergence criterion met
 Total energy in the final basis set =     -460.2336859155

                    Orbital Energies (a.u.)
 --------------------------------------------------------------

 Alpha MOs
 -- Occupied --
-19.1409 -19.1409 -10.2842 -10.2842 -10.2110 -10.2103 -10.2083 -10.2074
-10.1701 -10.1701  -1.0724  -1.0707  -0.8655  -0.8121  -0.7480  -0.6924
 -0.6899  -0.6030  -0.5884  -0.5316  -0.5036  -0.4769  -0.4626  -0.4486
 -0.4363  -0.4260  -0.4215  -0.4187  -0.4099  -0.3982  -0.3826  -0.3752
 -0.3102  -0.2931  -0.2774  -0.2759

          Ground-State Mulliken Net Atomic Charges

     Atom                 Charge (a.u.)
  ----------------------------------------
      1 C                    -0.521980
      2 C                     0.607089
      3 C                     0.606263
      4 C                    -0.523899
      5 C                    -0.611512
      6 O                    -0.312375
      7 C                     0.030909
      8 C                     0.027849
      9 C                    -0.611295
     10 O                    -0.312668
     11 H                     0.192367
     12 H                     0.182808
     13 H                     0.182662
     14 H                     0.182836
     15 H                     0.182686
     16 H                     0.192548
     17 H                     0.252960
     18 H                     0.252752
  ----------------------------------------
  Sum of atomic charges =     0.000000

                    Cartesian Multipole Moments
 -----------------------------------------------------------------
    Charge (ESU x 10^10)
                 0.0000
    Dipole Moment (Debye)
         X      -1.2456      Y       0.0486      Z       0.0929
       Tot       1.2500
    Quadrupole Moments (Debye-Ang)
        XX     -48.9907     XY      -1.4519     YY     -79.5904
        XZ      -0.8842     YZ      -3.6432     ZZ     -58.8740

 Total job time:  24.40s(wall), 89.61s(cpu)
        *  Thank you very much for using Q-Chem.  Have a nice day.  *
