 Gaussian 16, Revision A.03,
 Gaussian 16:  ES64L-G16RevA.03 25-Dec-2016

 ----------------------------------------------------------------------
 #P UB3LYP/6-311++G(d,p) nosym opt freq SCRF=(PCM,Solvent=n,n-DiMethylF
 ormamide)
 ----------------------------------------------------------------------

 -------
 Radical
 -------
 Symbolic Z-matrix:
 Charge = -1 Multiplicity = 2

 SCF Done:  E(UB3LYP) =  -1985.17339889     A.U. after   19 cycles
 SCF Done:  E(UB3LYP) =  -1985.17424777     A.U. after   15 cycles
 SCF Done:  E(UB3LYP) =  -1985.17303660     A.U. after   17 cycles
 SCF Done:  E(UB3LYP) =  -1985.17439125     A.U. after   16 cycles
 SCF Done:  E(UB3LYP) =  -1985.17494493     A.U. after   16 cycles
 SCF Done:  E(UB3LYP) =  -1985.17508266     A.U. after   15 cycles
 SCF Done:  E(UB3LYP) =  -1985.17524099     A.U. after   16 cycles
 SCF Done:  E(UB3LYP) =  -1985.17534293     A.U. after   14 cycles
 SCF Done:  E(UB3LYP) =  -1985.17541885     A.U. after   14 cycles
 SCF Done:  E(UB3LYP) =  -1985.17547076     A.U. after   13 cycles
 SCF Done:  E(UB3LYP) =  -1985.17578580     A.U. after   13 cycles
 SCF Done:  E(UB3LYP) =  -1985.17578708     A.U. after   11 cycles
 SCF Done:  E(UB3LYP) =  -1985.17578801     A.U. after   11 cycles
 SCF Done:  E(UB3LYP) =  -1985.17578849     A.U. after    9 cycles
 SCF Done:  E(UB3LYP) =  -1985.17578935     A.U. after   11 cycles
 SCF Done:  E(UB3LYP) =  -1985.17579009     A.U. after   11 cycles
 SCF Done:  E(UB3LYP) =  -1985.17579098     A.U. after   11 cycles
 SCF Done:  E(UB3LYP) =  -1985.17579213     A.U. after   11 cycles
 SCF Done:  E(UB3LYP) =  -1985.17579220     A.U. after    9 cycles
 Optimization completed.
    -- Stationary point found.
 Normal termination of Gaussian 16 at Sat Feb 10 16:38:02 2024.

 ----------------------------------------------------------------------
 #P Geom=AllCheck Guess=TCheck SCRF=Check GenChk UB3LYP/6-311++G(d,p) F
 req
 ----------------------------------------------------------------------

 Structure from the checkpoint file:  "101-rad.chk"
 -------
 Radical
 -------
 Charge = -1 Multiplicity = 2

                          Input orientation:
 ---------------------------------------------------------------------
 Center     Atomic      Atomic             Coordinates (Angstroms)
 Number     Number       Type             X           Y           Z
 ---------------------------------------------------------------------
      1          6           0       -1.911024   -5.408084    0.960653
      2          6           0       -0.702644   -5.543539    0.202631
      3          6           0        0.027807   -4.467480   -0.259836
      4          6           0       -0.487386   -3.101810   -0.057910
      5          6           0       -2.405605   -4.037320    1.203755
      6          6           0       -1.720464   -2.968470    0.662648
      7          8           0       -2.576971   -6.386114    1.408045
      8          8           0        0.162119   -2.127218   -0.535614
      9          7           0       -3.608544   -4.016821    1.906874
     10          7           0        1.207327   -4.510782   -0.994026
     11          6           0       -3.911747   -3.169633    3.080507
     12          6           0       -2.705247   -2.775801    3.936458
     13          6           0       -4.832003   -1.974419    2.749743
     14          6           0        2.369167   -5.332019   -0.618103
     15          6           0        3.577455   -4.438177   -0.298823
     16          6           0        2.760288   -6.359119   -1.696924
     17          7           0       -5.572423   -2.113662    1.635066
     18          7           0        2.133945   -6.244078   -2.878890
     19          6           0        2.372831   -7.146068   -3.994533
     20          6           0       -6.497955   -1.093926    1.169506
     21          8           0       -4.943287   -1.018791    3.522441
     22          8           0        3.629257   -7.205900   -1.463895
     23         17           0       -0.218012   -7.203685   -0.175637
     24         17           0       -2.348276   -1.321174    0.784998
     25          1           0       -3.844194   -4.990098    2.087267
     26          1           0        1.461430   -3.548714   -1.210752
     27          1           0       -4.551216   -3.802407    3.706988
     28          1           0       -3.047828   -2.244742    4.824711
     29          1           0       -2.013285   -2.127747    3.399099
     30          1           0       -2.171160   -3.674411    4.252710
     31          1           0        2.126640   -5.915541    0.270183
     32          1           0        3.352681   -3.794625    0.554162
     33          1           0        3.830578   -3.805952   -1.155369
     34          1           0        4.446381   -5.050840   -0.056194
     35          1           0       -5.317316   -2.878094    1.024740
     36          1           0        1.382633   -5.568522   -2.921903
     37          1           0        3.441903   -7.218831   -4.201312
     38          1           0        1.867062   -6.753378   -4.875529
     39          1           0        1.993190   -8.150851   -3.786155
     40          1           0       -7.088093   -1.504428    0.351128
     41          1           0       -5.970989   -0.202747    0.813611
     42          1           0       -7.169937   -0.796192    1.975940
 ---------------------------------------------------------------------

 SCF Done:  E(UB3LYP) =  -1985.17579220     A.U. after    2 cycles

 Alpha  occ. eigenvalues -- -101.54911-101.54841 -19.09285 -19.09255 -19.08800
 Alpha  occ. eigenvalues --  -19.08784 -14.33990 -14.33600 -14.32913 -14.32764
 Alpha  occ. eigenvalues --  -10.27174 -10.27164 -10.23862 -10.23838 -10.22376
 Alpha  occ. eigenvalues --  -10.22284 -10.22269 -10.22157 -10.21963 -10.21947
 Alpha  occ. eigenvalues --  -10.20115 -10.19966 -10.16877 -10.16080  -9.46386
 Alpha  occ. eigenvalues --   -9.46334  -7.22822  -7.22767  -7.21888  -7.21837
 Alpha  occ. eigenvalues --   -7.21837  -7.21782  -1.04114  -1.04062  -1.01969
 Alpha  occ. eigenvalues --   -1.01527  -0.94437  -0.94047  -0.92233  -0.91965
 Alpha  occ. eigenvalues --   -0.86894  -0.85810  -0.80724  -0.78144  -0.75931
 Alpha  occ. eigenvalues --   -0.71594  -0.71524  -0.70614  -0.68376  -0.64876
 Alpha  occ. eigenvalues --   -0.63657  -0.59690  -0.58762  -0.58077  -0.57104
 Alpha  occ. eigenvalues --   -0.54662  -0.52405  -0.52035  -0.50905  -0.49166
 Alpha  occ. eigenvalues --   -0.48768  -0.47053  -0.46195  -0.45618  -0.44860
 Alpha  occ. eigenvalues --   -0.44417  -0.44173  -0.43744  -0.43230  -0.42887
 Alpha  occ. eigenvalues --   -0.42511  -0.41997  -0.40840  -0.40462  -0.39648
 Alpha  occ. eigenvalues --   -0.39568  -0.39453  -0.39293  -0.38866  -0.38027
 Alpha  occ. eigenvalues --   -0.37500  -0.37079  -0.36302  -0.35289  -0.35131
 Alpha  occ. eigenvalues --   -0.33534  -0.32276  -0.31505  -0.31322  -0.31064
 Alpha  occ. eigenvalues --   -0.27160  -0.26700  -0.26471  -0.26352  -0.26148
 Alpha  occ. eigenvalues --   -0.25661  -0.24307  -0.21315  -0.16183
 Alpha virt. eigenvalues --   -0.01321  -0.00869  -0.00514   0.00311   0.00423
 Alpha virt. eigenvalues --    0.00995   0.01199   0.01644   0.01831   0.01996
 Alpha virt. eigenvalues --    0.02164   0.02554   0.02948   0.03210   0.03779

  Beta  occ. eigenvalues -- -101.54913-101.54842 -19.09286 -19.09255 -19.08231
  Beta  occ. eigenvalues --  -19.08201 -14.33987 -14.33597 -14.32803 -14.32659
  Beta  occ. eigenvalues --  -10.27172 -10.27161 -10.23663 -10.23638 -10.22256
  Beta  occ. eigenvalues --  -10.22166 -10.22146 -10.22080 -10.21996 -10.21988
  Beta  occ. eigenvalues --  -10.20115 -10.19966 -10.16873 -10.16076  -9.46388
  Beta  occ. eigenvalues --   -9.46335  -7.22824  -7.22769  -7.21891  -7.21839
  Beta  occ. eigenvalues --   -7.21838  -7.21784  -1.04110  -1.04058  -1.01038
  Beta  occ. eigenvalues --   -1.00542  -0.94194  -0.93796  -0.92156  -0.91879
  Beta  occ. eigenvalues --   -0.86762  -0.85766  -0.80380  -0.77974  -0.75812
  Beta  occ. eigenvalues --   -0.71586  -0.71515  -0.70472  -0.67540  -0.64815
  Beta  occ. eigenvalues --   -0.63507  -0.59415  -0.58590  -0.57993  -0.56968
  Beta  occ. eigenvalues --   -0.54497  -0.52280  -0.51912  -0.50672  -0.49015
  Beta  occ. eigenvalues --   -0.48682  -0.46961  -0.46136  -0.45590  -0.44783
  Beta  occ. eigenvalues --   -0.44212  -0.43782  -0.43361  -0.43153  -0.42722
  Beta  occ. eigenvalues --   -0.42003  -0.41433  -0.40735  -0.40263  -0.39636
  Beta  occ. eigenvalues --   -0.39526  -0.39220  -0.38923  -0.37911  -0.37400
  Beta  occ. eigenvalues --   -0.37313  -0.36998  -0.35937  -0.35159  -0.35049
  Beta  occ. eigenvalues --   -0.32939  -0.31664  -0.31276  -0.30676  -0.30267
  Beta  occ. eigenvalues --   -0.26595  -0.26512  -0.26233  -0.26083  -0.25996
  Beta  occ. eigenvalues --   -0.25133  -0.23063  -0.20707
  Beta virt. eigenvalues --   -0.09450  -0.01289  -0.00509   0.00059   0.00326
  Beta virt. eigenvalues --    0.00551   0.01052   0.01267   0.01735   0.01875
  Beta virt. eigenvalues --    0.02236   0.02575   0.02871   0.03245   0.03792

 Mulliken charges and spin densities:
               1          2
     1  C   -0.516078   0.133464
     2  C    0.034053  -0.051955
     3  C   -0.412945   0.162396
     4  C   -0.493108   0.130160
     5  C   -0.341336   0.153793
     6  C    0.111226  -0.054529
     7  O   -0.426467   0.209154
     8  O   -0.419214   0.215314
     9  N   -0.093126   0.046562
    10  N    0.043430   0.046229
    11  C    0.409856   0.002516
    12  C   -0.603227   0.000751
    13  C   -0.517226   0.000338
    14  C    0.237951   0.001598
    15  C   -0.651987  -0.001797
    16  C   -0.326506   0.002808
    17  N   -0.132523   0.000383
    18  N   -0.166131  -0.000150
    19  C   -0.309514  -0.000256
    20  C   -0.319115  -0.000402
    21  O   -0.417294   0.000260
    22  O   -0.433749   0.000182
    23  Cl   0.495253   0.001116
    24  Cl   0.469105   0.001847
    25  H    0.300000  -0.003710
    26  H    0.286208  -0.003746
    27  H    0.231372   0.000183
    28  H    0.177299  -0.000132
    29  H    0.127161   0.000749
    30  H    0.169674   0.000165
    31  H    0.197662   0.002552
    32  H    0.183052  -0.000325
    33  H    0.170337  -0.000102
    34  H    0.172073   0.001010
    35  H    0.367772   0.001576
    36  H    0.377315   0.001788
    37  H    0.175992   0.000036
    38  H    0.155812   0.000052
    39  H    0.184700   0.000029
    40  H    0.155998   0.000043
    41  H    0.178646   0.000025
    42  H    0.167604   0.000023
 Sum of Mulliken charges =  -1.00000   1.00000

 Dipole moment (field-independent basis, Debye):
    X=              3.0776    Y=             20.2067    Z=             -6.1537  Tot=             21.3460
 Quadrupole moment (field-independent basis, Debye-Ang):
   XX=           -186.8792   YY=           -307.3234   ZZ=           -165.0454
   XY=             10.6689   XZ=             25.9453   YZ=             14.1498

  Exact polarizability: 381.600 -11.720 391.596 -68.027   0.946 310.571
 Approx polarizability: 397.997  20.091 434.448 -65.281 -21.248 336.459

                      1                      2                      3
                      A                      A                      A
 Frequencies --     16.3778                28.0697                33.5919
 Red. masses --      5.5751                 5.1013                 5.8284
 Frc consts  --      0.0009                 0.0024                 0.0039
 IR Inten    --      0.3785                 2.1668                 1.6012

                      4                      5                      6
                      A                      A                      A
 Frequencies --     41.9608                51.6810                61.4112
 Red. masses --      3.9010                 3.6514                 3.7884
 Frc consts  --      0.0040                 0.0057                 0.0084
 IR Inten    --      0.8454                 2.1858                25.0832

                      7                      8                      9
                      A                      A                      A
 Frequencies --     72.1198                76.4903                80.2136
 Red. masses --      3.3433                 1.5843                 1.0933
 Frc consts  --      0.0102                 0.0055                 0.0041
 IR Inten    --      1.4589                 6.3450                 1.6068

                     10                     11                     12
                      A                      A                      A
 Frequencies --     90.1722               101.1149               130.4152
 Red. masses --      9.4693                 5.4968                 5.4367
 Frc consts  --      0.0454                 0.0331                 0.0545
 IR Inten    --     11.0008                 2.6712                10.9759

                     13                     14                     15
                      A                      A                      A
 Frequencies --    138.9924               146.2490               158.6868
 Red. masses --      5.4110                 5.1528                 4.2924
 Frc consts  --      0.0616                 0.0649                 0.0637
 IR Inten    --      5.8935                 3.9500                 4.8653

                     16                     17                     18
                      A                      A                      A
 Frequencies --    166.7472               180.8066               199.8956
 Red. masses --      2.6688                 4.8319                 1.3153
 Frc consts  --      0.0437                 0.0931                 0.0310
 IR Inten    --      2.1991                20.0186                 0.7886

                     19                     20                     21
                      A                      A                      A
 Frequencies --    209.2606               215.7575               222.7347
 Red. masses --      7.0090                 4.4291                 5.3402
 Frc consts  --      0.1808                 0.1215                 0.1561
 IR Inten    --      4.2773                 0.5630                 2.1723

                     22                     23                     24
                      A                      A                      A
 Frequencies --    246.6763               249.2155               271.4741
 Red. masses --      1.6133                 2.3232                 5.2789
 Frc consts  --      0.0578                 0.0850                 0.2292
 IR Inten    --      3.0329                 1.3514                 4.1620

                     25                     26                     27
                      A                      A                      A
 Frequencies --    302.5514               310.0468               315.7764
 Red. masses --      3.9803                 7.5886                 4.0546
 Frc consts  --      0.2147                 0.4298                 0.2382
 IR Inten    --      7.3763                11.7906                20.6160

                     28                     29                     30
                      A                      A                      A
 Frequencies --    327.0434               336.3574               360.0028
 Red. masses --      6.3006                 6.3255                 5.3950
 Frc consts  --      0.3970                 0.4216                 0.4120
 IR Inten    --     20.3511                13.6663                12.6619

                     31                     32                     33
                      A                      A                      A
 Frequencies --    370.4744               378.3352               412.1025
 Red. masses --      4.9926                 9.6489                 4.6140
 Frc consts  --      0.4037                 0.8137                 0.4617
 IR Inten    --      6.9919                17.2097                15.4184

                     34                     35                     36
                      A                      A                      A
 Frequencies --    450.1130               476.8741               511.2016
 Red. masses --      7.8194                 6.6562                 5.2033
 Frc consts  --      0.9334                 0.8918                 0.8011
 IR Inten    --     20.5982                 5.9066                32.0669

                     37                     38                     39
                      A                      A                      A
 Frequencies --    524.6446               555.5915               563.4545
 Red. masses --      4.6377                 3.1863                 5.5509
 Frc consts  --      0.7521                 0.5795                 1.0383
 IR Inten    --     19.7042                40.3236                14.4788

                     40                     41                     42
                      A                      A                      A
 Frequencies --    574.3064               593.3142               601.2433
 Red. masses --      3.3492                 1.4477                 1.7070
 Frc consts  --      0.6508                 0.3003                 0.3636
 IR Inten    --     61.2287                63.7503                40.5078

                     43                     44                     45
                      A                      A                      A
 Frequencies --    613.2243               640.4173               731.3447
 Red. masses --      3.2042                 3.8451                 3.9513
 Frc consts  --      0.7099                 0.9291                 1.2452
 IR Inten    --    134.6477                14.7291                49.2395

                     46                     47                     48
                      A                      A                      A
 Frequencies --    738.6765               748.2598               755.1574
 Red. masses --      3.4871                 3.1613                 6.3588
 Frc consts  --      1.1210                 1.0428                 2.1365
 IR Inten    --     80.2036                54.8099                62.9216

                     49                     50                     51
                      A                      A                      A
 Frequencies --    761.6393               766.8574               790.5030
 Red. masses --      4.8618                 3.5506                 2.2656
 Frc consts  --      1.6617                 1.2302                 0.8341
 IR Inten    --      3.6541               127.0630               166.3601

                     52                     53                     54
                      A                      A                      A
 Frequencies --    811.8426               853.6493               865.3861
 Red. masses --      2.4275                 2.9799                 2.7449
 Frc consts  --      0.9426                 1.2794                 1.2111
 IR Inten    --    153.5287                62.8737                26.7592

                     55                     56                     57
                      A                      A                      A
 Frequencies --    911.9132               937.1023               938.2864
 Red. masses --      5.1843                 2.3671                 1.7122
 Frc consts  --      2.5401                 1.2248                 0.8881
 IR Inten    --     25.1421                47.0845                34.3270

                     58                     59                     60
                      A                      A                      A
 Frequencies --   1007.6362              1016.1908              1042.2621
 Red. masses --      2.5070                 2.2258                 3.2684
 Frc consts  --      1.4997                 1.3542                 2.0919
 IR Inten    --     43.1561                29.3299                15.0670

                     61                     62                     63
                      A                      A                      A
 Frequencies --   1081.6952              1098.3446              1110.6724
 Red. masses --      2.7419                 3.6039                 2.4196
 Frc consts  --      1.8902                 2.5616                 1.7586
 IR Inten    --      7.3093                15.6059                 9.4921

                     64                     65                     66
                      A                      A                      A
 Frequencies --   1125.3694              1142.1405              1144.9521
 Red. masses --      2.9005                 1.2988                 1.2996
 Frc consts  --      2.1643                 0.9982                 1.0037
 IR Inten    --    129.8893                 8.2756                 7.0242

                     67                     68                     69
                      A                      A                      A
 Frequencies --   1147.8788              1159.3744              1179.6005
 Red. masses --      2.6773                 2.4214                 2.1602
 Frc consts  --      2.0784                 1.9176                 1.7710
 IR Inten    --     71.2873                82.4836               146.0197

                     70                     71                     72
                      A                      A                      A
 Frequencies --   1184.5829              1191.8108              1221.8960
 Red. masses --      1.8015                 3.9635                 4.8838
 Frc consts  --      1.4894                 3.3170                 4.2961
 IR Inten    --     17.7703               160.4039               175.5017

                     73                     74                     75
                      A                      A                      A
 Frequencies --   1228.9213              1264.3434              1270.0835
 Red. masses --      5.2640                 1.8693                 1.8986
 Frc consts  --      4.6840                 1.7606                 1.8045
 IR Inten    --     96.5349                56.9628                48.8418

                     76                     77                     78
                      A                      A                      A
 Frequencies --   1307.7370              1324.8568              1331.8977
 Red. masses --      1.3293                 1.4147                 2.5152
 Frc consts  --      1.3394                 1.4630                 2.6289
 IR Inten    --     16.6800                10.1917                44.4121

                     79                     80                     81
                      A                      A                      A
 Frequencies --   1367.6309              1375.4660              1397.9749
 Red. masses --      1.4062                 1.5165                 1.2214
 Frc consts  --      1.5497                 1.6904                 1.4064
 IR Inten    --     10.9155               138.7685                18.9300

                     82                     83                     84
                      A                      A                      A
 Frequencies --   1399.6688              1443.4970              1445.0197
 Red. masses --      1.2323                 1.2125                 1.2122
 Frc consts  --      1.4224                 1.4885                 1.4914
 IR Inten    --     23.2952                47.6752                76.7020

                     85                     86                     87
                      A                      A                      A
 Frequencies --   1472.9691              1474.0194              1474.8036
 Red. masses --      1.3288                 1.2638                 1.5513
 Frc consts  --      1.6986                 1.6179                 1.9880
 IR Inten    --    863.5763               581.0121               761.6934

                     88                     89                     90
                      A                      A                      A
 Frequencies --   1479.8922              1484.0563              1490.4111
 Red. masses --      1.0731                 1.0475                 1.0867
 Frc consts  --      1.3847                 1.3593                 1.4222
 IR Inten    --     35.1683                 6.3921                 8.5427

                     91                     92                     93
                      A                      A                      A
 Frequencies --   1492.1418              1497.5535              1499.1913
 Red. masses --      1.1464                 1.0863                 1.0710
 Frc consts  --      1.5038                 1.4353                 1.4182
 IR Inten    --     76.4221                 9.8222                 6.2638

                     94                     95                     96
                      A                      A                      A
 Frequencies --   1509.3088              1528.5607              1548.7561
 Red. masses --      3.1849                 5.2428                 2.0688
 Frc consts  --      4.2747                 7.2173                 2.9237
 IR Inten    --     16.1363               356.4477               142.9557

                     97                     98                     99
                      A                      A                      A
 Frequencies --   1555.4223              1557.1469              1567.3688
 Red. masses --      1.9393                 2.2376                 1.8318
 Frc consts  --      2.7643                 3.1966                 2.6514
 IR Inten    --    425.0623                65.3593               132.9964

                    100                    101                    102
                      A                      A                      A
 Frequencies --   1607.4811              1673.0119              1676.0678
 Red. masses --      5.2207                 8.5699                 8.9781
 Frc consts  --      7.9482                14.1326                14.8599
 IR Inten    --     37.8291               642.1097               599.6046

                    103                    104                    105
                      A                      A                      A
 Frequencies --   3023.5933              3024.2276              3029.8065
 Red. masses --      1.0470                 1.0785                 1.0401
 Frc consts  --      5.6395                 5.8119                 5.6253
 IR Inten    --     67.9768                39.5686                74.2734

                    106                    107                    108
                      A                      A                      A
 Frequencies --   3031.0532              3050.4218              3088.0083
 Red. masses --      1.0377                 1.0368                 1.0943
 Frc consts  --      5.6169                 5.6842                 6.1480
 IR Inten    --     24.3624                27.2139                40.2946

                    109                    110                    111
                      A                      A                      A
 Frequencies --   3088.1390              3091.1279              3104.4762
 Red. masses --      1.0898                 1.0969                 1.0950
 Frc consts  --      6.1236                 6.1751                 6.2181
 IR Inten    --      9.3668                37.8885                33.2908

                    112                    113                    114
                      A                      A                      A
 Frequencies --   3117.9509              3122.0282              3132.8505
 Red. masses --      1.1003                 1.1016                 1.1029
 Frc consts  --      6.3026                 6.3264                 6.3775
 IR Inten    --     24.7741                26.2474                21.0245

                    115                    116                    117
                      A                      A                      A
 Frequencies --   3133.7526              3135.3407              3467.8685
 Red. masses --      1.1023                 1.1029                 1.0735
 Frc consts  --      6.3777                 6.3877                 7.6065
 IR Inten    --     25.9636                20.1813                99.9641

                    118                    119                    120
                      A                      A                      A
 Frequencies --   3473.9531              3583.4279              3589.2517
 Red. masses --      1.0738                 1.0775                 1.0773
 Frc consts  --      7.6354                 8.1520                 8.1772
 IR Inten    --    135.6165               178.1476               149.8639

 - Thermochemistry -
 -------------------
 Temperature   298.150 Kelvin.  Pressure   1.00000 Atm.
 Atom     1 has atomic number  6 and mass  12.00000

 Molecular mass:   376.07051 amu.
 Principal axes and moments of inertia in atomic units:
                           1         2         3
     Eigenvalues --  3869.80705********************
           X            0.75478   0.41932   0.50445
           Y           -0.48628   0.87380   0.00126
           Z           -0.44026  -0.24626   0.86344
 This molecule is an asymmetric top.
 Rotational symmetry number  1.
 Warning -- assumption of classical behavior for rotation
           may cause significant error
 Rotational temperatures (Kelvin)      0.02238     0.00458     0.00428
 Rotational constants (GHZ):           0.46636     0.09547     0.08920
 Zero-point vibrational energy     842797.6 (Joules/Mol)
                                  201.43346 (Kcal/Mol)
 Warning -- explicit consideration of  43 degrees of freedom as
           vibrations may cause significant error
 Vibrational temperatures:     23.56    40.39    48.33    60.37    74.36
          (Kelvin)             88.36   103.76   110.05   115.41   129.74
                              145.48   187.64   199.98   210.42   228.31
                              239.91   260.14   287.61   301.08   310.43
                              320.47   354.91   358.57   390.59   435.30
                              446.09   454.33   470.54   483.94   517.96
                              533.03   544.34   592.92   647.61   686.12
                              735.51   754.85   799.37   810.69   826.30
                              853.65   865.06   882.29   921.42  1052.24
                             1062.79  1076.58  1086.50  1095.83  1103.34
                             1137.36  1168.06  1228.21  1245.10  1312.04
                             1348.28  1349.98  1449.76  1462.07  1499.58
                             1556.32  1580.27  1598.01  1619.16  1643.29
                             1647.33  1651.54  1668.08  1697.18  1704.35
                             1714.75  1758.04  1768.14  1819.11  1827.37
                             1881.54  1906.17  1916.30  1967.72  1978.99
                             2011.37  2013.81  2076.87  2079.06  2119.27
                             2120.79  2121.91  2129.23  2135.23  2144.37
                             2146.86  2154.65  2157.00  2171.56  2199.26
                             2228.31  2237.91  2240.39  2255.09  2312.81
                             2407.09  2411.49  4350.28  4351.19  4359.22
                             4361.01  4388.88  4442.96  4443.14  4447.44
                             4466.65  4486.04  4491.90  4507.47  4508.77
                             4511.06  4989.49  4998.24  5155.75  5164.13

 Zero-point correction=                           0.321005 (Hartree/Particle)
 Thermal correction to Energy=                    0.347181
 Thermal correction to Enthalpy=                  0.348125
 Thermal correction to Gibbs Free Energy=         0.261440
 Sum of electronic and zero-point Energies=          -1984.854788
 Sum of electronic and thermal Energies=             -1984.828612
 Sum of electronic and thermal Enthalpies=           -1984.827667
 Sum of electronic and thermal Free Energies=        -1984.914352

                     E (Thermal)             CV                S
                      KCal/Mol        Cal/Mol-Kelvin    Cal/Mol-Kelvin
 Total                  217.859             93.223            182.443
 Electronic               0.000              0.000              1.377
 Translational            0.889              2.981             43.666
 Rotational               0.889              2.981             35.647
 Vibrational            216.082             87.261            101.753
 Vibration     1          0.593              1.986              7.031
 Vibration     2          0.593              1.984              5.961
 Vibration     3          0.594              1.983              5.605
 Vibration     4          0.595              1.980              5.164
 Vibration     5          0.596              1.977              4.752
 Vibration     6          0.597              1.973              4.411
 Vibration     7          0.598              1.967              4.095
 Vibration     8          0.599              1.965              3.979
 Vibration     9          0.600              1.963              3.886
 Vibration    10          0.602              1.956              3.656
 Vibration    11          0.604              1.948              3.433
 Vibration    12          0.612              1.923              2.940
 Vibration    13          0.615              1.914              2.818
 Vibration    14          0.617              1.907              2.720
 Vibration    15          0.621              1.893              2.565
 Vibration    16          0.624              1.883              2.472
 Vibration    17          0.630              1.866              2.320
 Vibration    18          0.638              1.840              2.134
 Vibration    19          0.642              1.827              2.050
 Vibration    20          0.645              1.817              1.994
 Vibration    21          0.648              1.806              1.937
 Vibration    22          0.661              1.768              1.754
 Vibration    23          0.662              1.764              1.736
 Vibration    24          0.675              1.726              1.587
 Vibration    25          0.694              1.669              1.403
 Vibration    26          0.699              1.655              1.362
 Vibration    27          0.703              1.644              1.332
 Vibration    28          0.711              1.621              1.275
 Vibration    29          0.717              1.603              1.229
 Vibration    30          0.735              1.555              1.122
 Vibration    31          0.742              1.533              1.078
 Vibration    32          0.749              1.516              1.046
 Vibration    33          0.776              1.444              0.919
 Vibration    34          0.809              1.361              0.795
 Vibration    35          0.833              1.301              0.719
 Vibration    36          0.866              1.225              0.631
 Vibration    37          0.880              1.195              0.599
 Vibration    38          0.911              1.127              0.533
 Vibration    39          0.919              1.110              0.517
 Vibration    40          0.931              1.087              0.496
 Vibration    41          0.951              1.046              0.461
 Vibration    42          0.959              1.029              0.448
 Vibration    43          0.973              1.004              0.427

                           ! Non-Optimized Parameters !
 Normal termination of Gaussian 16 at Sat Feb 10 18:48:08 2024.
