 Gaussian 16, Revision A.03,
 Gaussian 16:  ES64L-G16RevA.03 25-Dec-2016

 --------------------------------------
 #P UB3LYP/6-311++G(d,p) nosym opt freq
 --------------------------------------

 --------
 Oxidized
 --------
 Symbolic Z-matrix:
 Charge =  0 Multiplicity = 1

 SCF Done:  E(UB3LYP) =  -725.055178067     A.U. after   15 cycles
 SCF Done:  E(UB3LYP) =  -725.067567346     A.U. after   14 cycles
 SCF Done:  E(UB3LYP) =  -725.068461991     A.U. after   13 cycles
 SCF Done:  E(UB3LYP) =  -725.068575668     A.U. after   12 cycles
 SCF Done:  E(UB3LYP) =  -725.068582845     A.U. after   11 cycles
 SCF Done:  E(UB3LYP) =  -725.068583221     A.U. after    9 cycles
 SCF Done:  E(UB3LYP) =  -725.068583998     A.U. after    9 cycles
 Optimization completed.
    -- Stationary point found.
 Normal termination of Gaussian 16 at Tue Dec 26 20:15:14 2023.

 ----------------------------------------------------------------------
 #P Geom=AllCheck Guess=TCheck SCRF=Check GenChk UB3LYP/6-311++G(d,p) F
 req
 ----------------------------------------------------------------------

 Structure from the checkpoint file:  "259.chk"
 --------
 Oxidized
 --------
 Charge =  0 Multiplicity = 1

                          Input orientation:
 ---------------------------------------------------------------------
 Center     Atomic      Atomic             Coordinates (Angstroms)
 Number     Number       Type             X           Y           Z
 ---------------------------------------------------------------------
      1          6           0       -1.220530    2.859264    0.018106
      2          6           0       -2.522098    2.362006    0.016491
      3          6           0       -2.748489    0.979811    0.015001
      4          6           0       -0.142412    1.973996    0.018232
      5          6           0       -0.360240    0.588325    0.016749
      6          6           0       -1.672940    0.105810    0.015136
      7          6           0        1.239257    2.534757    0.019971
      8          6           0        2.373135    1.540126    0.019908
      9          6           0        2.142695    0.206921    0.018472
     10          6           0        0.787375   -0.359539    0.016893
     11          8           0        1.458272    3.728588    0.021197
     12          8           0        0.619284   -1.572395    0.015486
     13          1           0       -1.021527    3.925949    0.019277
     14          1           0       -1.828985   -0.966002    0.014003
     15          8           0        3.566408    2.140612    0.021406
     16          8           0       -3.617412    3.171041    0.016278
     17          1           0       -3.769191    0.617203    0.013763
     18          1           0        2.943029   -0.521389    0.018413
     19          6           0        4.738352    1.324224    0.021516
     20          1           0       -3.347012    4.095899    0.017376
     21          1           0        5.577394    2.016214    0.022787
     22          1           0        4.774589    0.696702   -0.873899
     23          1           0        4.773257    0.695027    0.915808
 ---------------------------------------------------------------------

 SCF Done:  E(UB3LYP) =  -725.068583998     A.U. after    1 cycles

 Alpha  occ. eigenvalues --  -19.19089 -19.18135 -19.13871 -19.11902 -10.28905
 Alpha  occ. eigenvalues --  -10.27525 -10.27405 -10.26761 -10.24803 -10.21501
 Alpha  occ. eigenvalues --  -10.20338 -10.20333 -10.20191 -10.19980 -10.19867
 Alpha  occ. eigenvalues --   -1.11314  -1.09406  -1.06886  -1.05134  -0.89257
 Alpha  occ. eigenvalues --   -0.83729  -0.78632  -0.77760  -0.75049  -0.69155
 Alpha  occ. eigenvalues --   -0.66846  -0.63415  -0.60220  -0.58461  -0.55639
 Alpha  occ. eigenvalues --   -0.54360  -0.51050  -0.50488  -0.50310  -0.47073
 Alpha  occ. eigenvalues --   -0.45965  -0.45831  -0.45487  -0.44527  -0.44273
 Alpha  occ. eigenvalues --   -0.43300  -0.41687  -0.41413  -0.40080  -0.37762
 Alpha  occ. eigenvalues --   -0.37746  -0.36983  -0.35309  -0.28809  -0.28697
 Alpha  occ. eigenvalues --   -0.27361  -0.27093  -0.25545
 Alpha virt. eigenvalues --   -0.11935  -0.05476  -0.02353  -0.01917  -0.01302
 Alpha virt. eigenvalues --    0.00536   0.01320   0.01885   0.02193   0.02709
 Alpha virt. eigenvalues --    0.03407   0.04166   0.04447   0.05009   0.05382

  Beta  occ. eigenvalues --  -19.19089 -19.18135 -19.13871 -19.11902 -10.28905
  Beta  occ. eigenvalues --  -10.27525 -10.27405 -10.26761 -10.24803 -10.21501
  Beta  occ. eigenvalues --  -10.20338 -10.20333 -10.20191 -10.19980 -10.19867
  Beta  occ. eigenvalues --   -1.11314  -1.09406  -1.06886  -1.05134  -0.89257
  Beta  occ. eigenvalues --   -0.83729  -0.78632  -0.77760  -0.75049  -0.69155
  Beta  occ. eigenvalues --   -0.66846  -0.63415  -0.60220  -0.58461  -0.55639
  Beta  occ. eigenvalues --   -0.54360  -0.51050  -0.50488  -0.50310  -0.47073
  Beta  occ. eigenvalues --   -0.45965  -0.45831  -0.45487  -0.44527  -0.44273
  Beta  occ. eigenvalues --   -0.43300  -0.41687  -0.41413  -0.40080  -0.37762
  Beta  occ. eigenvalues --   -0.37746  -0.36983  -0.35309  -0.28809  -0.28697
  Beta  occ. eigenvalues --   -0.27361  -0.27093  -0.25545
  Beta virt. eigenvalues --   -0.11935  -0.05476  -0.02353  -0.01917  -0.01302
  Beta virt. eigenvalues --    0.00536   0.01320   0.01885   0.02193   0.02709
  Beta virt. eigenvalues --    0.03407   0.04166   0.04447   0.05009   0.05382

 Mulliken charges and spin densities:
               1          2
     1  C    0.300490   0.000000
     2  C   -0.495897  -0.000000
     3  C   -0.076645   0.000000
     4  C    0.660725  -0.000000
     5  C    0.059335   0.000000
     6  C    0.229265  -0.000000
     7  C   -0.773389   0.000000
     8  C   -0.295978   0.000000
     9  C    0.494348  -0.000000
    10  C   -0.521105   0.000000
    11  O   -0.212844  -0.000000
    12  O   -0.249442  -0.000000
    13  H    0.146600  -0.000000
    14  H    0.190666   0.000000
    15  O   -0.127296  -0.000000
    16  O   -0.217611  -0.000000
    17  H    0.207303  -0.000000
    18  H    0.216423   0.000000
    19  C   -0.329950   0.000000
    20  H    0.274097   0.000000
    21  H    0.197792   0.000000
    22  H    0.161555  -0.000000
    23  H    0.161559  -0.000000
 Sum of Mulliken charges =  -0.00000  -0.00000

 Dipole moment (field-independent basis, Debye):
    X=              0.9589    Y=              1.1523    Z=              0.0019  Tot=              1.4990
 Quadrupole moment (field-independent basis, Debye-Ang):
   XX=            -67.9039   YY=            -92.9327   ZZ=            -87.0384
   XY=             -7.3887   XZ=              0.0243   YZ=              0.0069

  Exact polarizability: 197.066  -2.397 169.688   0.102   0.087  74.019
 Approx polarizability: 274.420  13.998 341.394   0.150   0.223 115.700

                      1                      2                      3
                      A                      A                      A
 Frequencies --     45.3331               100.4729               119.2961
 Red. masses --      6.0098                 5.3955                 4.8211
 Frc consts  --      0.0073                 0.0321                 0.0404
 IR Inten    --      5.6732                 0.0270                 0.2815

                      4                      5                      6
                      A                      A                      A
 Frequencies --    151.9542               163.4734               179.7769
 Red. masses --      4.7000                 3.1085                 4.4401
 Frc consts  --      0.0639                 0.0489                 0.0845
 IR Inten    --      6.1982                 0.6909                 2.7041

                      7                      8                      9
                      A                      A                      A
 Frequencies --    236.3104               242.3114               290.4518
 Red. masses --      5.6667                 1.3267                 4.6921
 Frc consts  --      0.1864                 0.0459                 0.2332
 IR Inten    --      2.0502                 1.1032                 0.4036

                     10                     11                     12
                      A                      A                      A
 Frequencies --    327.1175               353.3150               359.5148
 Red. masses --      6.2092                 9.1784                 1.1243
 Frc consts  --      0.3915                 0.6751                 0.0856
 IR Inten    --      0.4269                13.4034               114.5746

                     13                     14                     15
                      A                      A                      A
 Frequencies --    403.1495               416.7587               452.5092
 Red. masses --      6.7092                 3.9203                 7.9364
 Frc consts  --      0.6425                 0.4012                 0.9575
 IR Inten    --      5.7924                 0.1747                 3.6192

                     16                     17                     18
                      A                      A                      A
 Frequencies --    468.6065               477.0865               519.9290
 Red. masses --      6.3755                 3.9571                 7.2260
 Frc consts  --      0.8249                 0.5307                 1.1509
 IR Inten    --     29.8266                 8.3833                 2.7476

                     19                     20                     21
                      A                      A                      A
 Frequencies --    554.9212               666.9768               670.9896
 Red. masses --      5.0350                 3.4134                 7.1464
 Frc consts  --      0.9135                 0.8947                 1.8957
 IR Inten    --      0.5453                 5.1502                 1.0602

                     22                     23                     24
                      A                      A                      A
 Frequencies --    687.2984               707.7782               740.4484
 Red. masses --      6.6712                 5.9669                 5.3558
 Frc consts  --      1.8567                 1.7611                 1.7301
 IR Inten    --      7.9577                 2.8963                 1.3679

                     25                     26                     27
                      A                      A                      A
 Frequencies --    770.3518               799.3983               856.0805
 Red. masses --      5.3191                 7.9670                 1.4069
 Frc consts  --      1.8598                 2.9997                 0.6075
 IR Inten    --      5.1252                 3.8346                65.2795

                     28                     29                     30
                      A                      A                      A
 Frequencies --    869.9187               891.6026               893.9774
 Red. masses --      1.5154                 4.7852                 1.4996
 Frc consts  --      0.6757                 2.2413                 0.7061
 IR Inten    --      7.5675                46.6021                 7.9887

                     31                     32                     33
                      A                      A                      A
 Frequencies --    984.0713               998.4838              1062.2979
 Red. masses --      4.4134                 1.3194                 3.3859
 Frc consts  --      2.5181                 0.7750                 2.2512
 IR Inten    --     13.3687                 0.7315                90.6055

                     34                     35                     36
                      A                      A                      A
 Frequencies --   1105.6582              1137.7293              1167.8750
 Red. masses --      3.0775                 1.7538                 1.2795
 Frc consts  --      2.2166                 1.3375                 1.0282
 IR Inten    --     47.2426                10.2839                 0.8253

                     37                     38                     39
                      A                      A                      A
 Frequencies --   1189.7129              1192.8815              1209.2213
 Red. masses --      1.3404                 1.7370                 1.7801
 Frc consts  --      1.1178                 1.4562                 1.5336
 IR Inten    --    247.9072                35.9324                33.1364

                     40                     41                     42
                      A                      A                      A
 Frequencies --   1255.2891              1267.4003              1318.9193
 Red. masses --      1.9159                 2.5387                 3.7154
 Frc consts  --      1.7788                 2.4027                 3.8079
 IR Inten    --     72.4442               305.0531               290.5588

                     43                     44                     45
                      A                      A                      A
 Frequencies --   1323.2157              1369.2213              1381.9580
 Red. masses --      3.2284                 3.0947                 5.3662
 Frc consts  --      3.3304                 3.4184                 6.0382
 IR Inten    --    163.7008                37.2436                 2.4559

                     46                     47                     48
                      A                      A                      A
 Frequencies --   1473.0752              1474.8220              1492.7917
 Red. masses --      2.9387                 1.3265                 1.0444
 Frc consts  --      3.7571                 1.6999                 1.3712
 IR Inten    --     28.0327                10.1927                11.6695

                     49                     50                     51
                      A                      A                      A
 Frequencies --   1498.9769              1523.1891              1619.1011
 Red. masses --      1.0485                 3.2530                 6.6996
 Frc consts  --      1.3881                 4.4468                10.3477
 IR Inten    --     20.0791                19.7408                47.7383

                     52                     53                     54
                      A                      A                      A
 Frequencies --   1628.1218              1654.9848              1703.5318
 Red. masses --      6.3750                 7.6527                10.9913
 Frc consts  --      9.9565                12.3497                18.7931
 IR Inten    --    293.7981               241.6543               215.8403

                     55                     56                     57
                      A                      A                      A
 Frequencies --   1745.8461              3019.6685              3085.4704
 Red. masses --     12.8593                 1.0334                 1.1067
 Frc consts  --     23.0929                 5.5520                 6.2078
 IR Inten    --    219.1587                35.5328                24.0807

                     58                     59                     60
                      A                      A                      A
 Frequencies --   3151.2540              3172.2691              3190.0724
 Red. masses --      1.1011                 1.0907                 1.0885
 Frc consts  --      6.4426                 6.4671                 6.5267
 IR Inten    --     13.5281                 7.6350                 0.5679

                     61                     62                     63
                      A                      A                      A
 Frequencies --   3203.3294              3204.9647              3826.4195
 Red. masses --      1.0948                 1.0907                 1.0662
 Frc consts  --      6.6186                 6.6006                 9.1979
 IR Inten    --      4.4014                 3.3556                89.8438

 - Thermochemistry -
 -------------------
 Temperature   298.150 Kelvin.  Pressure   1.00000 Atm.
 Atom     1 has atomic number  6 and mass  12.00000

 Molecular mass:   204.04226 amu.
 Principal axes and moments of inertia in atomic units:
                           1         2         3
     Eigenvalues --  1578.339474267.175675833.98730
           X            0.99231   0.12375  -0.00084
           Y           -0.12375   0.99231  -0.00093
           Z            0.00072   0.00103   1.00000
 This molecule is an asymmetric top.
 Rotational symmetry number  1.
 Warning -- assumption of classical behavior for rotation
           may cause significant error
 Rotational temperatures (Kelvin)      0.05488     0.02030     0.01485
 Rotational constants (GHZ):           1.14344     0.42294     0.30935
 Zero-point vibrational energy     442911.0 (Joules/Mol)
                                  105.85826 (Kcal/Mol)
 Warning -- explicit consideration of  19 degrees of freedom as
           vibrations may cause significant error
 Vibrational temperatures:     65.22   144.56   171.64   218.63   235.20
          (Kelvin)            258.66   340.00   348.63   417.90   470.65
                              508.34   517.26   580.04   599.62   651.06
                              674.22   686.42   748.06   798.41   959.63
                              965.40   988.87  1018.34  1065.34  1108.36
                             1150.16  1231.71  1251.62  1282.82  1286.23
                             1415.86  1436.60  1528.41  1590.80  1636.94
                             1680.31  1711.73  1716.29  1739.80  1806.08
                             1823.51  1897.63  1903.81  1970.00  1988.33
                             2119.43  2121.94  2147.79  2156.69  2191.53
                             2329.53  2342.50  2381.15  2451.00  2511.88
                             4344.63  4439.30  4533.95  4564.19  4589.80
                             4608.88  4611.23  5505.36

 Zero-point correction=                           0.168696 (Hartree/Particle)
 Thermal correction to Energy=                    0.181237
 Thermal correction to Enthalpy=                  0.182181
 Thermal correction to Gibbs Free Energy=         0.129801
 Sum of electronic and zero-point Energies=           -724.899888
 Sum of electronic and thermal Energies=              -724.887347
 Sum of electronic and thermal Enthalpies=            -724.886403
 Sum of electronic and thermal Free Energies=         -724.938783

                     E (Thermal)             CV                S
                      KCal/Mol        Cal/Mol-Kelvin    Cal/Mol-Kelvin
 Total                  113.728             48.257            110.244
 Electronic               0.000              0.000              0.000
 Translational            0.889              2.981             41.844
 Rotational               0.889              2.981             32.041
 Vibrational            111.950             42.295             36.359
 Vibration     1          0.595              1.979              5.011
 Vibration     2          0.604              1.949              3.445
 Vibration     3          0.609              1.933              3.112
 Vibration     4          0.619              1.901              2.648
 Vibration     5          0.623              1.887              2.509
 Vibration     6          0.629              1.867              2.331
 Vibration     7          0.655              1.785              1.830
 Vibration     8          0.659              1.775              1.786
 Vibration     9          0.686              1.691              1.471
 Vibration    10          0.711              1.621              1.274
 Vibration    11          0.730              1.568              1.151
 Vibration    12          0.734              1.556              1.124
 Vibration    13          0.769              1.463              0.951
 Vibration    14          0.780              1.434              0.903
 Vibration    15          0.811              1.355              0.788
 Vibration    16          0.826              1.320              0.741
 Vibration    17          0.834              1.301              0.718
 Vibration    18          0.875              1.206              0.610
 Vibration    19          0.910              1.129              0.534

 Optimization completed.
    -- Stationary point found.
 Normal termination of Gaussian 16 at Tue Dec 26 20:32:52 2023.
