 Gaussian 16, Revision A.03,
 Gaussian 16:  ES64L-G16RevA.03 25-Dec-2016

 ----------------------------------------------------------------
 #P UB3LYP/6-311++G(d,p) SCRF=(PCM,Solvent=n,n-DiMethylFormamide)
 ----------------------------------------------------------------

 -------
 Reduced
 -------
 Symbolic Z-matrix:
 Charge = -2 Multiplicity = 1

                         Standard orientation:
 ---------------------------------------------------------------------
 Center     Atomic      Atomic             Coordinates (Angstroms)
 Number     Number       Type             X           Y           Z
 ---------------------------------------------------------------------
      1          6           0       -1.573788   -1.755595    0.000127
      2          6           0       -2.935754   -1.512251    0.000022
      3          6           0       -3.409214   -0.174521   -0.000225
      4          6           0       -0.617651   -0.711455    0.000098
      5          6           0       -1.101535    0.653208    0.000006
      6          6           0       -2.498869    0.867891   -0.000176
      7          6           0        0.804028   -1.070195    0.000710
      8          6           0        1.607010    0.092073    0.000267
      9          6           0        1.170724    1.432655    0.000076
     10          6           0       -0.196287    1.800776   -0.000105
     11          8           0        1.212967   -2.290779   -0.000336
     12          8           0       -0.621006    3.023663    0.000133
     13          1           0       -1.177454   -2.766854    0.000408
     14          1           0       -3.641079   -2.342853    0.000099
     15          1           0       -2.822588    1.905089   -0.000374
     16         17           0        3.410880   -0.156009   -0.000167
     17          1           0       -4.479670    0.028596   -0.000376
     18          1           0        1.908158    2.229581   -0.000106
 ---------------------------------------------------------------------

 SCF Done:  E(UB3LYP) =  -995.144815956     A.U. after   17 cycles

 The electronic state is 1-A.
 Alpha  occ. eigenvalues -- -101.52302 -19.02238 -19.02012 -10.18228 -10.18179
 Alpha  occ. eigenvalues --  -10.17793 -10.15433 -10.15355 -10.14925 -10.14919
 Alpha  occ. eigenvalues --  -10.14740 -10.14415 -10.12842  -9.43725  -7.20093
 Alpha  occ. eigenvalues --   -7.19271  -7.19229  -0.94053  -0.93283  -0.83210
 Alpha  occ. eigenvalues --   -0.82411  -0.75916  -0.72654  -0.69891  -0.64821
 Alpha  occ. eigenvalues --   -0.58961  -0.57549  -0.53046  -0.47971  -0.47251
 Alpha  occ. eigenvalues --   -0.43725  -0.42387  -0.40279  -0.38514  -0.38213
 Alpha  occ. eigenvalues --   -0.38165  -0.36390  -0.35345  -0.33868  -0.32433
 Alpha  occ. eigenvalues --   -0.32145  -0.31036  -0.30076  -0.28999  -0.23258
 Alpha  occ. eigenvalues --   -0.22784  -0.21498  -0.20452  -0.19939  -0.11988
 Alpha virt. eigenvalues --   -0.00856   0.00180   0.00374   0.01275   0.01792
 Alpha virt. eigenvalues --    0.02619   0.03385   0.04609   0.05235   0.05576
 Alpha virt. eigenvalues --    0.06967   0.07027   0.07225   0.07307   0.08722

  Beta  occ. eigenvalues -- -101.52302 -19.02238 -19.02012 -10.18228 -10.18179
  Beta  occ. eigenvalues --  -10.17793 -10.15433 -10.15355 -10.14925 -10.14919
  Beta  occ. eigenvalues --  -10.14740 -10.14415 -10.12842  -9.43725  -7.20093
  Beta  occ. eigenvalues --   -7.19271  -7.19229  -0.94053  -0.93283  -0.83210
  Beta  occ. eigenvalues --   -0.82411  -0.75916  -0.72654  -0.69891  -0.64821
  Beta  occ. eigenvalues --   -0.58961  -0.57549  -0.53046  -0.47971  -0.47251
  Beta  occ. eigenvalues --   -0.43725  -0.42387  -0.40279  -0.38514  -0.38213
  Beta  occ. eigenvalues --   -0.38165  -0.36390  -0.35345  -0.33868  -0.32433
  Beta  occ. eigenvalues --   -0.32145  -0.31036  -0.30076  -0.28999  -0.23258
  Beta  occ. eigenvalues --   -0.22784  -0.21498  -0.20452  -0.19939  -0.11988
  Beta virt. eigenvalues --   -0.00856   0.00180   0.00374   0.01275   0.01792
  Beta virt. eigenvalues --    0.02619   0.03385   0.04609   0.05235   0.05576
  Beta virt. eigenvalues --    0.06967   0.07027   0.07225   0.07307   0.08722

 Mulliken charges and spin densities:
               1          2
     1  C   -0.101457   0.000000
     2  C   -0.438489   0.000000
     3  C   -0.467819   0.000000
     4  C    0.142897   0.000000
     5  C    0.262074  -0.000000
     6  C   -0.002957  -0.000000
     7  C   -1.108317   0.000000
     8  C    1.190184  -0.000000
     9  C   -0.039865  -0.000000
    10  C   -1.047835   0.000000
    11  O   -0.652454   0.000000
    12  O   -0.694677  -0.000000
    13  H    0.145368  -0.000000
    14  H    0.166890   0.000000
    15  H    0.146948   0.000000
    16  Cl   0.189098   0.000000
    17  H    0.163868  -0.000000
    18  H    0.146544   0.000000
 Sum of Mulliken charges =  -2.00000   0.00000

 Dipole moment (field-independent basis, Debye):
    X=             -4.7851    Y=             -2.6750    Z=              0.0005  Tot=              5.4821
 Quadrupole moment (field-independent basis, Debye-Ang):
   XX=           -115.3500   YY=           -142.2705   ZZ=            -92.7304
   XY=             16.5591   XZ=              0.0015   YZ=             -0.0054

 Normal termination of Gaussian 16 at Sun Jan 21 08:42:16 2024.
