 Q-Chem 5.4, Q-Chem, Inc., Pleasanton, CA (2021)
 Q-Chem 5.4.0 for Intel X86 EM64T Linux

User input:
--------------------------------------------------------------
$molecule
-1 2
O                 -2.2918910000     -2.6866750000     -0.4341230000
C                 -2.3404570000     -1.3361280000     -0.2029290000
C                 -3.5750480000     -0.7144570000     -0.0832370000
C                 -3.6655790000      0.6691260000      0.1540900000
C                 -2.5166480000      1.4181090000      0.2694610000
C                 -1.2457180000      0.8159020000      0.1526940000
C                 -0.0739700000      1.6855520000      0.2884390000
O                 -0.1940660000      2.9172050000      0.4999750000
C                  1.2386740000      1.0523130000      0.1661920000
C                  2.3979080000      1.8436740000      0.2888910000
C                  3.6500150000      1.2672590000      0.1770260000
C                  3.7903870000     -0.1083090000     -0.0593490000
C                  2.6626480000     -0.9139990000     -0.1848290000
O                  2.8216230000     -2.2319750000     -0.4114560000
C                  1.3529720000     -0.3451900000     -0.0736710000
C                  0.1874780000     -1.2089660000     -0.2087830000
O                  0.3451030000     -2.4564710000     -0.4240470000
C                 -1.1267970000     -0.5936630000     -0.0893540000
H                 -3.2015190000     -3.0008970000     -0.4778750000
H                 -4.4784240000     -1.3142020000     -0.1758130000
H                 -4.6420640000      1.1347930000      0.2443190000
H                 -2.5437770000      2.4848670000      0.4519760000
H                  2.2691730000      2.9030330000      0.4711900000
H                  4.5403880000      1.8824760000      0.2725420000
H                  4.7665800000     -0.5718780000     -0.1489410000
H                  1.8730070000     -2.5915010000     -0.4623880000
$end

$rem
BASIS  =  6-311++G(d,p)
GUI  =  2
JOB_TYPE  =  SP
METHOD  =  B3LYP
SCF_CONVERGENCE  = 8
SOLVENT_METHOD = sm12
$end

$smx
solvent dimethylformamide
charges CM5
$end

--------------------------------------------------------------

             Standard Nuclear Orientation (Angstroms)
    I     Atom           X                Y                Z
 ----------------------------------------------------------------
    1      O      -2.2918910000    -2.6866750000    -0.4341230000
    2      C      -2.3404570000    -1.3361280000    -0.2029290000
    3      C      -3.5750480000    -0.7144570000    -0.0832370000
    4      C      -3.6655790000     0.6691260000     0.1540900000
    5      C      -2.5166480000     1.4181090000     0.2694610000
    6      C      -1.2457180000     0.8159020000     0.1526940000
    7      C      -0.0739700000     1.6855520000     0.2884390000
    8      O      -0.1940660000     2.9172050000     0.4999750000
    9      C       1.2386740000     1.0523130000     0.1661920000
   10      C       2.3979080000     1.8436740000     0.2888910000
   11      C       3.6500150000     1.2672590000     0.1770260000
   12      C       3.7903870000    -0.1083090000    -0.0593490000
   13      C       2.6626480000    -0.9139990000    -0.1848290000
   14      O       2.8216230000    -2.2319750000    -0.4114560000
   15      C       1.3529720000    -0.3451900000    -0.0736710000
   16      C       0.1874780000    -1.2089660000    -0.2087830000
   17      O       0.3451030000    -2.4564710000    -0.4240470000
   18      C      -1.1267970000    -0.5936630000    -0.0893540000
   19      H      -3.2015190000    -3.0008970000    -0.4778750000
   20      H      -4.4784240000    -1.3142020000    -0.1758130000
   21      H      -4.6420640000     1.1347930000     0.2443190000
   22      H      -2.5437770000     2.4848670000     0.4519760000
   23      H       2.2691730000     2.9030330000     0.4711900000
   24      H       4.5403880000     1.8824760000     0.2725420000
   25      H       4.7665800000    -0.5718780000    -0.1489410000
   26      H       1.8730070000    -2.5915010000    -0.4623880000
 ----------------------------------------------------------------

   18    -839.5166914818      5.64e-09  Convergence criterion met
 Total energy in the final basis set =     -839.6110492314

                    Orbital Energies (a.u.)
 --------------------------------------------------------------

 Alpha MOs
 -- Occupied --
-19.1567 -19.1313 -19.0909 -19.0780 -10.2491 -10.2416 -10.2414 -10.2279
-10.1878 -10.1844 -10.1840 -10.1837 -10.1823 -10.1813 -10.1800 -10.1729
-10.1712 -10.1701  -1.0694  -1.0571  -1.0085  -1.0047  -0.8666  -0.8543
 -0.7954  -0.7551  -0.7504  -0.7449  -0.6772  -0.6511  -0.6387  -0.6043
 -0.5794  -0.5618  -0.5361  -0.5152  -0.5005  -0.4864  -0.4763  -0.4654
 -0.4544  -0.4423  -0.4305  -0.4270  -0.4149  -0.4143  -0.3954  -0.3953
 -0.3907  -0.3794  -0.3752  -0.3596  -0.3594  -0.3501  -0.3429  -0.3302
 -0.2773  -0.2602  -0.2540  -0.2415  -0.2407  -0.2322  -0.1474

 Beta MOs
 -- Occupied --
-19.1566 -19.1311 -19.0858 -19.0722 -10.2491 -10.2417 -10.2395 -10.2265
-10.1873 -10.1838 -10.1837 -10.1826 -10.1821 -10.1805 -10.1792 -10.1720
-10.1711 -10.1698  -1.0691  -1.0559  -1.0005  -0.9946  -0.8639  -0.8530
 -0.7916  -0.7526  -0.7481  -0.7432  -0.6704  -0.6494  -0.6364  -0.6035
 -0.5776  -0.5598  -0.5347  -0.5140  -0.4988  -0.4842  -0.4748  -0.4646
 -0.4531  -0.4343  -0.4290  -0.4250  -0.4130  -0.4097  -0.3935  -0.3896
 -0.3818  -0.3787  -0.3590  -0.3579  -0.3579  -0.3483  -0.3393  -0.3196
 -0.2572  -0.2549  -0.2496  -0.2356  -0.2330  -0.2255

          Ground-State Mulliken Net Atomic Charges

     Atom                 Charge (a.u.)    Spin (a.u.)
  --------------------------------------------------------
      1 O                    -0.126431       0.003487
      2 C                     0.576342       0.021437
      3 C                     2.103127       0.058215
      4 C                     1.179001       0.047641
      5 C                     0.361015       0.041277
      6 C                    -1.034083       0.056187
      7 C                    -2.024647       0.072957
      8 O                    -0.302601       0.221025
      9 C                    -0.978000       0.040843
     10 C                    -0.427758       0.056057
     11 C                     0.753665       0.030212
     12 C                     0.660064       0.064288
     13 C                    -0.405198       0.018401
     14 O                    -0.319813       0.005130
     15 C                    -0.650081       0.003610
     16 C                    -1.462222       0.098773
     17 O                    -0.335691       0.187394
     18 C                    -0.925201      -0.000956
     19 H                     0.374647      -0.000231
     20 H                     0.355417      -0.005166
     21 H                     0.362449      -0.003313
     22 H                     0.125114      -0.002600
     23 H                     0.138297      -0.003393
     24 H                     0.366502      -0.002296
     25 H                     0.261856      -0.005511
     26 H                     0.374228      -0.003466
  --------------------------------------------------------
  Sum of atomic charges =    -1.000000

                    Cartesian Multipole Moments
 -----------------------------------------------------------------
    Charge (ESU x 10^10)
                -4.8032
    Dipole Moment (Debye)
         X      -4.9538      Y      -1.2489      Z      -0.1565
       Tot       5.1112
    Quadrupole Moments (Debye-Ang)
        XX    -107.7593     XY      13.5733     YY    -137.2527
        XZ       2.2821     YZ      -4.6435     ZZ    -111.7523

 Total job time:  667.90s(wall), 5126.50s(cpu)
        *  Thank you very much for using Q-Chem.  Have a nice day.  *
