 Q-Chem 5.4, Q-Chem, Inc., Pleasanton, CA (2021)
 Q-Chem 5.4.0 for Intel X86 EM64T Linux

User input:
--------------------------------------------------------------
$molecule
-1 2
C                 -0.3395910000     -2.0609520000      0.9148760000
C                 -0.2320890000     -0.9529620000     -0.1694210000
C                 -0.5450530000     -1.5703230000     -1.5606760000
C                 -1.2775810000      0.1348230000      0.1328000000
C                 -2.6297520000     -0.2092510000      0.1773290000
C                 -3.6339190000      0.7303620000      0.4464830000
C                 -3.2671150000      2.0618070000      0.6787330000
C                 -1.9337970000      2.4302420000      0.6405500000
C                 -0.9076910000      1.4858520000      0.3689240000
C                  0.4738150000      1.9455390000      0.3453440000
O                  0.7701640000      3.1623490000      0.5613310000
C                  1.5017370000      0.9531700000      0.0641530000
C                  2.8594910000      1.3705400000      0.0345500000
C                  3.8864410000      0.4805060000     -0.2265730000
C                  3.6004720000     -0.8686200000     -0.4700520000
C                  2.2645890000     -1.2909400000     -0.4431240000
C                  1.2094790000     -0.4149230000     -0.1823790000
H                  0.3710500000     -2.8701990000      0.7240240000
H                 -1.3455070000     -2.4895170000      0.9427420000
H                 -0.1214460000     -1.6437900000      1.9010240000
H                 -1.5552040000     -1.9888460000     -1.5885830000
H                 -0.4742730000     -0.8038330000     -2.3363230000
H                  0.1617200000     -2.3680100000     -1.8066360000
H                 -2.9261380000     -1.2385330000     -0.0015870000
H                 -4.6751240000      0.4251030000      0.4728560000
H                 -4.0297530000      2.8074180000      0.8893260000
H                 -1.6203260000      3.4522930000      0.8162640000
H                  3.0503710000      2.4195770000      0.2263920000
H                  4.9157770000      0.8299410000     -0.2425290000
H                  4.3942390000     -1.5794730000     -0.6764990000
H                  2.0550140000     -2.3393490000     -0.6333200000
$end
$rem
MAX_SCF_CYCLES=200
BASIS  =  6-311++G(d,p)
GUI  =  2
JOB_TYPE  =  SP
METHOD  =  B3LYP
SOLVENT_METHOD = PCM
$end
$pcm
theory = CPCM
$end
$solvent
dielectric 37.219
opticaldielectric 1.43
$end

--------------------------------------------------------------

             Standard Nuclear Orientation (Angstroms)
    I     Atom           X                Y                Z
 ----------------------------------------------------------------
    1      C      -0.3395910000    -2.0609520000     0.9148760000
    2      C      -0.2320890000    -0.9529620000    -0.1694210000
    3      C      -0.5450530000    -1.5703230000    -1.5606760000
    4      C      -1.2775810000     0.1348230000     0.1328000000
    5      C      -2.6297520000    -0.2092510000     0.1773290000
    6      C      -3.6339190000     0.7303620000     0.4464830000
    7      C      -3.2671150000     2.0618070000     0.6787330000
    8      C      -1.9337970000     2.4302420000     0.6405500000
    9      C      -0.9076910000     1.4858520000     0.3689240000
   10      C       0.4738150000     1.9455390000     0.3453440000
   11      O       0.7701640000     3.1623490000     0.5613310000
   12      C       1.5017370000     0.9531700000     0.0641530000
   13      C       2.8594910000     1.3705400000     0.0345500000
   14      C       3.8864410000     0.4805060000    -0.2265730000
   15      C       3.6004720000    -0.8686200000    -0.4700520000
   16      C       2.2645890000    -1.2909400000    -0.4431240000
   17      C       1.2094790000    -0.4149230000    -0.1823790000
   18      H       0.3710500000    -2.8701990000     0.7240240000
   19      H      -1.3455070000    -2.4895170000     0.9427420000
   20      H      -0.1214460000    -1.6437900000     1.9010240000
   21      H      -1.5552040000    -1.9888460000    -1.5885830000
   22      H      -0.4742730000    -0.8038330000    -2.3363230000
   23      H       0.1617200000    -2.3680100000    -1.8066360000
   24      H      -2.9261380000    -1.2385330000    -0.0015870000
   25      H      -4.6751240000     0.4251030000     0.4728560000
   26      H      -4.0297530000     2.8074180000     0.8893260000
   27      H      -1.6203260000     3.4522930000     0.8162640000
   28      H       3.0503710000     2.4195770000     0.2263920000
   29      H       4.9157770000     0.8299410000    -0.2425290000
   30      H       4.3942390000    -1.5794730000    -0.6764990000
   31      H       2.0550140000    -2.3393490000    -0.6333200000
 ----------------------------------------------------------------

    8    -693.6654196351      5.97e-06  Convergence criterion met
 Total energy in the final basis set =     -693.6654196351

                    Orbital Energies (a.u.)
 --------------------------------------------------------------

 Alpha MOs
 -- Occupied --
-19.0504 -10.1927 -10.1877 -10.1689 -10.1688 -10.1595 -10.1595 -10.1581
-10.1581 -10.1572 -10.1572 -10.1567 -10.1567 -10.1517 -10.1517 -10.1513
-10.1513  -0.9739  -0.8593  -0.8376  -0.7992  -0.7539  -0.7352  -0.7262
 -0.7135  -0.6794  -0.6356  -0.6185  -0.5991  -0.5762  -0.5467  -0.5234
 -0.5127  -0.4696  -0.4490  -0.4452  -0.4424  -0.4271  -0.4221  -0.4215
 -0.4059  -0.3935  -0.3898  -0.3884  -0.3825  -0.3708  -0.3601  -0.3517
 -0.3507  -0.3430  -0.3358  -0.3272  -0.3091  -0.3001  -0.2461  -0.2449
 -0.2403  -0.2394  -0.2234  -0.1073

 Beta MOs
 -- Occupied --
-19.0451 -10.1883 -10.1878 -10.1675 -10.1675 -10.1602 -10.1602 -10.1585
-10.1585 -10.1576 -10.1576 -10.1546 -10.1546 -10.1511 -10.1510 -10.1500
-10.1500  -0.9635  -0.8571  -0.8356  -0.7977  -0.7494  -0.7331  -0.7238
 -0.7120  -0.6789  -0.6277  -0.6180  -0.5967  -0.5748  -0.5448  -0.5204
 -0.5115  -0.4674  -0.4479  -0.4443  -0.4407  -0.4258  -0.4214  -0.4181
 -0.4052  -0.3922  -0.3886  -0.3842  -0.3702  -0.3694  -0.3594  -0.3495
 -0.3459  -0.3370  -0.3348  -0.3150  -0.3080  -0.2993  -0.2391  -0.2341
 -0.2328  -0.2282  -0.2188

          Ground-State Mulliken Net Atomic Charges

     Atom                 Charge (a.u.)    Spin (a.u.)
  --------------------------------------------------------
      1 C                    -0.815550       0.017648
      2 C                     0.424471      -0.094011
      3 C                    -0.818157       0.017713
      4 C                     0.224137       0.127286
      5 C                    -0.149099      -0.055339
      6 C                    -0.525653       0.177250
      7 C                    -0.440680      -0.061452
      8 C                     0.045176       0.170766
      9 C                     0.301161      -0.063363
     10 C                    -0.434890       0.280397
     11 O                    -0.593378       0.205372
     12 C                     0.299843      -0.063402
     13 C                     0.046758       0.170840
     14 C                    -0.441036      -0.061593
     15 C                    -0.524235       0.177350
     16 C                    -0.149913      -0.055362
     17 C                     0.221939       0.127365
     18 H                     0.151197       0.004129
     19 H                     0.151447       0.004082
     20 H                     0.167346       0.001024
     21 H                     0.151367       0.004144
     22 H                     0.167625       0.001032
     23 H                     0.151678       0.004043
     24 H                     0.152097       0.002023
     25 H                     0.184230      -0.012507
     26 H                     0.179263       0.003238
     27 H                     0.179137      -0.010707
     28 H                     0.178312      -0.010716
     29 H                     0.179285       0.003235
     30 H                     0.184297      -0.012505
     31 H                     0.151826       0.002019
  --------------------------------------------------------
  Sum of atomic charges =    -1.000000

                    Cartesian Multipole Moments
 -----------------------------------------------------------------
    Charge (ESU x 10^10)
                -4.8032
    Dipole Moment (Debye)
         X      -2.8102      Y     -11.5297      Z      -2.0447
       Tot      12.0421
    Quadrupole Moments (Debye-Ang)
        XX    -115.3884     XY      -4.8741     YY    -133.9482
        XZ      -0.6481     YZ      -4.0116     ZZ    -112.3510

 Total job time:  62.71s(wall), 442.72s(cpu)
        *  Thank you very much for using Q-Chem.  Have a nice day.  *
