 Q-Chem 5.4, Q-Chem, Inc., Pleasanton, CA (2021)
 Q-Chem 5.4.0 for Intel X86 EM64T Linux

User input:
--------------------------------------------------------------
$molecule
-2 1
C                  5.8338240000     -5.2163290000      1.1773940000
C                  6.7328150000     -5.1258690000      0.1389740000
C                  6.5633690000     -4.1373670000     -0.8568820000
C                  4.6947890000     -4.3835300000      1.2463380000
C                  4.5388410000     -3.3506690000      0.2445680000
C                  5.4731380000     -3.2982010000     -0.8137630000
C                  3.7479150000     -4.5596260000      2.3295160000
C                  2.6733090000     -3.6070340000      2.3357760000
C                  2.5165360000     -2.6051930000      1.3539040000
C                  3.4408660000     -2.4049300000      0.2732700000
O                  3.8718970000     -5.4954640000      3.2090570000
O                  3.3140160000     -1.4679970000     -0.6046980000
H                  5.9800820000     -5.9135470000      1.9954380000
H                  5.2766620000     -2.5820360000     -1.6044600000
Br                 8.4404090000     -6.1194430000      0.3122860000
Br                 7.6212640000     -4.1844910000     -2.5338320000
C                  1.6689780000     -3.7374600000      3.4577210000
C                  1.3427110000     -1.6550660000      1.4162190000
H                  2.0387580000     -4.4849040000      4.1635460000
H                  0.6785990000     -4.0658060000      3.1016450000
H                  1.5081510000     -2.7859160000      3.9847250000
H                  0.3828020000     -2.1848240000      1.4994970000
H                  1.3443790000     -1.0481060000      0.5078150000
H                  1.3966970000     -0.9736220000      2.2811950000
$end
$rem
MAX_SCF_CYCLES=200
BASIS  =  6-311++G(d,p)
GUI  =  2
JOB_TYPE  =  SP
METHOD  =  B3LYP
SOLVENT_METHOD = COSMO
$end
$solvent
dielectric 37.219
opticaldielectric 1.43
$end

--------------------------------------------------------------

             Standard Nuclear Orientation (Angstroms)
    I     Atom           X                Y                Z
 ----------------------------------------------------------------
    1      C      -0.0351131917    -1.3905682779     0.0991777517
    2      C      -1.2275407152    -0.7039298265     0.0627337628
    3      C      -1.2275394448     0.7038526941    -0.0626683839
    4      C       1.2076857789    -0.7191468081     0.0804131796
    5      C       1.2076712511     0.7191911462    -0.0803620854
    6      C      -0.0351626906     1.3905627784    -0.0991292292
    7      C       2.4334695335    -1.4861383109     0.1805779167
    8      C       3.6317035880    -0.7018318825     0.0740540310
    9      C       3.6316636513     0.7018730053    -0.0740958039
   10      C       2.4334247511     1.4861838132    -0.1805906616
   11      O       2.4351707707    -2.7653673145     0.3488839812
   12      O       2.4351729300     2.7654126038    -0.3489142287
   13      H      -0.0049750633    -2.4747454058     0.1179387910
   14      H      -0.0050621945     2.4747384298    -0.1179438127
   15      Br     -2.8851879318    -1.7550008103    -0.2210955943
   16      Br     -2.8852970243     1.7549717639     0.2210785342
   17      C       4.9373325160    -1.4590885225     0.1537268973
   18      C       4.9373074079     1.4591354752    -0.1537044630
   19      H       4.7143638603    -2.5285712847     0.1442236311
   20      H       5.4988622820    -1.2364000217     1.0759773681
   21      H       5.6092079382    -1.2189095038    -0.6828924785
   22      H       5.6094543327     1.2182684145     0.6824806975
   23      H       4.7144655480     2.5286385574    -0.1434227422
   24      H       5.4984925411     1.2370634207    -1.0763198448
 ----------------------------------------------------------------

   11   -5760.9924677602      9.77e-06  Convergence criterion met
 Total energy in the final basis set =    -5760.9924677602
    6   -5761.2507672916      6.77e-06  Convergence criterion met
 Total energy in the final basis set =    -5761.2507672916

                    Orbital Energies (a.u.)
 --------------------------------------------------------------

 Alpha MOs
 -- Occupied --
********-482.8226 -62.4753 -62.4753 -56.2958 -56.2957 -56.2920 -56.2920
-56.2919 -56.2919 -19.0260 -19.0260 -10.2198 -10.2193 -10.1782 -10.1782
-10.1676 -10.1675 -10.1492 -10.1488 -10.1371 -10.1370 -10.1367 -10.1362
 -8.6838  -8.6838  -6.5149  -6.5149  -6.5025  -6.5025  -6.5023  -6.5023
 -2.6260  -2.6260  -2.6222  -2.6222  -2.6220  -2.6220  -2.6124  -2.6124
 -2.6123  -2.6123  -0.9452  -0.9416  -0.8626  -0.7989  -0.7880  -0.7745
 -0.7284  -0.7185  -0.7013  -0.6476  -0.6300  -0.5881  -0.5580  -0.5269
 -0.4853  -0.4562  -0.4517  -0.4246  -0.4194  -0.4109  -0.3932  -0.3888
 -0.3764  -0.3748  -0.3641  -0.3598  -0.3593  -0.3437  -0.3423  -0.3262
 -0.3167  -0.3139  -0.3077  -0.2986  -0.2870  -0.2752  -0.2399  -0.2304
 -0.2115  -0.2097  -0.2014  -0.1205

          Ground-State Mulliken Net Atomic Charges

     Atom                 Charge (a.u.)
  ----------------------------------------
      1 C                    -0.290345
      2 C                     0.095110
      3 C                     0.094221
      4 C                     0.386535
      5 C                     0.387395
      6 C                    -0.290390
      7 C                    -0.963786
      8 C                     0.681299
      9 C                     0.680199
     10 C                    -0.962903
     11 O                    -0.708057
     12 O                    -0.708061
     13 H                     0.196757
     14 H                     0.196734
     15 Br                   -0.262519
     16 Br                   -0.262540
     17 C                    -0.598935
     18 C                    -0.598825
     19 H                     0.171505
     20 H                     0.152964
     21 H                     0.139569
     22 H                     0.139563
     23 H                     0.171462
     24 H                     0.153046
  ----------------------------------------
  Sum of atomic charges =    -2.000000

                    Cartesian Multipole Moments
 -----------------------------------------------------------------
    Charge (ESU x 10^10)
                -9.6064
    Dipole Moment (Debye)
         X     -13.6285      Y       0.0001      Z      -0.0004
       Tot      13.6285
    Quadrupole Moments (Debye-Ang)
        XX    -187.4411     XY      -0.0005     YY    -187.0111
        XZ      -0.0003     YZ       7.2080     ZZ    -129.8419

 Total job time:  72.85s(wall), 564.77s(cpu)
        *  Thank you very much for using Q-Chem.  Have a nice day.  *
