 Q-Chem 5.4, Q-Chem, Inc., Pleasanton, CA (2021)
 Q-Chem 5.4.0 for Intel X86 EM64T Linux

User input:
--------------------------------------------------------------
$molecule
0 1
C                 -3.4199760000     -0.7289220000     -0.3823230000
C                 -2.0325970000     -0.2644570000     -0.0651780000
C                 -1.7584680000      0.6980350000      0.8352780000
C                 -0.3932030000      1.1507830000      1.1434330000
O                 -0.2159800000      2.0435370000      1.9857690000
C                  0.7259650000      0.5238610000      0.4360480000
C                  2.0538270000      0.9271670000      0.7010140000
O                  2.3492850000      1.8815500000      1.5918570000
C                  3.1122360000      0.3118170000      0.0109570000
C                  2.8522040000     -0.6798500000     -0.9190400000
C                  1.5404720000     -1.0888620000     -1.1911370000
C                  0.4846900000     -0.4907380000     -0.5178180000
C                 -0.9125980000     -0.9281240000     -0.8094190000
O                 -1.1565560000     -1.7999820000     -1.6272870000
H                 -4.1605850000     -0.1884780000      0.2079130000
H                 -3.5179270000     -1.8007960000     -0.1895690000
H                 -3.6357810000     -0.5905060000     -1.4453290000
H                 -2.5447020000      1.1989620000      1.3909390000
H                  1.4977090000      2.1993530000      1.9765670000
H                  4.1228580000      0.6352890000      0.2285870000
H                  3.6782150000     -1.1460860000     -1.4440790000
H                  1.3309110000     -1.8635550000     -1.9171820000
$end
$rem
MAX_SCF_CYCLES=200
BASIS  =  6-311++G(d,p)
GUI  =  2
JOB_TYPE  =  SP
METHOD  =  B3LYP
SOLVENT_METHOD = PCM
$end
$pcm
theory = CPCM
$end
$solvent
dielectric 37.219
opticaldielectric 1.43
$end

--------------------------------------------------------------

             Standard Nuclear Orientation (Angstroms)
    I     Atom           X                Y                Z
 ----------------------------------------------------------------
    1      C      -3.4199760000    -0.7289220000    -0.3823230000
    2      C      -2.0325970000    -0.2644570000    -0.0651780000
    3      C      -1.7584680000     0.6980350000     0.8352780000
    4      C      -0.3932030000     1.1507830000     1.1434330000
    5      O      -0.2159800000     2.0435370000     1.9857690000
    6      C       0.7259650000     0.5238610000     0.4360480000
    7      C       2.0538270000     0.9271670000     0.7010140000
    8      O       2.3492850000     1.8815500000     1.5918570000
    9      C       3.1122360000     0.3118170000     0.0109570000
   10      C       2.8522040000    -0.6798500000    -0.9190400000
   11      C       1.5404720000    -1.0888620000    -1.1911370000
   12      C       0.4846900000    -0.4907380000    -0.5178180000
   13      C      -0.9125980000    -0.9281240000    -0.8094190000
   14      O      -1.1565560000    -1.7999820000    -1.6272870000
   15      H      -4.1605850000    -0.1884780000     0.2079130000
   16      H      -3.5179270000    -1.8007960000    -0.1895690000
   17      H      -3.6357810000    -0.5905060000    -1.4453290000
   18      H      -2.5447020000     1.1989620000     1.3909390000
   19      H       1.4977090000     2.1993530000     1.9765670000
   20      H       4.1228580000     0.6352890000     0.2285870000
   21      H       3.6782150000    -1.1460860000    -1.4440790000
   22      H       1.3309110000    -1.8635550000    -1.9171820000
 ----------------------------------------------------------------

    9    -649.8625094341      2.72e-06  Convergence criterion met
 Total energy in the final basis set =     -649.8625094341

                    Orbital Energies (a.u.)
 --------------------------------------------------------------

 Alpha MOs
 -- Occupied --
-19.1660 -19.1431 -19.1382 -10.2887 -10.2861 -10.2681 -10.2213 -10.2112
-10.2068 -10.2039 -10.2014 -10.1953 -10.1948 -10.1751  -1.0939  -1.0716
 -1.0641  -0.8898  -0.8478  -0.7905  -0.7729  -0.7302  -0.6916  -0.6583
 -0.6259  -0.6071  -0.5492  -0.5404  -0.5354  -0.4959  -0.4793  -0.4717
 -0.4667  -0.4655  -0.4404  -0.4335  -0.4214  -0.4153  -0.4071  -0.4044
 -0.4014  -0.3861  -0.3792  -0.3589  -0.3018  -0.2965  -0.2811  -0.2803
 -0.2526

          Ground-State Mulliken Net Atomic Charges

     Atom                 Charge (a.u.)
  ----------------------------------------
      1 C                    -0.331668
      2 C                     0.618598
      3 C                    -0.444554
      4 C                    -0.900473
      5 O                    -0.349422
      6 C                     0.985367
      7 C                    -0.229532
      8 O                    -0.322376
      9 C                    -0.072014
     10 C                    -0.422725
     11 C                    -0.049486
     12 C                     0.353880
     13 C                    -0.380543
     14 O                    -0.285746
     15 H                     0.185136
     16 H                     0.199208
     17 H                     0.199198
     18 H                     0.224663
     19 H                     0.359368
     20 H                     0.232669
     21 H                     0.234754
     22 H                     0.195699
  ----------------------------------------
  Sum of atomic charges =     0.000000

                    Cartesian Multipole Moments
 -----------------------------------------------------------------
    Charge (ESU x 10^10)
                 0.0000
    Dipole Moment (Debye)
         X      -0.5124      Y      -0.8914      Z      -0.8038
       Tot       1.3051
    Quadrupole Moments (Debye-Ang)
        XX     -65.8525     XY      -6.3603     YY     -90.2066
        XZ      -7.5917     YZ      -7.6292     ZZ     -88.3170

 Total job time:  53.68s(wall), 198.46s(cpu)
        *  Thank you very much for using Q-Chem.  Have a nice day.  *
