 Q-Chem 5.4, Q-Chem, Inc., Pleasanton, CA (2021)
 Q-Chem 5.4.0 for Intel X86 EM64T Linux

User input:
--------------------------------------------------------------
$molecule
-2 1
C                 -2.9005220000      0.4002460000      0.5264370000
C                 -1.9162850000     -0.4134270000     -0.3393020000
C                 -2.2691510000     -0.3315370000     -1.8390370000
C                 -0.4452810000     -0.1674340000     -0.0231330000
C                  0.2673970000      1.0267980000     -0.2022140000
Br                -0.6348540000      2.6453520000     -0.9431020000
C                  1.6442890000      1.2792010000      0.0868470000
O                  2.2541110000      2.3977560000     -0.0964720000
C                  2.3104880000      0.1102230000      0.6260670000
C                  1.6082310000     -1.0789690000      0.8060700000
Br                 2.5884280000     -2.6407400000      1.5502100000
C                  0.2348820000     -1.3366570000      0.5194090000
O                 -0.3560230000     -2.4651600000      0.7105090000
C                  3.7696520000      0.2711170000      0.9659210000
H                 -2.8449610000      1.4719830000      0.3221830000
H                 -2.6787460000      0.2440250000      1.5869160000
H                 -3.9350160000      0.0686340000      0.3450640000
H                 -2.0413380000     -1.4611370000     -0.0485960000
H                 -2.1609590000      0.6803490000     -2.2363870000
H                 -1.6120990000     -0.9938490000     -2.4116320000
H                 -3.3075640000     -0.6579350000     -2.0070090000
H                  4.4043610000     -0.4235770000      0.3986820000
H                  4.0514200000      1.2985970000      0.7258000000
H                  3.9695420000      0.0761420000      2.0285260000
$end
$rem
MAX_SCF_CYCLES=200
BASIS  =  6-311++G(d,p)
GUI  =  2
JOB_TYPE  =  SP
METHOD  =  B3LYP
SOLVENT_METHOD = PCM
$end
$pcm
theory = CPCM
$end
$solvent
dielectric 37.219
opticaldielectric 1.43
$end

--------------------------------------------------------------

             Standard Nuclear Orientation (Angstroms)
    I     Atom           X                Y                Z
 ----------------------------------------------------------------
    1      C      -2.9005220000     0.4002460000     0.5264370000
    2      C      -1.9162850000    -0.4134270000    -0.3393020000
    3      C      -2.2691510000    -0.3315370000    -1.8390370000
    4      C      -0.4452810000    -0.1674340000    -0.0231330000
    5      C       0.2673970000     1.0267980000    -0.2022140000
    6      Br     -0.6348540000     2.6453520000    -0.9431020000
    7      C       1.6442890000     1.2792010000     0.0868470000
    8      O       2.2541110000     2.3977560000    -0.0964720000
    9      C       2.3104880000     0.1102230000     0.6260670000
   10      C       1.6082310000    -1.0789690000     0.8060700000
   11      Br      2.5884280000    -2.6407400000     1.5502100000
   12      C       0.2348820000    -1.3366570000     0.5194090000
   13      O      -0.3560230000    -2.4651600000     0.7105090000
   14      C       3.7696520000     0.2711170000     0.9659210000
   15      H      -2.8449610000     1.4719830000     0.3221830000
   16      H      -2.6787460000     0.2440250000     1.5869160000
   17      H      -3.9350160000     0.0686340000     0.3450640000
   18      H      -2.0413380000    -1.4611370000    -0.0485960000
   19      H      -2.1609590000     0.6803490000    -2.2363870000
   20      H      -1.6120990000    -0.9938490000    -2.4116320000
   21      H      -3.3075640000    -0.6579350000    -2.0070090000
   22      H       4.4043610000    -0.4235770000     0.3986820000
   23      H       4.0514200000     1.2985970000     0.7258000000
   24      H       3.9695420000     0.0761420000     2.0285260000
 ----------------------------------------------------------------

    9   -5686.2213909288      6.14e-06  Convergence criterion met
 Total energy in the final basis set =    -5686.2213909288

                    Orbital Energies (a.u.)
 --------------------------------------------------------------

 Alpha MOs
 -- Occupied --
********-482.7985 -62.4545 -62.4515 -56.2746 -56.2716 -56.2715 -56.2712
-56.2684 -56.2680 -19.0259 -19.0252 -10.1878 -10.1870 -10.1848 -10.1833
-10.1517 -10.1488 -10.1474 -10.1415 -10.1401 -10.1401  -8.6631  -8.6601
 -6.4931  -6.4902  -6.4827  -6.4818  -6.4796  -6.4787  -2.6043  -2.6014
 -2.6014  -2.6007  -2.5985  -2.5977  -2.5925  -2.5924  -2.5894  -2.5894
 -0.9474  -0.9436  -0.8162  -0.7914  -0.7604  -0.7431  -0.7154  -0.6662
 -0.6532  -0.6454  -0.5762  -0.5269  -0.5160  -0.4688  -0.4336  -0.4172
 -0.4065  -0.4062  -0.3935  -0.3813  -0.3736  -0.3686  -0.3632  -0.3558
 -0.3499  -0.3316  -0.3303  -0.3227  -0.3202  -0.3002  -0.2872  -0.2801
 -0.2671  -0.2596  -0.2322  -0.2099  -0.2072  -0.2032  -0.1287

          Ground-State Mulliken Net Atomic Charges

     Atom                 Charge (a.u.)
  ----------------------------------------
      1 C                    -0.722419
      2 C                     0.316939
      3 C                    -0.723736
      4 C                     0.904477
      5 C                     0.260700
      6 Br                   -0.224607
      7 C                    -1.338377
      8 O                    -0.632267
      9 C                     0.717492
     10 C                     0.131673
     11 Br                   -0.317512
     12 C                    -0.958803
     13 O                    -0.615364
     14 C                    -0.324230
     15 H                     0.140601
     16 H                     0.147370
     17 H                     0.142366
     18 H                     0.195753
     19 H                     0.140718
     20 H                     0.147328
     21 H                     0.142129
     22 H                     0.149918
     23 H                     0.170256
     24 H                     0.149595
  ----------------------------------------
  Sum of atomic charges =    -2.000000

                    Cartesian Multipole Moments
 -----------------------------------------------------------------
    Charge (ESU x 10^10)
                -9.6064
    Dipole Moment (Debye)
         X      -8.8781      Y      -0.0226      Z      -2.7789
       Tot       9.3028
    Quadrupole Moments (Debye-Ang)
        XX    -145.4821     XY     -11.4474     YY    -178.7767
        XZ      -3.8240     YZ      15.3161     ZZ    -125.1932

 Total job time:  44.44s(wall), 291.20s(cpu)
        *  Thank you very much for using Q-Chem.  Have a nice day.  *
