 Gaussian 16, Revision A.03,
 Gaussian 16:  ES64L-G16RevA.03 25-Dec-2016

 ----------------------------------------------------------------------
 #P UB3LYP/6-311++G(d,p) nosym opt freq SCRF=(PCM,Solvent=n,n-DiMethylF
 ormamide)
 ----------------------------------------------------------------------

 --------
 Oxidized
 --------
 Symbolic Z-matrix:
 Charge =  0 Multiplicity = 1

 SCF Done:  E(UB3LYP) =  -804.695331818     A.U. after   15 cycles
 SCF Done:  E(UB3LYP) =  -804.695428502     A.U. after   12 cycles
 SCF Done:  E(UB3LYP) =  -804.695305084     A.U. after   13 cycles
 SCF Done:  E(UB3LYP) =  -804.695495438     A.U. after   12 cycles
 SCF Done:  E(UB3LYP) =  -804.695529559     A.U. after   12 cycles
 SCF Done:  E(UB3LYP) =  -804.695544331     A.U. after   11 cycles
 SCF Done:  E(UB3LYP) =  -804.695551453     A.U. after   11 cycles
 SCF Done:  E(UB3LYP) =  -804.695560508     A.U. after   11 cycles
 SCF Done:  E(UB3LYP) =  -804.695570672     A.U. after   12 cycles
 SCF Done:  E(UB3LYP) =  -804.695573152     A.U. after   11 cycles
 SCF Done:  E(UB3LYP) =  -804.695573693     A.U. after    9 cycles
 SCF Done:  E(UB3LYP) =  -804.695573784     A.U. after    8 cycles
 SCF Done:  E(UB3LYP) =  -804.695573832     A.U. after    8 cycles
 SCF Done:  E(UB3LYP) =  -804.695573869     A.U. after    8 cycles
 SCF Done:  E(UB3LYP) =  -804.695573885     A.U. after    8 cycles
 SCF Done:  E(UB3LYP) =  -804.695573892     A.U. after    8 cycles
 Optimization completed.
    -- Stationary point found.
 Normal termination of Gaussian 16 at Sat Feb 10 11:55:38 2024.

 ----------------------------------------------------------------------
 #P Geom=AllCheck Guess=TCheck SCRF=Check GenChk UB3LYP/6-311++G(d,p) F
 req
 ----------------------------------------------------------------------

 Structure from the checkpoint file:  "081.chk"
 --------
 Oxidized
 --------
 Charge =  0 Multiplicity = 1

                          Input orientation:
 ---------------------------------------------------------------------
 Center     Atomic      Atomic             Coordinates (Angstroms)
 Number     Number       Type             X           Y           Z
 ---------------------------------------------------------------------
      1          6           0        0.991609    1.503618   -3.014372
      2          6           0       -0.389093    1.637558   -3.528946
      3          6           0       -1.282440    0.657894   -3.356824
      4          6           0       -0.922241   -0.593408   -2.652097
      5          6           0        0.472730   -0.752658   -2.123763
      6          8           0        1.806217    2.406634   -3.159211
      7          8           0       -1.748974   -1.482792   -2.506757
      8          1           0       -0.625753    2.564605   -4.038358
      9          6           0        1.363460    0.243628   -2.313412
     10          6           0        2.767004    0.221289   -1.721617
     11          6           0        3.895496   -0.236166   -2.564854
     12          6           0        5.243803   -0.181151   -2.117926
     13          6           0        3.609702   -0.737607   -3.848267
     14          6           0        6.236422   -0.635656   -2.991782
     15          6           0        5.937617   -1.132747   -4.258795
     16          6           0        4.615131   -1.186348   -4.693271
     17          8           0        2.880665    0.601759   -0.566340
     18          6           0        5.662103    0.340584   -0.766865
     19          1           0        2.581988   -0.782724   -4.185962
     20          1           0        7.270753   -0.597554   -2.668264
     21          1           0        6.738604   -1.476102   -4.903784
     22          1           0        4.370620   -1.571072   -5.675932
     23          6           0        0.770710   -2.041026   -1.419655
     24          1           0       -2.301929    0.727023   -3.718300
     25          1           0        0.124731   -2.149677   -0.543805
     26          1           0        1.808431   -2.100770   -1.095951
     27          1           0        0.554683   -2.888655   -2.075225
     28          1           0        5.313843    1.362901   -0.604918
     29          1           0        6.749962    0.322173   -0.682565
     30          1           0        5.238276   -0.258653    0.042106
 ---------------------------------------------------------------------

 SCF Done:  E(UB3LYP) =  -804.695573892     A.U. after    1 cycles

 Alpha  occ. eigenvalues --  -19.14908 -19.14889 -19.13571 -10.29595 -10.29310
 Alpha  occ. eigenvalues --  -10.28901 -10.23049 -10.22180 -10.21749 -10.21665
 Alpha  occ. eigenvalues --  -10.20954 -10.20290 -10.19740 -10.19491 -10.18810
 Alpha  occ. eigenvalues --  -10.18662 -10.18352 -10.16906  -1.08035  -1.07761
 Alpha  occ. eigenvalues --   -1.06725  -0.88278  -0.87518  -0.82084  -0.79018
 Alpha  occ. eigenvalues --   -0.78257  -0.74474  -0.70425  -0.70070  -0.66639
 Alpha  occ. eigenvalues --   -0.63630  -0.60936  -0.60410  -0.56752  -0.54051
 Alpha  occ. eigenvalues --   -0.52957  -0.50736  -0.49423  -0.48283  -0.47692
 Alpha  occ. eigenvalues --   -0.46723  -0.45831  -0.45162  -0.44678  -0.44356
 Alpha  occ. eigenvalues --   -0.43525  -0.43222  -0.42504  -0.41643  -0.41349
 Alpha  occ. eigenvalues --   -0.40272  -0.39401  -0.39324  -0.37233  -0.37202
 Alpha  occ. eigenvalues --   -0.36008  -0.31833  -0.30615  -0.29965  -0.29259
 Alpha  occ. eigenvalues --   -0.27769  -0.26808  -0.26550
 Alpha virt. eigenvalues --   -0.14192  -0.08402  -0.03599  -0.02698  -0.01053
 Alpha virt. eigenvalues --   -0.00833   0.00178   0.00683   0.00876   0.01104
 Alpha virt. eigenvalues --    0.01940   0.02777   0.03050   0.03392   0.03979

  Beta  occ. eigenvalues --  -19.14908 -19.14889 -19.13571 -10.29595 -10.29310
  Beta  occ. eigenvalues --  -10.28901 -10.23049 -10.22180 -10.21749 -10.21665
  Beta  occ. eigenvalues --  -10.20954 -10.20290 -10.19740 -10.19491 -10.18810
  Beta  occ. eigenvalues --  -10.18662 -10.18352 -10.16906  -1.08035  -1.07761
  Beta  occ. eigenvalues --   -1.06725  -0.88278  -0.87518  -0.82084  -0.79018
  Beta  occ. eigenvalues --   -0.78257  -0.74474  -0.70425  -0.70070  -0.66639
  Beta  occ. eigenvalues --   -0.63630  -0.60936  -0.60410  -0.56752  -0.54051
  Beta  occ. eigenvalues --   -0.52957  -0.50736  -0.49423  -0.48283  -0.47692
  Beta  occ. eigenvalues --   -0.46723  -0.45831  -0.45162  -0.44678  -0.44356
  Beta  occ. eigenvalues --   -0.43525  -0.43222  -0.42504  -0.41643  -0.41349
  Beta  occ. eigenvalues --   -0.40272  -0.39401  -0.39324  -0.37233  -0.37202
  Beta  occ. eigenvalues --   -0.36008  -0.31833  -0.30615  -0.29965  -0.29259
  Beta  occ. eigenvalues --   -0.27769  -0.26808  -0.26550
  Beta virt. eigenvalues --   -0.14192  -0.08402  -0.03599  -0.02698  -0.01053
  Beta virt. eigenvalues --   -0.00833   0.00178   0.00683   0.00876   0.01104
  Beta virt. eigenvalues --    0.01940   0.02777   0.03050   0.03392   0.03979

 Mulliken charges and spin densities:
               1          2
     1  C   -0.400663   0.000000
     2  C   -0.199377  -0.000000
     3  C    0.125456   0.000000
     4  C   -0.399742  -0.000000
     5  C    0.362580  -0.000000
     6  O   -0.272484  -0.000000
     7  O   -0.277201  -0.000000
     8  H    0.246232  -0.000000
     9  C    0.745034   0.000000
    10  C   -0.034723   0.000000
    11  C    0.095030  -0.000000
    12  C    0.667349  -0.000000
    13  C   -0.327318   0.000000
    14  C   -0.563483   0.000000
    15  C   -0.244622   0.000000
    16  C   -0.144080   0.000000
    17  O   -0.288323   0.000000
    18  C   -0.611302  -0.000000
    19  H    0.176825   0.000000
    20  H    0.164256   0.000000
    21  H    0.201944  -0.000000
    22  H    0.208584  -0.000000
    23  C   -0.573120  -0.000000
    24  H    0.250153   0.000000
    25  H    0.203970  -0.000000
    26  H    0.153454  -0.000000
    27  H    0.206408   0.000000
    28  H    0.187224   0.000000
    29  H    0.152648  -0.000000
    30  H    0.189290  -0.000000
 Sum of Mulliken charges =  -0.00000  -0.00000

 Dipole moment (field-independent basis, Debye):
    X=              1.2839    Y=             -2.2866    Z=             -3.2598  Tot=              4.1837
 Quadrupole moment (field-independent basis, Debye-Ang):
   XX=            -88.7217   YY=           -111.8156   ZZ=            -86.3951
   XY=            -19.9126   XZ=             -8.9016   YZ=              5.5275

  Exact polarizability: 307.672  34.475 231.130  -9.787   7.924 226.512
 Approx polarizability: 349.115  67.831 290.753 -17.267  13.634 270.049

                      1                      2                      3
                      A                      A                      A
 Frequencies --     14.6608                29.8578                55.9978
 Red. masses --      5.2350                 4.5543                 5.2046
 Frc consts  --      0.0007                 0.0024                 0.0096
 IR Inten    --      2.2184                 0.0523                 0.8722

                      4                      5                      6
                      A                      A                      A
 Frequencies --     79.9326               105.7920               116.2803
 Red. masses --      7.9830                 1.9909                 3.8002
 Frc consts  --      0.0301                 0.0131                 0.0303
 IR Inten    --     20.5224                 1.9138                 1.9098

                      7                      8                      9
                      A                      A                      A
 Frequencies --    125.5827               151.1494               208.6427
 Red. masses --      1.6982                 4.3801                 4.0247
 Frc consts  --      0.0158                 0.0590                 0.1032
 IR Inten    --      0.0684                 0.2921                 0.9374

                     10                     11                     12
                      A                      A                      A
 Frequencies --    217.8152               231.0901               255.7816
 Red. masses --      1.2670                 2.6883                 5.8886
 Frc consts  --      0.0354                 0.0846                 0.2270
 IR Inten    --      1.7294                 1.9970                12.0532

                     13                     14                     15
                      A                      A                      A
 Frequencies --    258.9920               317.3722               358.9067
 Red. masses --      4.1581                 3.4671                 6.5031
 Frc consts  --      0.1643                 0.2058                 0.4936
 IR Inten    --      0.1457                 2.3219                 3.9918

                     16                     17                     18
                      A                      A                      A
 Frequencies --    397.6173               415.2072               428.1462
 Red. masses --      4.3560                 5.4891                 4.6477
 Frc consts  --      0.4058                 0.5576                 0.5020
 IR Inten    --     21.2434                18.4711                 1.0720

                     19                     20                     21
                      A                      A                      A
 Frequencies --    434.9263               457.5768               493.9687
 Red. masses --      3.7941                 7.8315                 3.4533
 Frc consts  --      0.4228                 0.9661                 0.4965
 IR Inten    --      4.3683                 9.4636                 9.8754

                     22                     23                     24
                      A                      A                      A
 Frequencies --    527.1693               556.1678               578.0403
 Red. masses --      5.1872                 4.5028                 3.4933
 Frc consts  --      0.8493                 0.8206                 0.6877
 IR Inten    --     30.8232                 1.9840                 1.5947

                     25                     26                     27
                      A                      A                      A
 Frequencies --    589.1374               647.7660               678.1585
 Red. masses --      4.6111                 3.8419                 6.5701
 Frc consts  --      0.9429                 0.9498                 1.7803
 IR Inten    --      7.2750                 5.4834                28.0784

                     28                     29                     30
                      A                      A                      A
 Frequencies --    693.7809               725.8506               737.8622
 Red. masses --      4.5248                 6.2950                 1.8910
 Frc consts  --      1.2832                 1.9541                 0.6066
 IR Inten    --      3.5831                 4.1510                39.8156

                     31                     32                     33
                      A                      A                      A
 Frequencies --    777.8504               791.5788               812.8392
 Red. masses --      2.3314                 3.4783                 4.7701
 Frc consts  --      0.8311                 1.2841                 1.8569
 IR Inten    --     38.7444                52.9931                10.9092

                     34                     35                     36
                      A                      A                      A
 Frequencies --    838.6420               858.6287               888.7566
 Red. masses --      3.4575                 2.3871                 1.3226
 Frc consts  --      1.4327                 1.0369                 0.6155
 IR Inten    --      6.9275                51.6923                 2.1800

                     37                     38                     39
                      A                      A                      A
 Frequencies --    918.0775               979.1844              1011.4636
 Red. masses --      3.5836                 1.3888                 1.8045
 Frc consts  --      1.7796                 0.7846                 1.0877
 IR Inten    --    189.2898                 0.6416                 7.5475

                     40                     41                     42
                      A                      A                      A
 Frequencies --   1015.0945              1016.9134              1017.6953
 Red. masses --      1.3520                 1.3069                 2.9522
 Frc consts  --      0.8208                 0.7963                 1.8015
 IR Inten    --      1.7924                 1.2152                23.1976

                     43                     44                     45
                      A                      A                      A
 Frequencies --   1045.2643              1057.1045              1074.2291
 Red. masses --      1.5850                 1.5843                 2.4281
 Frc consts  --      1.0203                 1.0431                 1.6509
 IR Inten    --      1.1925                 4.7045                 9.8023

                     46                     47                     48
                      A                      A                      A
 Frequencies --   1086.6860              1120.7694              1151.2017
 Red. masses --      2.4189                 1.8887                 1.9385
 Frc consts  --      1.6830                 1.3978                 1.5136
 IR Inten    --     16.2513                60.4113                21.2606

                     49                     50                     51
                      A                      A                      A
 Frequencies --   1160.4462              1187.2729              1217.2224
 Red. masses --      1.7093                 1.1051                 2.5877
 Frc consts  --      1.3562                 0.9178                 2.2589
 IR Inten    --     10.4196                 9.1747                26.5148

                     52                     53                     54
                      A                      A                      A
 Frequencies --   1245.2562              1298.6919              1310.2911
 Red. masses --      4.6071                 3.4031                 1.5911
 Frc consts  --      4.2092                 3.3817                 1.6095
 IR Inten    --    312.6550               296.3612                31.4028

                     55                     56                     57
                      A                      A                      A
 Frequencies --   1321.7603              1337.4017              1391.9303
 Red. masses --      4.2263                 5.0441                 1.9479
 Frc consts  --      4.3503                 5.3157                 2.2236
 IR Inten    --     25.1879                60.2757                 1.9539

                     58                     59                     60
                      A                      A                      A
 Frequencies --   1409.8073              1411.2710              1459.0955
 Red. masses --      1.2770                 1.2198                 1.0450
 Frc consts  --      1.4955                 1.4314                 1.3107
 IR Inten    --     33.5362                 7.6687                13.7390

                     61                     62                     63
                      A                      A                      A
 Frequencies --   1462.6566              1467.6941              1469.2724
 Red. masses --      1.4311                 1.0539                 1.0892
 Frc consts  --      1.8039                 1.3376                 1.3853
 IR Inten    --      3.6546                11.7778                14.0339

                     64                     65                     66
                      A                      A                      A
 Frequencies --   1487.4887              1506.3778              1597.2312
 Red. masses --      1.4966                 2.2947                 5.1432
 Frc consts  --      1.9510                 3.0679                 7.7306
 IR Inten    --     50.4274                44.0610                97.3813

                     67                     68                     69
                      A                      A                      A
 Frequencies --   1635.4773              1646.2441              1672.7241
 Red. masses --      5.5679                 8.2130                11.0850
 Frc consts  --      8.7747                13.1142                18.2740
 IR Inten    --     93.8688                81.5274               145.7889

                     70                     71                     72
                      A                      A                      A
 Frequencies --   1685.2937              1698.7033              1709.4009
 Red. masses --     10.8191                11.8708                 8.9496
 Frc consts  --     18.1048                20.1821                15.4079
 IR Inten    --    875.7430               626.6910                43.9392

                     73                     74                     75
                      A                      A                      A
 Frequencies --   3038.9381              3040.8477              3090.0727
 Red. masses --      1.0353                 1.0380                 1.0989
 Frc consts  --      5.6331                 5.6553                 6.1822
 IR Inten    --     24.4481                 4.8949                 7.6356

                     76                     77                     78
                      A                      A                      A
 Frequencies --   3094.0056              3111.1451              3138.1961
 Red. masses --      1.0993                 1.1037                 1.1011
 Frc consts  --      6.2003                 6.2944                 6.3891
 IR Inten    --     15.6165                39.4282                13.6036

                     79                     80                     81
                      A                      A                      A
 Frequencies --   3167.6827              3179.7364              3184.0788
 Red. masses --      1.0873                 1.0897                 1.0876
 Frc consts  --      6.4283                 6.4916                 6.4968
 IR Inten    --      8.2572                11.3754                 3.0115

                     82                     83                     84
                      A                      A                      A
 Frequencies --   3188.3135              3199.6929              3200.3556
 Red. masses --      1.0920                 1.0965                 1.1000
 Frc consts  --      6.5403                 6.6143                 6.6381
 IR Inten    --     24.3329                15.2547                 2.7916

 - Thermochemistry -
 -------------------
 Temperature   298.150 Kelvin.  Pressure   1.00000 Atm.
 Atom     1 has atomic number  6 and mass  12.00000

 Molecular mass:   240.07864 amu.
 Principal axes and moments of inertia in atomic units:
                           1         2         3
     Eigenvalues --  2302.416436710.316356793.62992
           X            0.99804   0.06235  -0.00459
           Y           -0.06188   0.97463  -0.21509
           Z           -0.00894   0.21496   0.97658
 This molecule is an asymmetric top.
 Rotational symmetry number  1.
 Warning -- assumption of classical behavior for rotation
           may cause significant error
 Rotational temperatures (Kelvin)      0.03762     0.01291     0.01275
 Rotational constants (GHZ):           0.78385     0.26895     0.26565
 Zero-point vibrational energy     602758.1 (Joules/Mol)
                                  144.06264 (Kcal/Mol)
 Warning -- explicit consideration of  25 degrees of freedom as
           vibrations may cause significant error
 Vibrational temperatures:     21.09    42.96    80.57   115.01   152.21
          (Kelvin)            167.30   180.69   217.47   300.19   313.39
                              332.49   368.01   372.63   456.63   516.39
                              572.08   597.39   616.01   625.76   658.35
                              710.71   758.48   800.20   831.67   847.64
                              931.99   975.72   998.20  1044.34  1061.62
                             1119.15  1138.91  1169.49  1206.62  1235.38
                             1278.72  1320.91  1408.83  1455.27  1460.49
                             1463.11  1464.24  1503.90  1520.94  1545.58
                             1563.50  1612.54  1656.32  1669.62  1708.22
                             1751.31  1791.65  1868.53  1885.22  1901.72
                             1924.22  2002.68  2028.40  2030.50  2099.31
                             2104.44  2111.68  2113.96  2140.16  2167.34
                             2298.06  2353.09  2368.58  2406.68  2424.76
                             2444.06  2459.45  4372.35  4375.10  4445.93
                             4451.58  4476.24  4515.16  4557.59  4574.93
                             4581.18  4587.27  4603.64  4604.60

 Zero-point correction=                           0.229578 (Hartree/Particle)
 Thermal correction to Energy=                    0.245800
 Thermal correction to Enthalpy=                  0.246744
 Thermal correction to Gibbs Free Energy=         0.184010
 Sum of electronic and zero-point Energies=           -804.465995
 Sum of electronic and thermal Energies=              -804.449774
 Sum of electronic and thermal Enthalpies=            -804.448830
 Sum of electronic and thermal Free Energies=         -804.511564

                     E (Thermal)             CV                S
                      KCal/Mol        Cal/Mol-Kelvin    Cal/Mol-Kelvin
 Total                  154.242             60.856            132.034
 Electronic               0.000              0.000              0.000
 Translational            0.889              2.981             42.329
 Rotational               0.889              2.981             33.017
 Vibrational            152.464             54.895             56.688
 Vibration     1          0.593              1.986              7.251
 Vibration     2          0.594              1.984              5.839
 Vibration     3          0.596              1.975              4.593
 Vibration     4          0.600              1.963              3.893
 Vibration     5          0.605              1.945              3.345
 Vibration     6          0.608              1.936              3.161
 Vibration     7          0.611              1.927              3.013
 Vibration     8          0.619              1.901              2.658
 Vibration     9          0.642              1.828              2.056
 Vibration    10          0.646              1.814              1.977
 Vibration    11          0.653              1.793              1.870
 Vibration    12          0.666              1.753              1.690
 Vibration    13          0.668              1.748              1.669
 Vibration    14          0.704              1.640              1.324
 Vibration    15          0.734              1.557              1.127
 Vibration    16          0.764              1.475              0.971
 Vibration    17          0.779              1.437              0.908
 Vibration    18          0.790              1.409              0.865
 Vibration    19          0.796              1.394              0.843
 Vibration    20          0.816              1.344              0.773
 Vibration    21          0.850              1.263              0.673
 Vibration    22          0.882              1.190              0.594
 Vibration    23          0.912              1.126              0.532
 Vibration    24          0.935              1.079              0.489
 Vibration    25          0.946              1.055              0.469

 Optimization completed.
    -- Stationary point found.
 Normal termination of Gaussian 16 at Sat Feb 10 12:59:26 2024.
