 Gaussian 16, Revision A.03,
 Gaussian 16:  ES64L-G16RevA.03 25-Dec-2016

 ----------------------------------------------------------------------
 #P UB3LYP/6-311++G(d,p) nosym opt freq SCRF=(PCM,Solvent=n,n-DiMethylF
 ormamide)
 ----------------------------------------------------------------------

 --------
 Oxidized
 --------
 Symbolic Z-matrix:
 Charge =  0 Multiplicity = 1

 SCF Done:  E(UB3LYP) =  -918.083932420     A.U. after   15 cycles
 SCF Done:  E(UB3LYP) =  -918.084132609     A.U. after   11 cycles
 SCF Done:  E(UB3LYP) =  -918.084163105     A.U. after   11 cycles
 SCF Done:  E(UB3LYP) =  -918.084171685     A.U. after    9 cycles
 Optimization completed.
    -- Stationary point found.
 Normal termination of Gaussian 16 at Sat Feb 10 16:19:20 2024.

 ----------------------------------------------------------------------
 #P Geom=AllCheck Guess=TCheck SCRF=Check GenChk UB3LYP/6-311++G(d,p) F
 req
 ----------------------------------------------------------------------

 Structure from the checkpoint file:  "142.chk"
 --------
 Oxidized
 --------
 Charge =  0 Multiplicity = 1

                          Input orientation:
 ---------------------------------------------------------------------
 Center     Atomic      Atomic             Coordinates (Angstroms)
 Number     Number       Type             X           Y           Z
 ---------------------------------------------------------------------
      1          6           0       -3.260790    3.660790    0.083670
      2          6           0       -4.508556    3.025403    0.087973
      3          6           0       -4.574492    1.624146    0.064449
      4          6           0       -2.090033    2.913489    0.055718
      5          6           0       -2.146908    1.503347    0.031697
      6          6           0       -3.398909    0.883787    0.036664
      7          6           0       -0.781844    3.630485    0.051622
      8          6           0        0.455400    2.797534    0.021352
      9          6           0        0.383220    1.388086   -0.002913
     10          6           0       -0.917075    0.676427    0.001894
     11          6           0        1.689530    3.435329    0.016633
     12          6           0        2.874075    2.689217   -0.012632
     13          6           0        2.811733    1.287850   -0.037333
     14          6           0        1.573448    0.657372   -0.032157
     15          8           0       -0.725889    4.852807    0.072355
     16          8           0       -0.973378   -0.552168   -0.018367
     17          1           0       -3.444996   -0.197794    0.018295
     18          1           0        1.520699   -0.423851   -0.051267
     19          1           0       -3.211998    4.741863    0.102161
     20          1           0        1.739616    4.516353    0.035434
     21          8           0        4.022009    3.404653   -0.014960
     22          6           0        5.275890    2.710055   -0.045092
     23          8           0       -5.586388    3.842137    0.115353
     24          1           0        3.712279    0.690201   -0.060308
     25          1           0        6.038500    3.485209   -0.040388
     26          1           0        5.368785    2.109706   -0.953544
     27          1           0        5.392838    2.075208    0.836716
     28          6           0       -6.898439    3.264111    0.119403
     29          1           0       -5.526003    1.111026    0.067602
     30          1           0       -7.587317    4.105213    0.140287
     31          1           0       -7.049935    2.643734    1.006263
     32          1           0       -7.068189    2.673067   -0.784021
 ---------------------------------------------------------------------

 SCF Done:  E(UB3LYP) =  -918.084171685     A.U. after    1 cycles

 Alpha  occ. eigenvalues --  -19.17570 -19.17568 -19.13288 -19.12195 -10.28516
 Alpha  occ. eigenvalues --  -10.27677 -10.26345 -10.26342 -10.23027 -10.23023
 Alpha  occ. eigenvalues --  -10.21098 -10.21097 -10.20161 -10.20159 -10.20071
 Alpha  occ. eigenvalues --  -10.20071 -10.19809 -10.19808 -10.19617 -10.19615
 Alpha  occ. eigenvalues --   -1.09040  -1.09038  -1.06568  -1.05371  -0.89355
 Alpha  occ. eigenvalues --   -0.88153  -0.81265  -0.78653  -0.78539  -0.77371
 Alpha  occ. eigenvalues --   -0.73027  -0.71791  -0.68441  -0.66115  -0.63303
 Alpha  occ. eigenvalues --   -0.62240  -0.58968  -0.56647  -0.56416  -0.52627
 Alpha  occ. eigenvalues --   -0.52565  -0.51798  -0.49704  -0.48493  -0.48425
 Alpha  occ. eigenvalues --   -0.47572  -0.46785  -0.45793  -0.45485  -0.45270
 Alpha  occ. eigenvalues --   -0.45132  -0.43537  -0.42625  -0.42171  -0.41618
 Alpha  occ. eigenvalues --   -0.40735  -0.40317  -0.38902  -0.38812  -0.38365
 Alpha  occ. eigenvalues --   -0.35146  -0.34997  -0.34622  -0.33630  -0.28706
 Alpha  occ. eigenvalues --   -0.28557  -0.28273  -0.27402  -0.25550  -0.24599
 Alpha virt. eigenvalues --   -0.11503  -0.07373  -0.03137  -0.02225  -0.00801
 Alpha virt. eigenvalues --   -0.00269   0.00865   0.00930   0.01641   0.02574
 Alpha virt. eigenvalues --    0.02864   0.03236   0.03432   0.03482   0.03807

  Beta  occ. eigenvalues --  -19.17570 -19.17568 -19.13288 -19.12195 -10.28516
  Beta  occ. eigenvalues --  -10.27677 -10.26345 -10.26342 -10.23027 -10.23023
  Beta  occ. eigenvalues --  -10.21098 -10.21097 -10.20161 -10.20159 -10.20071
  Beta  occ. eigenvalues --  -10.20071 -10.19809 -10.19808 -10.19617 -10.19615
  Beta  occ. eigenvalues --   -1.09040  -1.09038  -1.06568  -1.05371  -0.89355
  Beta  occ. eigenvalues --   -0.88153  -0.81265  -0.78653  -0.78539  -0.77371
  Beta  occ. eigenvalues --   -0.73027  -0.71791  -0.68441  -0.66115  -0.63303
  Beta  occ. eigenvalues --   -0.62240  -0.58968  -0.56647  -0.56416  -0.52627
  Beta  occ. eigenvalues --   -0.52565  -0.51798  -0.49704  -0.48493  -0.48425
  Beta  occ. eigenvalues --   -0.47572  -0.46785  -0.45793  -0.45485  -0.45270
  Beta  occ. eigenvalues --   -0.45132  -0.43537  -0.42625  -0.42171  -0.41618
  Beta  occ. eigenvalues --   -0.40735  -0.40317  -0.38902  -0.38812  -0.38365
  Beta  occ. eigenvalues --   -0.35146  -0.34997  -0.34622  -0.33630  -0.28706
  Beta  occ. eigenvalues --   -0.28557  -0.28273  -0.27402  -0.25550  -0.24599
  Beta virt. eigenvalues --   -0.11503  -0.07373  -0.03137  -0.02225  -0.00801
  Beta virt. eigenvalues --   -0.00269   0.00865   0.00930   0.01641   0.02574
  Beta virt. eigenvalues --    0.02864   0.03236   0.03432   0.03482   0.03807

 Mulliken charges and spin densities:
               1          2
     1  C   -0.455231   0.000000
     2  C   -0.820715   0.000000
     3  C    0.094883   0.000000
     4  C    0.829496  -0.000000
     5  C    0.506390  -0.000000
     6  C    0.123215  -0.000000
     7  C   -0.781248  -0.000000
     8  C    0.830383   0.000000
     9  C    0.505810   0.000000
    10  C   -0.496797   0.000000
    11  C   -0.455523  -0.000000
    12  C   -0.820963   0.000000
    13  C    0.096418   0.000000
    14  C    0.122306  -0.000000
    15  O   -0.266474  -0.000000
    16  O   -0.308586  -0.000000
    17  H    0.189291   0.000000
    18  H    0.189611   0.000000
    19  H    0.197060  -0.000000
    20  H    0.196660   0.000000
    21  O   -0.180362   0.000000
    22  C   -0.342980   0.000000
    23  O   -0.180226  -0.000000
    24  H    0.236920  -0.000000
    25  H    0.199010  -0.000000
    26  H    0.174688  -0.000000
    27  H    0.174511  -0.000000
    28  C   -0.343021   0.000000
    29  H    0.237347   0.000000
    30  H    0.199018  -0.000000
    31  H    0.174706  -0.000000
    32  H    0.174402  -0.000000
 Sum of Mulliken charges =  -0.00000  -0.00000

 Dipole moment (field-independent basis, Debye):
    X=             -0.0822    Y=             -1.7512    Z=             -0.0405  Tot=              1.7536
 Quadrupole moment (field-independent basis, Debye-Ang):
   XX=            -45.2450   YY=           -144.0994   ZZ=           -117.2762
   XY=             -2.8580   XZ=             -0.9592   YZ=             -0.4113

  Exact polarizability: 453.884  -6.251 315.709  -4.140   3.151 140.905
 Approx polarizability: 462.898  -2.182 413.885  -3.884   4.409 164.835

                      1                      2                      3
                      A                      A                      A
 Frequencies --     25.2064                71.1419                78.4879
 Red. masses --      5.7678                 3.7293                 4.1192
 Frc consts  --      0.0022                 0.0111                 0.0150
 IR Inten    --     10.0872                 0.0009                 0.1322

                      4                      5                      6
                      A                      A                      A
 Frequencies --     87.7180               101.6455               123.8751
 Red. masses --      3.7359                 5.4607                 4.7178
 Frc consts  --      0.0169                 0.0332                 0.0427
 IR Inten    --      0.0045                 9.8659                 3.8004

                      7                      8                      9
                      A                      A                      A
 Frequencies --    154.2500               189.0199               192.3246
 Red. masses --      6.5332                 4.5740                 4.6901
 Frc consts  --      0.0916                 0.0963                 0.1022
 IR Inten    --     11.0405                 0.0005                 3.4424

                     10                     11                     12
                      A                      A                      A
 Frequencies --    214.6356               222.2278               256.4549
 Red. masses --      1.2137                 1.1647                 4.3998
 Frc consts  --      0.0329                 0.0339                 0.1705
 IR Inten    --      0.0413                 0.0043                 0.0847

                     13                     14                     15
                      A                      A                      A
 Frequencies --    281.3936               304.4940               310.0106
 Red. masses --      3.6149                 5.1741                 4.6698
 Frc consts  --      0.1686                 0.2826                 0.2644
 IR Inten    --      3.8387                 2.9865                10.4801

                     16                     17                     18
                      A                      A                      A
 Frequencies --    322.2855               348.6154               408.0159
 Red. masses --      4.8593                10.4033                 9.0593
 Frc consts  --      0.2974                 0.7449                 0.8886
 IR Inten    --      0.0015                 4.5649                43.8097

                     19                     20                     21
                      A                      A                      A
 Frequencies --    425.1555               446.5718               459.5881
 Red. masses --      3.5892                 3.1374                 9.6620
 Frc consts  --      0.3822                 0.3686                 1.2024
 IR Inten    --      0.4779                 0.0001                 1.4644

                     22                     23                     24
                      A                      A                      A
 Frequencies --    499.0233               518.6363               526.1560
 Red. masses --      6.0249                 5.1871                 4.6589
 Frc consts  --      0.8840                 0.8221                 0.7599
 IR Inten    --      1.3722                 9.6147                 0.9798

                     25                     26                     27
                      A                      A                      A
 Frequencies --    586.5251               592.9786               626.2257
 Red. masses --      4.3992                 6.6138                 4.8377
 Frc consts  --      0.8916                 1.3702                 1.1178
 IR Inten    --      0.0002                92.7286                14.7314

                     28                     29                     30
                      A                      A                      A
 Frequencies --    661.2757               674.1786               711.5561
 Red. masses --      7.8814                 3.0723                 6.6348
 Frc consts  --      2.0306                 0.8228                 1.9792
 IR Inten    --      0.4114                29.6088                 1.8820

                     31                     32                     33
                      A                      A                      A
 Frequencies --    716.1779               716.2275               761.8375
 Red. masses --      5.2935                 4.7356                 6.1324
 Frc consts  --      1.5997                 1.4313                 2.0970
 IR Inten    --     14.1312                 9.4660                74.2460

                     34                     35                     36
                      A                      A                      A
 Frequencies --    790.2289               792.8038               841.7064
 Red. masses --      4.7206                 6.2323                 1.4364
 Frc consts  --      1.7368                 2.3080                 0.5996
 IR Inten    --      1.2116                53.8704                 0.0040

                     37                     38                     39
                      A                      A                      A
 Frequencies --    856.0010               900.5496               906.4772
 Red. masses --      1.7100                 5.4988                 1.4508
 Frc consts  --      0.7382                 2.6274                 0.7024
 IR Inten    --     66.2431                25.6361                 0.2337

                     40                     41                     42
                      A                      A                      A
 Frequencies --    916.4918               943.0853               986.7296
 Red. masses --      1.5557                 7.3853                 1.3276
 Frc consts  --      0.7699                 3.8701                 0.7616
 IR Inten    --     42.2286               169.2724                 0.0815

                     43                     44                     45
                      A                      A                      A
 Frequencies --    990.9853               993.6903              1040.9839
 Red. masses --      1.3566                 5.1768                 3.5904
 Frc consts  --      0.7849                 3.0117                 2.2924
 IR Inten    --      3.5200               254.9666                23.5032

                     46                     47                     48
                      A                      A                      A
 Frequencies --   1046.4879              1104.7505              1133.4102
 Red. masses --      2.3980                 3.7454                 1.7332
 Frc consts  --      1.5473                 2.6933                 1.3118
 IR Inten    --     49.7887                23.8790               248.0079

                     49                     50                     51
                      A                      A                      A
 Frequencies --   1159.7676              1165.9599              1166.3470
 Red. masses --      1.5038                 1.2705                 1.2706
 Frc consts  --      1.1917                 1.0176                 1.0184
 IR Inten    --      9.1344                 0.9955                 1.2634

                     52                     53                     54
                      A                      A                      A
 Frequencies --   1194.2882              1196.2239              1208.7187
 Red. masses --      1.5876                 2.0551                 1.4876
 Frc consts  --      1.3341                 1.7327                 1.2805
 IR Inten    --     89.4315                 6.6355                 6.3542

                     55                     56                     57
                      A                      A                      A
 Frequencies --   1230.1087              1241.4991              1257.1090
 Red. masses --      1.6257                 2.6731                 2.2026
 Frc consts  --      1.4494                 2.4275                 2.0508
 IR Inten    --     96.9029                92.9428               132.0315

                     58                     59                     60
                      A                      A                      A
 Frequencies --   1294.1408              1298.1171              1319.4245
 Red. masses --      6.6144                 2.4399                 2.2888
 Frc consts  --      6.5269                 2.4224                 2.3476
 IR Inten    --   2850.5712                51.6201                10.7989

                     61                     62                     63
                      A                      A                      A
 Frequencies --   1359.5387              1365.5760              1452.9071
 Red. masses --      7.6622                 9.7390                 3.4447
 Frc consts  --      8.3442                10.7003                 4.2843
 IR Inten    --    267.5620                 7.6796                11.2523

                     64                     65                     66
                      A                      A                      A
 Frequencies --   1461.7104              1474.3750              1474.6687
 Red. masses --      3.3748                 1.2848                 1.2956
 Frc consts  --      4.2483                 1.6455                 1.6600
 IR Inten    --    167.0362                22.8037                14.9175

                     67                     68                     69
                      A                      A                      A
 Frequencies --   1486.6656              1486.8951              1494.8486
 Red. masses --      1.0438                 1.0438                 1.0666
 Frc consts  --      1.3593                 1.3597                 1.4043
 IR Inten    --     11.9530                19.6010                37.9378

                     70                     71                     72
                      A                      A                      A
 Frequencies --   1495.1092              1513.3988              1520.0877
 Red. masses --      1.0763                 2.9940                 2.7490
 Frc consts  --      1.4175                 4.0402                 3.7425
 IR Inten    --     45.9057                37.2396                14.8397

                     73                     74                     75
                      A                      A                      A
 Frequencies --   1593.5343              1597.3131              1612.1618
 Red. masses --      6.4711                 8.2657                 6.4329
 Frc consts  --      9.6817                12.4254                 9.8509
 IR Inten    --     92.6181               150.0640               828.8706

                     76                     77                     78
                      A                      A                      A
 Frequencies --   1623.7430              1677.8210              1702.6796
 Red. masses --      6.0890                11.4421                11.7330
 Frc consts  --      9.4587                18.9778                20.0413
 IR Inten    --    399.7136               103.0955               441.6962

                     79                     80                     81
                      A                      A                      A
 Frequencies --   3028.0120              3028.4601              3097.2210
 Red. masses --      1.0327                 1.0327                 1.1076
 Frc consts  --      5.5790                 5.5802                 6.2601
 IR Inten    --     86.7330                59.7371                37.1610

                     82                     83                     84
                      A                      A                      A
 Frequencies --   3097.7460              3152.6309              3152.8132
 Red. masses --      1.1076                 1.1020                 1.1019
 Frc consts  --      6.2621                 6.4533                 6.4537
 IR Inten    --     38.0324                21.5797                22.2062

                     85                     86                     87
                      A                      A                      A
 Frequencies --   3197.9056              3198.3946              3205.3161
 Red. masses --      1.0891                 1.0891                 1.0909
 Frc consts  --      6.5622                 6.5641                 6.6033
 IR Inten    --      0.2063                 1.2810                10.9560

                     88                     89                     90
                      A                      A                      A
 Frequencies --   3206.2256              3217.0432              3217.6801
 Red. masses --      1.0909                 1.0932                 1.0930
 Frc consts  --      6.6072                 6.6657                 6.6675
 IR Inten    --      3.7425                 9.0175                 6.0410

 - Thermochemistry -
 -------------------
 Temperature   298.150 Kelvin.  Pressure   1.00000 Atm.
 Atom     1 has atomic number  6 and mass  12.00000

 Molecular mass:   268.07356 amu.
 Principal axes and moments of inertia in atomic units:
                           1         2         3
     Eigenvalues --  1899.57439********************
           X            0.99887   0.04569   0.01280
           Y           -0.04547   0.99882  -0.01736
           Z           -0.01358   0.01675   0.99977
 This molecule is an asymmetric top.
 Rotational symmetry number  1.
 Warning -- assumption of classical behavior for rotation
           may cause significant error
 Rotational temperatures (Kelvin)      0.04560     0.00813     0.00692
 Rotational constants (GHZ):           0.95008     0.16948     0.14409
 Zero-point vibrational energy     638701.1 (Joules/Mol)
                                  152.65323 (Kcal/Mol)
 Warning -- explicit consideration of  26 degrees of freedom as
           vibrations may cause significant error
 Vibrational temperatures:     36.27   102.36   112.93   126.21   146.25
          (Kelvin)            178.23   221.93   271.96   276.71   308.81
                              319.74   368.98   404.86   438.10   446.04
                              463.70   501.58   587.04   611.70   642.52
                              661.24   717.98   746.20   757.02   843.88
                              853.16   901.00   951.43   969.99  1023.77
                             1030.42  1030.49  1096.11  1136.96  1140.67
                             1211.03  1231.59  1295.69  1304.22  1318.63
                             1356.89  1419.68  1425.81  1429.70  1497.74
                             1505.66  1589.49  1630.72  1668.65  1677.56
                             1678.11  1718.31  1721.10  1739.08  1769.85
                             1786.24  1808.70  1861.98  1867.70  1898.36
                             1956.07  1964.76  2090.41  2103.08  2121.30
                             2121.72  2138.98  2139.31  2150.75  2151.13
                             2177.44  2187.07  2292.74  2298.18  2319.54
                             2336.20  2414.01  2449.78  4356.63  4357.28
                             4456.21  4456.97  4535.93  4536.20  4601.07
                             4601.78  4611.73  4613.04  4628.61  4629.52

 Zero-point correction=                           0.243268 (Hartree/Particle)
 Thermal correction to Energy=                    0.259969
 Thermal correction to Enthalpy=                  0.260914
 Thermal correction to Gibbs Free Energy=         0.198527
 Sum of electronic and zero-point Energies=           -917.840903
 Sum of electronic and thermal Energies=              -917.824202
 Sum of electronic and thermal Enthalpies=            -917.823258
 Sum of electronic and thermal Free Energies=         -917.885645

                     E (Thermal)             CV                S
                      KCal/Mol        Cal/Mol-Kelvin    Cal/Mol-Kelvin
 Total                  163.133             64.483            131.304
 Electronic               0.000              0.000              0.000
 Translational            0.889              2.981             42.657
 Rotational               0.889              2.981             33.893
 Vibrational            161.356             58.521             54.754
 Vibration     1          0.593              1.985              6.175
 Vibration     2          0.598              1.968              4.122
 Vibration     3          0.600              1.964              3.928
 Vibration     4          0.601              1.958              3.710
 Vibration     5          0.604              1.948              3.423
 Vibration     6          0.610              1.929              3.039
 Vibration     7          0.620              1.898              2.619
 Vibration     8          0.633              1.855              2.237
 Vibration     9          0.634              1.851              2.205
 Vibration    10          0.645              1.819              2.004
 Vibration    11          0.648              1.807              1.941
 Vibration    12          0.666              1.752              1.686
 Vibration    13          0.681              1.708              1.525
 Vibration    14          0.695              1.665              1.392
 Vibration    15          0.699              1.655              1.362
 Vibration    16          0.707              1.631              1.298
 Vibration    17          0.726              1.578              1.172
 Vibration    18          0.773              1.453              0.934
 Vibration    19          0.787              1.416              0.875
 Vibration    20          0.806              1.368              0.806
 Vibration    21          0.818              1.340              0.767
 Vibration    22          0.854              1.252              0.661
 Vibration    23          0.874              1.209              0.613
 Vibration    24          0.881              1.192              0.596
 Vibration    25          0.944              1.061              0.473
 Vibration    26          0.951              1.047              0.462

                           ! Non-Optimized Parameters !
 Normal termination of Gaussian 16 at Sat Feb 10 18:06:10 2024.
