 Gaussian 16, Revision A.03,
 Gaussian 16:  ES64L-G16RevA.03 25-Dec-2016

 --------------------------------------
 #P UB3LYP/6-311++G(d,p) nosym opt freq
 --------------------------------------

 --------
 Oxidized
 --------
 Symbolic Z-matrix:
 Charge =  0 Multiplicity = 1

 SCF Done:  E(UB3LYP) =  -1161.29254200     A.U. after   17 cycles
 SCF Done:  E(UB3LYP) =  -1161.29884015     A.U. after   17 cycles
 SCF Done:  E(UB3LYP) =  -1161.29984256     A.U. after   18 cycles
 SCF Done:  E(UB3LYP) =  -1161.29988985     A.U. after   16 cycles
 SCF Done:  E(UB3LYP) =  -1161.30004647     A.U. after   15 cycles
 SCF Done:  E(UB3LYP) =  -1161.30010746     A.U. after   14 cycles
 SCF Done:  E(UB3LYP) =  -1161.30011059     A.U. after   16 cycles
 SCF Done:  E(UB3LYP) =  -1161.30012258     A.U. after   13 cycles
 SCF Done:  E(UB3LYP) =  -1161.30012409     A.U. after   14 cycles
 SCF Done:  E(UB3LYP) =  -1161.30012449     A.U. after   13 cycles
 SCF Done:  E(UB3LYP) =  -1161.30012455     A.U. after   11 cycles
 Optimization completed.
    -- Stationary point found.
 Normal termination of Gaussian 16 at Wed Dec 20 02:36:18 2023.

 ----------------------------------------------------------------------
 #P Geom=AllCheck Guess=TCheck SCRF=Check GenChk UB3LYP/6-311++G(d,p) F
 req
 ----------------------------------------------------------------------

 Structure from the checkpoint file:  "066.chk"
 --------
 Oxidized
 --------
 Charge =  0 Multiplicity = 1

                          Input orientation:
 ---------------------------------------------------------------------
 Center     Atomic      Atomic             Coordinates (Angstroms)
 Number     Number       Type             X           Y           Z
 ---------------------------------------------------------------------
      1          6           0        1.209659   -0.645617    1.847459
      2          6           0        0.811977   -1.672077    0.848736
      3          6           0       -0.276107   -1.537244    0.080348
      4          6           0       -1.141785   -0.338578    0.182460
      5          6           0       -0.737410    0.715890    1.155223
      6          6           0        0.354513    0.577591    1.917101
      7          8           0        2.169446   -0.818321    2.573252
      8          8           0       -2.144816   -0.210574   -0.495454
      9         16           0        0.837109    1.982270    2.990350
     10          6           0        0.795710    1.339598    4.669282
     11          6           0       -0.398523    1.417098    5.385301
     12          6           0        1.960371    0.817508    5.227923
     13          6           0        1.918825    0.353279    6.540029
     14          6           0       -0.424992    0.942837    6.694192
     15          6           0        0.730586    0.412787    7.268310
     16          8           0        2.211477    2.337490    2.641639
     17          8           0       -0.253864    2.953812    2.857705
     18          1           0        1.458647   -2.541280    0.800739
     19          1           0       -0.579241   -2.286457   -0.642359
     20          1           0       -1.359689    1.602602    1.211301
     21          1           0       -1.276290    1.858682    4.930626
     22          1           0        2.869356    0.779157    4.643391
     23          1           0        2.815794   -0.051950    6.993263
     24          1           0       -1.342807    0.999092    7.267536
     25          1           0        0.705974    0.048946    8.289266
 ---------------------------------------------------------------------

 SCF Done:  E(UB3LYP) =  -1161.30012455     A.U. after    2 cycles

 Alpha  occ. eigenvalues --  -89.06987 -19.16273 -19.16226 -19.13197 -19.13155
 Alpha  occ. eigenvalues --  -10.31370 -10.30807 -10.25679 -10.24299 -10.23747
 Alpha  occ. eigenvalues --  -10.23597 -10.23038 -10.21267 -10.20941 -10.20785
 Alpha  occ. eigenvalues --  -10.20542 -10.20407  -8.13347  -6.09587  -6.09551
 Alpha  occ. eigenvalues --   -6.09466  -1.12837  -1.09520  -1.09153  -1.02401
 Alpha  occ. eigenvalues --   -0.89550  -0.89287  -0.82962  -0.79764  -0.78184
 Alpha  occ. eigenvalues --   -0.74137  -0.70637  -0.65984  -0.64508  -0.64087
 Alpha  occ. eigenvalues --   -0.60337  -0.56276  -0.54951  -0.53429  -0.52115
 Alpha  occ. eigenvalues --   -0.50130  -0.49770  -0.49362  -0.47572  -0.47206
 Alpha  occ. eigenvalues --   -0.47089  -0.46227  -0.45644  -0.45362  -0.44146
 Alpha  occ. eigenvalues --   -0.43540  -0.40375  -0.39857  -0.37981  -0.35625
 Alpha  occ. eigenvalues --   -0.34885  -0.33736  -0.33299  -0.32572  -0.32145
 Alpha  occ. eigenvalues --   -0.31076  -0.29512  -0.29001  -0.28541
 Alpha virt. eigenvalues --   -0.15941  -0.07473  -0.05117  -0.04173  -0.02812
 Alpha virt. eigenvalues --   -0.01641  -0.01014   0.00333   0.01071   0.01331
 Alpha virt. eigenvalues --    0.01699   0.02827   0.03237   0.03732   0.04510

  Beta  occ. eigenvalues --  -89.06987 -19.16273 -19.16226 -19.13197 -19.13155
  Beta  occ. eigenvalues --  -10.31370 -10.30807 -10.25679 -10.24299 -10.23747
  Beta  occ. eigenvalues --  -10.23597 -10.23038 -10.21267 -10.20941 -10.20785
  Beta  occ. eigenvalues --  -10.20542 -10.20407  -8.13347  -6.09587  -6.09551
  Beta  occ. eigenvalues --   -6.09466  -1.12837  -1.09520  -1.09153  -1.02401
  Beta  occ. eigenvalues --   -0.89550  -0.89287  -0.82962  -0.79764  -0.78184
  Beta  occ. eigenvalues --   -0.74137  -0.70637  -0.65984  -0.64508  -0.64087
  Beta  occ. eigenvalues --   -0.60337  -0.56276  -0.54951  -0.53429  -0.52115
  Beta  occ. eigenvalues --   -0.50130  -0.49770  -0.49362  -0.47572  -0.47206
  Beta  occ. eigenvalues --   -0.47089  -0.46227  -0.45644  -0.45362  -0.44146
  Beta  occ. eigenvalues --   -0.43540  -0.40375  -0.39857  -0.37981  -0.35625
  Beta  occ. eigenvalues --   -0.34885  -0.33736  -0.33299  -0.32572  -0.32145
  Beta  occ. eigenvalues --   -0.31076  -0.29512  -0.29001  -0.28541
  Beta virt. eigenvalues --   -0.15941  -0.07473  -0.05117  -0.04173  -0.02812
  Beta virt. eigenvalues --   -0.01641  -0.01014   0.00333   0.01071   0.01331
  Beta virt. eigenvalues --    0.01699   0.02827   0.03237   0.03732   0.04510

 Mulliken charges and spin densities:
               1          2
     1  C   -0.522371  -0.000000
     2  C   -0.215688  -0.000000
     3  C    0.234423   0.000000
     4  C   -0.562984  -0.000000
     5  C   -0.110080  -0.000000
     6  C    0.458474   0.000000
     7  O   -0.160025  -0.000000
     8  O   -0.197738  -0.000000
     9  S    0.347078  -0.000000
    10  C    0.604010  -0.000000
    11  C   -0.051713  -0.000000
    12  C   -0.286254   0.000000
    13  C   -0.390391   0.000000
    14  C   -0.478422   0.000000
    15  C   -0.286411   0.000000
    16  O   -0.081331  -0.000000
    17  O   -0.128272  -0.000000
    18  H    0.232479   0.000000
    19  H    0.232180   0.000000
    20  H    0.295147  -0.000000
    21  H    0.241379  -0.000000
    22  H    0.277077  -0.000000
    23  H    0.193262  -0.000000
    24  H    0.186881  -0.000000
    25  H    0.169290   0.000000
 Sum of Mulliken charges =  -0.00000   0.00000

 Dipole moment (field-independent basis, Debye):
    X=             -0.6937    Y=             -4.5681    Z=              2.4850  Tot=              5.2464
 Quadrupole moment (field-independent basis, Debye-Ang):
   XX=           -113.7883   YY=           -115.2222   ZZ=            -76.3817
   XY=             -5.8354   XZ=             -6.7603   YZ=             -6.8434

  Exact polarizability: 171.960 -11.698 130.168  36.603   3.878 207.197
 Approx polarizability: 352.629 -35.181 195.790  81.996 -19.940 302.214

                      1                      2                      3
                      A                      A                      A
 Frequencies --     30.9513                38.4844                59.3327
 Red. masses --      7.0651                 5.1061                 5.0394
 Frc consts  --      0.0040                 0.0045                 0.0105
 IR Inten    --      0.2819                 0.4789                 2.0895

                      4                      5                      6
                      A                      A                      A
 Frequencies --     88.7461               136.1147               151.9203
 Red. masses --      7.7986                 7.6199                 9.3460
 Frc consts  --      0.0362                 0.0832                 0.1271
 IR Inten    --      4.8404                 7.8257                 1.4118

                      7                      8                      9
                      A                      A                      A
 Frequencies --    180.8832               207.7869               232.4167
 Red. masses --      6.7621                 5.6724                 8.5907
 Frc consts  --      0.1304                 0.1443                 0.2734
 IR Inten    --      0.6687                 0.6908                 0.5139

                     10                     11                     12
                      A                      A                      A
 Frequencies --    274.6043               282.0934               302.7571
 Red. masses --      8.4086                 6.7032                 8.4157
 Frc consts  --      0.3736                 0.3143                 0.4545
 IR Inten    --      0.3715                 0.5814                 2.3303

                     13                     14                     15
                      A                      A                      A
 Frequencies --    377.6908               411.2361               423.1305
 Red. masses --      5.1582                 2.8789                 6.6491
 Frc consts  --      0.4335                 0.2868                 0.7014
 IR Inten    --      2.9582                 0.0499                 7.3698

                     16                     17                     18
                      A                      A                      A
 Frequencies --    426.9636               451.7498               466.9102
 Red. masses --      8.7488                 5.6675                 8.3396
 Frc consts  --      0.9397                 0.6815                 1.0712
 IR Inten    --     21.2895                 9.8539                 1.7045

                     19                     20                     21
                      A                      A                      A
 Frequencies --    511.8374               539.2700               592.0549
 Red. masses --      5.4945                 6.3266                 6.3203
 Frc consts  --      0.8481                 1.0840                 1.3053
 IR Inten    --     28.0900                57.5049                93.3825

                     22                     23                     24
                      A                      A                      A
 Frequencies --    614.1929               626.6060               648.0428
 Red. masses --      3.1065                 6.4314                 7.5950
 Frc consts  --      0.6904                 1.4878                 1.8792
 IR Inten    --     18.0149                 0.3509                35.5466

                     25                     26                     27
                      A                      A                      A
 Frequencies --    701.8489               720.6261               767.5157
 Red. masses --      2.0245                 6.5515                 1.6577
 Frc consts  --      0.5876                 2.0045                 0.5753
 IR Inten    --     42.5275                55.2166                21.9884

                     28                     29                     30
                      A                      A                      A
 Frequencies --    787.8679               793.0512               822.9827
 Red. masses --      4.1043                 5.4309                 5.7002
 Frc consts  --      1.5011                 2.0125                 2.2747
 IR Inten    --      0.3058                 2.6148                19.9411

                     31                     32                     33
                      A                      A                      A
 Frequencies --    848.5126               855.5476               947.5183
 Red. masses --      2.0488                 1.2441                 1.3538
 Frc consts  --      0.8691                 0.5365                 0.7161
 IR Inten    --     46.2106                 0.2252                 0.2854

                     34                     35                     36
                      A                      A                      A
 Frequencies --    963.6025               983.4999               994.1126
 Red. masses --      1.4802                 4.0800                 1.3826
 Frc consts  --      0.8098                 2.3252                 0.8050
 IR Inten    --     22.6278                 9.9588                 0.0849

                     37                     38                     39
                      A                      A                      A
 Frequencies --   1012.0856              1014.6996              1015.2420
 Red. masses --      1.3159                 5.6207                 1.2820
 Frc consts  --      0.7942                 3.4097                 0.7785
 IR Inten    --      0.0652                 3.9913                 0.1741

                     40                     41                     42
                      A                      A                      A
 Frequencies --   1041.1065              1071.2815              1101.8555
 Red. masses --      3.3866                 3.3431                 1.5685
 Frc consts  --      2.1628                 2.2605                 1.1220
 IR Inten    --      7.9639                55.3806                 7.6483

                     43                     44                     45
                      A                      A                      A
 Frequencies --   1106.0115              1118.7933              1185.9820
 Red. masses --      1.5855                 6.0037                 1.1213
 Frc consts  --      1.1427                 4.4276                 0.9292
 IR Inten    --     80.7641               165.0501                 0.2388

                     46                     47                     48
                      A                      A                      A
 Frequencies --   1201.1113              1202.5806              1276.8856
 Red. masses --      1.2172                 1.5068                 3.3325
 Frc consts  --      1.0346                 1.2839                 3.2012
 IR Inten    --      9.9334                 7.2403               123.7772

                     49                     50                     51
                      A                      A                      A
 Frequencies --   1286.1022              1330.7677              1333.9630
 Red. masses --     11.3717                 2.2043                 2.5296
 Frc consts  --     11.0822                 2.2999                 2.6521
 IR Inten    --    121.4005                22.2068                 6.3586

                     52                     53                     54
                      A                      A                      A
 Frequencies --   1347.9061              1386.3796              1477.0017
 Red. masses --      1.9357                 1.8441                 2.1480
 Frc consts  --      2.0720                 2.0883                 2.7609
 IR Inten    --      2.7334                 1.9393                16.8799

                     55                     56                     57
                      A                      A                      A
 Frequencies --   1506.4673              1621.5487              1624.2035
 Red. masses --      2.0114                 5.2975                 5.7621
 Frc consts  --      2.6895                 8.2069                 8.9559
 IR Inten    --      3.1749                 3.5120                 0.3222

                     58                     59                     60
                      A                      A                      A
 Frequencies --   1637.9459              1675.4353              1728.0689
 Red. masses --      8.5437                 8.2940                10.4160
 Frc consts  --     13.5050                13.7173                18.3262
 IR Inten    --     22.2045                 1.5779                12.6262

                     61                     62                     63
                      A                      A                      A
 Frequencies --   1733.6946              3170.6194              3179.0176
 Red. masses --     11.7484                 1.0865                 1.0876
 Frc consts  --     20.8053                 6.4356                 6.4762
 IR Inten    --    417.4927                 0.6800                 0.2157

                     64                     65                     66
                      A                      A                      A
 Frequencies --   3183.0489              3189.6641              3191.8221
 Red. masses --      1.0901                 1.0921                 1.0948
 Frc consts  --      6.5070                 6.5464                 6.5713
 IR Inten    --      8.9741                 7.0040                 9.3437

                     67                     68                     69
                      A                      A                      A
 Frequencies --   3196.2500              3203.7234              3220.3172
 Red. masses --      1.0993                 1.0946                 1.0935
 Frc consts  --      6.6168                 6.6191                 6.6812
 IR Inten    --      1.9393                 4.6230                 4.1014

 - Thermochemistry -
 -------------------
 Temperature   298.150 Kelvin.  Pressure   1.00000 Atm.
 Atom     1 has atomic number  6 and mass  12.00000

 Molecular mass:   248.01433 amu.
 Principal axes and moments of inertia in atomic units:
                           1         2         3
     Eigenvalues --  2329.639146194.149416552.35795
           X            0.24993  -0.51069   0.82264
           Y            0.25447   0.85438   0.45308
           Z            0.93423  -0.09610  -0.34349
 This molecule is an asymmetric top.
 Rotational symmetry number  1.
 Warning -- assumption of classical behavior for rotation
           may cause significant error
 Rotational temperatures (Kelvin)      0.03718     0.01398     0.01322
 Rotational constants (GHZ):           0.77469     0.29136     0.27543
 Zero-point vibrational energy     459569.6 (Joules/Mol)
                                  109.83978 (Kcal/Mol)
 Warning -- explicit consideration of  22 degrees of freedom as
           vibrations may cause significant error
 Vibrational temperatures:     44.53    55.37    85.37   127.69   195.84
          (Kelvin)            218.58   260.25   298.96   334.40   395.09
                              405.87   435.60   543.41   591.68   608.79
                              614.31   649.97   671.78   736.42   775.89
                              851.83   883.69   901.55   932.39  1009.80
                             1036.82  1104.28  1133.57  1141.02  1184.09
                             1220.82  1230.94  1363.27  1386.41  1415.04
                             1430.31  1456.17  1459.93  1460.71  1497.92
                             1541.34  1585.32  1591.30  1609.69  1706.36
                             1728.13  1730.25  1837.15  1850.41  1914.68
                             1919.28  1939.34  1994.69  2125.08  2167.47
                             2333.05  2336.87  2356.64  2410.58  2486.31
                             2494.40  4561.81  4573.90  4579.70  4589.22
                             4592.32  4598.69  4609.44  4633.32

 Zero-point correction=                           0.175041 (Hartree/Particle)
 Thermal correction to Energy=                    0.189382
 Thermal correction to Enthalpy=                  0.190326
 Thermal correction to Gibbs Free Energy=         0.132314
 Sum of electronic and zero-point Energies=          -1161.125084
 Sum of electronic and thermal Energies=             -1161.110743
 Sum of electronic and thermal Enthalpies=           -1161.109798
 Sum of electronic and thermal Free Energies=        -1161.167811

                     E (Thermal)             CV                S
                      KCal/Mol        Cal/Mol-Kelvin    Cal/Mol-Kelvin
 Total                  118.839             54.506            122.097
 Electronic               0.000              0.000              0.000
 Translational            0.889              2.981             42.426
 Rotational               0.889              2.981             32.914
 Vibrational            117.062             48.545             46.758
 Vibration     1          0.594              1.984              5.767
 Vibration     2          0.594              1.982              5.336
 Vibration     3          0.597              1.974              4.479
 Vibration     4          0.602              1.957              3.688
 Vibration     5          0.614              1.917              2.858
 Vibration     6          0.619              1.901              2.648
 Vibration     7          0.630              1.866              2.319
 Vibration     8          0.641              1.829              2.063
 Vibration     9          0.653              1.791              1.860
 Vibration    10          0.677              1.720              1.567
 Vibration    11          0.681              1.707              1.521
 Vibration    12          0.694              1.668              1.402
 Vibration    13          0.748              1.518              1.048
 Vibration    14          0.775              1.446              0.922
 Vibration    15          0.785              1.420              0.881
 Vibration    16          0.789              1.412              0.869
 Vibration    17          0.810              1.357              0.790
 Vibration    18          0.824              1.323              0.746
 Vibration    19          0.867              1.224              0.629
 Vibration    20          0.894              1.163              0.567
 Vibration    21          0.950              1.049              0.464
 Vibration    22          0.974              1.002              0.426

 Optimization completed.
    -- Stationary point found.
 Normal termination of Gaussian 16 at Wed Dec 20 03:20:01 2023.
