 Gaussian 16, Revision A.03,
 Gaussian 16:  ES64L-G16RevA.03 25-Dec-2016

 ----------------------------------------------------------------------
 #P UB3LYP/6-311++G(d,p) nosym opt freq SCRF=(PCM,Solvent=n,n-DiMethylF
 ormamide)
 ----------------------------------------------------------------------

 -------
 Radical
 -------
 Symbolic Z-matrix:
 Charge = -1 Multiplicity = 2

 SCF Done:  E(UB3LYP) =  -727.394329147     A.U. after   18 cycles
 SCF Done:  E(UB3LYP) =  -727.394779728     A.U. after   16 cycles
 SCF Done:  E(UB3LYP) =  -727.394848621     A.U. after   14 cycles
 SCF Done:  E(UB3LYP) =  -727.394852815     A.U. after   12 cycles
 SCF Done:  E(UB3LYP) =  -727.394853729     A.U. after   11 cycles
 SCF Done:  E(UB3LYP) =  -727.394853881     A.U. after   11 cycles
 SCF Done:  E(UB3LYP) =  -727.394853926     A.U. after   11 cycles
 SCF Done:  E(UB3LYP) =  -727.394853947     A.U. after   11 cycles
 Optimization completed.
    -- Stationary point found.
 Normal termination of Gaussian 16 at Sat Feb 10 11:11:13 2024.

 ----------------------------------------------------------------------
 #P Geom=AllCheck Guess=TCheck SCRF=Check GenChk UB3LYP/6-311++G(d,p) F
 req
 ----------------------------------------------------------------------

 Structure from the checkpoint file:  "065-rad.chk"
 -------
 Radical
 -------
 Charge = -1 Multiplicity = 2

                          Input orientation:
 ---------------------------------------------------------------------
 Center     Atomic      Atomic             Coordinates (Angstroms)
 Number     Number       Type             X           Y           Z
 ---------------------------------------------------------------------
      1          6           0       -1.353913   -2.044038    1.137344
      2          6           0       -1.403060   -1.992429   -0.303840
      3          6           0       -0.766219   -1.016901   -1.023445
      4          6           0       -0.002051    0.025623   -0.377963
      5          6           0        0.048374   -0.023963    1.066993
      6          6           0       -0.585788   -0.996120    1.794549
      7          8           0       -1.944838   -2.950148    1.806898
      8          8           0        0.593171    0.935886   -1.038727
      9          6           0       -0.545100   -1.063455    3.297712
     10          8           0        0.243528    0.009362    3.817099
     11          6           0        0.399255    0.113457    5.169432
     12          6           0       -0.167836   -0.760381    6.103397
     13          6           0        1.189750    1.184870    5.609654
     14          6           0        1.408994    1.377289    6.968007
     15          6           0        0.062385   -0.552766    7.466831
     16          6           0        0.846324    0.508883    7.908880
     17          1           0       -1.973732   -2.769644   -0.803814
     18          1           0       -0.818721   -1.000727   -2.108074
     19          1           0        0.617099    0.749943    1.569643
     20          1           0       -0.124776   -2.024529    3.616930
     21          1           0       -1.563186   -1.008582    3.701546
     22          1           0       -0.781023   -1.593539    5.788776
     23          1           0        1.621473    1.852216    4.872786
     24          1           0        2.022601    2.209608    7.294680
     25          1           0       -0.381458   -1.235417    8.183148
     26          1           0        1.018676    0.660791    8.967825
 ---------------------------------------------------------------------

 SCF Done:  E(UB3LYP) =  -727.394853947     A.U. after    1 cycles

 Alpha  occ. eigenvalues --  -19.15760 -19.07871 -19.07737 -10.24148 -10.22837
 Alpha  occ. eigenvalues --  -10.22108 -10.21944 -10.18095 -10.18053 -10.17743
 Alpha  occ. eigenvalues --  -10.17697 -10.17550 -10.17251 -10.16431 -10.16336
 Alpha  occ. eigenvalues --  -10.16141  -1.07333  -0.99746  -0.99330  -0.86055
 Alpha  occ. eigenvalues --   -0.82814  -0.77856  -0.75524  -0.74068  -0.70243
 Alpha  occ. eigenvalues --   -0.67131  -0.61927  -0.61091  -0.58145  -0.56234
 Alpha  occ. eigenvalues --   -0.54065  -0.49573  -0.48262  -0.48062  -0.46626
 Alpha  occ. eigenvalues --   -0.46255  -0.44947  -0.43783  -0.42757  -0.41581
 Alpha  occ. eigenvalues --   -0.40893  -0.40229  -0.38652  -0.38191  -0.37105
 Alpha  occ. eigenvalues --   -0.36911  -0.36419  -0.35835  -0.33348  -0.33043
 Alpha  occ. eigenvalues --   -0.28193  -0.26407  -0.25607  -0.24415  -0.23949
 Alpha  occ. eigenvalues --   -0.23235  -0.16457
 Alpha virt. eigenvalues --   -0.02134  -0.00933  -0.00606  -0.00422   0.00502
 Alpha virt. eigenvalues --    0.01021   0.01674   0.02322   0.02497   0.03427
 Alpha virt. eigenvalues --    0.03467   0.03807   0.04131   0.05983   0.06330

  Beta  occ. eigenvalues --  -19.15761 -19.07179 -19.07011 -10.24148 -10.22846
  Beta  occ. eigenvalues --  -10.21950 -10.21813 -10.18095 -10.18053 -10.17743
  Beta  occ. eigenvalues --  -10.17596 -10.17550 -10.17251 -10.16326 -10.16210
  Beta  occ. eigenvalues --  -10.16044  -1.07334  -0.98529  -0.98043  -0.86044
  Beta  occ. eigenvalues --   -0.82245  -0.77658  -0.75514  -0.73955  -0.69872
  Beta  occ. eigenvalues --   -0.66300  -0.61846  -0.60950  -0.57924  -0.55896
  Beta  occ. eigenvalues --   -0.53987  -0.49535  -0.48112  -0.47953  -0.46341
  Beta  occ. eigenvalues --   -0.45988  -0.44896  -0.43526  -0.42708  -0.41511
  Beta  occ. eigenvalues --   -0.39731  -0.39578  -0.37968  -0.37670  -0.36829
  Beta  occ. eigenvalues --   -0.36268  -0.35612  -0.34431  -0.33319  -0.32768
  Beta  occ. eigenvalues --   -0.26389  -0.24962  -0.24637  -0.23755  -0.23306
  Beta  occ. eigenvalues --   -0.23221
  Beta virt. eigenvalues --   -0.09133  -0.02088  -0.00672  -0.00413   0.00451
  Beta virt. eigenvalues --    0.00524   0.01039   0.01683   0.02347   0.03438
  Beta virt. eigenvalues --    0.03477   0.03824   0.04158   0.04670   0.06023

 Mulliken charges and spin densities:
               1          2
     1  C   -1.151900   0.027021
     2  C    0.198704   0.126350
     3  C    0.079051   0.092770
     4  C   -0.454744   0.146914
     5  C   -0.395271   0.028607
     6  C    0.653558   0.089994
     7  O   -0.488511   0.250650
     8  O   -0.509065   0.252563
     9  C   -0.107603  -0.000663
    10  O   -0.122793   0.000042
    11  C    0.450415  -0.002581
    12  C    0.003892  -0.000806
    13  C   -0.108952   0.000876
    14  C   -0.261059   0.000511
    15  C   -0.336796  -0.000050
    16  C   -0.391190  -0.000267
    17  H    0.184300  -0.007757
    18  H    0.189017  -0.007652
    19  H    0.181685  -0.007690
    20  H    0.226568   0.005595
    21  H    0.227048   0.005730
    22  H    0.173162  -0.000171
    23  H    0.179021   0.000026
    24  H    0.200871  -0.000014
    25  H    0.211440  -0.000008
    26  H    0.169153   0.000009
 Sum of Mulliken charges =  -1.00000   1.00000

 Dipole moment (field-independent basis, Debye):
    X=              2.1452    Y=              3.2822    Z=             -1.9170  Tot=              4.3646
 Quadrupole moment (field-independent basis, Debye-Ang):
   XX=           -107.8004   YY=           -118.1510   ZZ=           -102.9462
   XY=            -11.4478   XZ=              9.0101   YZ=             13.2249

  Exact polarizability: 188.424  83.834 252.673 -12.419 -32.959 306.595
 Approx polarizability: 214.972  99.457 292.361 -23.080 -48.363 324.756

                      1                      2                      3
                      A                      A                      A
 Frequencies --     27.1222                35.2466                66.8731
 Red. masses --      4.1929                 5.5279                 6.3722
 Frc consts  --      0.0018                 0.0040                 0.0168
 IR Inten    --      0.2207                 0.0102                 0.1037

                      4                      5                      6
                      A                      A                      A
 Frequencies --     93.8491               130.0495               184.0933
 Red. masses --      4.3540                 6.2272                 6.9853
 Frc consts  --      0.0226                 0.0621                 0.1395
 IR Inten    --      0.2386                31.5887                 2.3241

                      7                      8                      9
                      A                      A                      A
 Frequencies --    202.7825               231.1945               235.8826
 Red. masses --      2.8798                 7.4612                 5.2115
 Frc consts  --      0.0698                 0.2350                 0.1708
 IR Inten    --      2.7733                 7.5609                 0.1691

                     10                     11                     12
                      A                      A                      A
 Frequencies --    324.7108               405.5436               419.6637
 Red. masses --      5.4302                 9.9881                 3.1078
 Frc consts  --      0.3373                 0.9679                 0.3225
 IR Inten    --      0.4436                26.8414                 2.5892

                     13                     14                     15
                      A                      A                      A
 Frequencies --    423.8624               449.2882               475.5122
 Red. masses --      3.0586                 5.5684                10.1243
 Frc consts  --      0.3238                 0.6623                 1.3488
 IR Inten    --      1.0498                 4.3642                 0.1454

                     16                     17                     18
                      A                      A                      A
 Frequencies --    517.2420               518.1046               591.3874
 Red. masses --      2.7656                 6.4233                 2.2944
 Frc consts  --      0.4359                 1.0159                 0.4728
 IR Inten    --     17.6015                 0.9957                 4.3968

                     19                     20                     21
                      A                      A                      A
 Frequencies --    594.4374               619.4448               627.9466
 Red. masses --      5.3261                 6.4876                 6.4019
 Frc consts  --      1.1088                 1.4667                 1.4873
 IR Inten    --      0.7300                 5.2346                 1.1950

                     22                     23                     24
                      A                      A                      A
 Frequencies --    701.6183               746.4935               747.7317
 Red. masses --      2.0607                 5.0040                 5.8097
 Frc consts  --      0.5977                 1.6429                 1.9138
 IR Inten    --     48.2491                 0.4886                29.3315

                     25                     26                     27
                      A                      A                      A
 Frequencies --    763.7651               806.7780               810.2854
 Red. masses --      1.7325                 6.0471                 1.5713
 Frc consts  --      0.5955                 2.3190                 0.6078
 IR Inten    --    112.6788                80.1462                32.5108

                     28                     29                     30
                      A                      A                      A
 Frequencies --    828.4222               857.2968               891.6400
 Red. masses --      1.2555                 6.5503                 1.5179
 Frc consts  --      0.5076                 2.8364                 0.7110
 IR Inten    --      1.6890                24.3049                52.4707

                     31                     32                     33
                      A                      A                      A
 Frequencies --    894.6606               948.0509               952.1893
 Red. masses --      1.4593                 2.7333                 1.2820
 Frc consts  --      0.6882                 1.4474                 0.6849
 IR Inten    --     28.0545                 4.9647                 0.5355

                     34                     35                     36
                      A                      A                      A
 Frequencies --    975.5421               992.2604              1005.8378
 Red. masses --      1.3451                 1.2642                 5.9620
 Frc consts  --      0.7542                 0.7334                 3.5539
 IR Inten    --      0.0343                 0.0665                 1.9915

                     37                     38                     39
                      A                      A                      A
 Frequencies --   1028.0951              1029.8400              1047.1070
 Red. masses --      1.8179                 4.0528                 2.3651
 Frc consts  --      1.1321                 2.5324                 1.5279
 IR Inten    --      9.1613                77.7923               112.0528

                     40                     41                     42
                      A                      A                      A
 Frequencies --   1097.8878              1107.3364              1151.7641
 Red. masses --      1.6971                 1.7957                 1.9088
 Frc consts  --      1.2052                 1.2973                 1.4919
 IR Inten    --      1.0766                49.9650                73.0424

                     43                     44                     45
                      A                      A                      A
 Frequencies --   1172.2341              1191.4267              1224.4974
 Red. masses --      1.1062                 1.1596                 2.6192
 Frc consts  --      0.8956                 0.9699                 2.3139
 IR Inten    --      5.6981                42.6501                12.7376

                     46                     47                     48
                      A                      A                      A
 Frequencies --   1253.5305              1254.0750              1255.9906
 Red. masses --      1.6977                 1.0884                 4.2081
 Frc consts  --      1.5717                 1.0085                 3.9112
 IR Inten    --      5.1487                 7.7789               587.5453

                     49                     50                     51
                      A                      A                      A
 Frequencies --   1323.5777              1338.8686              1354.5745
 Red. masses --      2.9094                 2.1356                 1.7003
 Frc consts  --      3.0029                 2.2556                 1.8382
 IR Inten    --     14.4842                69.8986                14.2413

                     52                     53                     54
                      A                      A                      A
 Frequencies --   1403.6764              1451.7205              1470.2374
 Red. masses --      1.8409                 4.0543                 5.8374
 Frc consts  --      2.1370                 5.0342                 7.4343
 IR Inten    --    133.0487               144.0401                13.3486

                     55                     56                     57
                      A                      A                      A
 Frequencies --   1481.1246              1486.4125              1503.5762
 Red. masses --      2.0293                 1.3307                 4.9239
 Frc consts  --      2.6229                 1.7322                 6.5586
 IR Inten    --     16.6682                33.3401              1225.3693

                     58                     59                     60
                      A                      A                      A
 Frequencies --   1519.4424              1530.7674              1617.2562
 Red. masses --      2.2817                 3.8989                 5.8324
 Frc consts  --      3.1037                 5.3828                 8.9879
 IR Inten    --    184.2628                29.8575                63.8537

                     61                     62                     63
                      A                      A                      A
 Frequencies --   1633.8138              1649.6940              3002.7819
 Red. masses --      5.7180                 6.9816                 1.0552
 Frc consts  --      8.9929                11.1947                 5.6059
 IR Inten    --    120.2615                 0.9657                40.1231

                     64                     65                     66
                      A                      A                      A
 Frequencies --   3032.0796              3144.7694              3163.7366
 Red. masses --      1.1057                 1.0859                 1.0952
 Frc consts  --      5.9889                 6.3273                 6.4589
 IR Inten    --     40.7381                32.8531                37.8004

                     67                     68                     69
                      A                      A                      A
 Frequencies --   3164.7240              3171.3328              3180.1854
 Red. masses --      1.0857                 1.0893                 1.0894
 Frc consts  --      6.4065                 6.4548                 6.4914
 IR Inten    --      2.4254                15.9737                11.4230

                     70                     71                     72
                      A                      A                      A
 Frequencies --   3184.1629              3191.8240              3210.0878
 Red. masses --      1.0925                 1.0971                 1.0923
 Frc consts  --      6.5264                 6.5850                 6.6315
 IR Inten    --     31.7161                18.4884                 6.1138

 - Thermochemistry -
 -------------------
 Temperature   298.150 Kelvin.  Pressure   1.00000 Atm.
 Atom     1 has atomic number  6 and mass  12.00000

 Molecular mass:   214.06299 amu.
 Principal axes and moments of inertia in atomic units:
                           1         2         3
     Eigenvalues --  1436.021417441.140378865.91544
           X            0.18507   0.54513   0.81767
           Y            0.18007   0.79914  -0.57354
           Z            0.96609  -0.25338  -0.04973
 This molecule is an asymmetric top.
 Rotational symmetry number  1.
 Warning -- assumption of classical behavior for rotation
           may cause significant error
 Rotational temperatures (Kelvin)      0.06032     0.01164     0.00977
 Rotational constants (GHZ):           1.25676     0.24254     0.20356
 Zero-point vibrational energy     515118.1 (Joules/Mol)
                                  123.11618 (Kcal/Mol)
 Warning -- explicit consideration of  20 degrees of freedom as
           vibrations may cause significant error
 Vibrational temperatures:     39.02    50.71    96.22   135.03   187.11
          (Kelvin)            264.87   291.76   332.64   339.38   467.19
                              583.49   603.80   609.84   646.43   684.16
                              744.20   745.44   850.87   855.26   891.24
                              903.48  1009.47  1074.04  1075.82  1098.89
                             1160.77  1165.82  1191.91  1233.46  1282.87
                             1287.22  1364.03  1369.99  1403.59  1427.64
                             1447.18  1479.20  1481.71  1506.55  1579.62
                             1593.21  1657.13  1686.58  1714.20  1761.78
                             1803.55  1804.33  1807.09  1904.33  1926.33
                             1948.93  2019.58  2088.70  2115.34  2131.01
                             2138.62  2163.31  2186.14  2202.43  2326.87
                             2350.69  2373.54  4320.33  4362.49  4524.62
                             4551.91  4553.33  4562.84  4575.58  4581.30
                             4592.32  4618.60

 Zero-point correction=                           0.196198 (Hartree/Particle)
 Thermal correction to Energy=                    0.209323
 Thermal correction to Enthalpy=                  0.210267
 Thermal correction to Gibbs Free Energy=         0.153903
 Sum of electronic and zero-point Energies=           -727.198656
 Sum of electronic and thermal Energies=              -727.185531
 Sum of electronic and thermal Enthalpies=            -727.184587
 Sum of electronic and thermal Free Energies=         -727.240951

                     E (Thermal)             CV                S
                      KCal/Mol        Cal/Mol-Kelvin    Cal/Mol-Kelvin
 Total                  131.352             50.773            118.628
 Electronic               0.000              0.000              1.377
 Translational            0.889              2.981             41.987
 Rotational               0.889              2.981             32.916
 Vibrational            129.575             44.811             42.349
 Vibration     1          0.593              1.984              6.030
 Vibration     2          0.594              1.982              5.510
 Vibration     3          0.598              1.970              4.243
 Vibration     4          0.603              1.954              3.578
 Vibration     5          0.612              1.923              2.945
 Vibration     6          0.631              1.862              2.286
 Vibration     7          0.639              1.836              2.108
 Vibration     8          0.653              1.793              1.870
 Vibration     9          0.655              1.786              1.834
 Vibration    10          0.709              1.626              1.286
 Vibration    11          0.771              1.458              0.942
 Vibration    12          0.782              1.428              0.893
 Vibration    13          0.786              1.418              0.879
 Vibration    14          0.808              1.362              0.798
 Vibration    15          0.832              1.304              0.722
 Vibration    16          0.872              1.212              0.616
 Vibration    17          0.873              1.210              0.614
 Vibration    18          0.949              1.050              0.465
 Vibration    19          0.952              1.044              0.459
 Vibration    20          0.979              0.991              0.417

                           ! Non-Optimized Parameters !
 Normal termination of Gaussian 16 at Sat Feb 10 11:41:36 2024.
