 Gaussian 16, Revision A.03,
 Gaussian 16:  ES64L-G16RevA.03 25-Dec-2016

 --------------------------------------
 #P UB3LYP/6-311++G(d,p) nosym opt freq
 --------------------------------------

 --------
 Oxidized
 --------
 Symbolic Z-matrix:
 Charge =  0 Multiplicity = 1

 SCF Done:  E(UB3LYP) =  -573.542502792     A.U. after   18 cycles
 SCF Done:  E(UB3LYP) =  -573.547033586     A.U. after   14 cycles
 SCF Done:  E(UB3LYP) =  -573.545374268     A.U. after   14 cycles
 SCF Done:  E(UB3LYP) =  -573.550330115     A.U. after   13 cycles
 SCF Done:  E(UB3LYP) =  -573.551012058     A.U. after   14 cycles
 SCF Done:  E(UB3LYP) =  -573.551113183     A.U. after   14 cycles
 SCF Done:  E(UB3LYP) =  -573.553138561     A.U. after   17 cycles
 SCF Done:  E(UB3LYP) =  -573.554895055     A.U. after   15 cycles
 SCF Done:  E(UB3LYP) =  -573.563414887     A.U. after   15 cycles
 SCF Done:  E(UB3LYP) =  -573.566374236     A.U. after   17 cycles
 SCF Done:  E(UB3LYP) =  -573.574677147     A.U. after   12 cycles
 SCF Done:  E(UB3LYP) =  -573.574679799     A.U. after   12 cycles
 SCF Done:  E(UB3LYP) =  -573.574689076     A.U. after   12 cycles
 SCF Done:  E(UB3LYP) =  -573.574683724     A.U. after   12 cycles
 SCF Done:  E(UB3LYP) =  -573.574705111     A.U. after   12 cycles
 SCF Done:  E(UB3LYP) =  -573.574716011     A.U. after   12 cycles
 SCF Done:  E(UB3LYP) =  -573.574718492     A.U. after   12 cycles
 SCF Done:  E(UB3LYP) =  -573.574718606     A.U. after   10 cycles
 SCF Done:  E(UB3LYP) =  -573.574718638     A.U. after    8 cycles
 Optimization completed.
    -- Stationary point found.
 Normal termination of Gaussian 16 at Sun Dec 17 22:10:04 2023.

 ----------------------------------------------------------------------
 #P Geom=AllCheck Guess=TCheck SCRF=Check GenChk UB3LYP/6-311++G(d,p) F
 req
 ----------------------------------------------------------------------

 Structure from the checkpoint file:  "057.chk"
 --------
 Oxidized
 --------
 Charge =  0 Multiplicity = 1

                          Input orientation:
 ---------------------------------------------------------------------
 Center     Atomic      Atomic             Coordinates (Angstroms)
 Number     Number       Type             X           Y           Z
 ---------------------------------------------------------------------
      1          6           0       -0.226958    1.000256    0.130553
      2          6           0       -1.415069    0.204946   -0.260282
      3          6           0       -1.348496   -1.124607   -0.377077
      4          6           0       -0.083698   -1.852314   -0.123604
      5          6           0        1.144760   -1.064671    0.243741
      6          6           0        1.056685    0.279867    0.374353
      7          8           0       -0.307150    2.215615    0.228170
      8          8           0       -0.040803   -3.067354   -0.214246
      9          6           0        2.264983    1.130749    0.730773
     10          6           0        2.193524    1.948482    1.996372
     11          8           0        3.243749    1.110079    0.017554
     12          1           0       -2.321527    0.771405   -0.442555
     13          1           0       -2.198118   -1.736777   -0.658227
     14          1           0        1.909339    1.314518    2.842676
     15          1           0        1.422124    2.714702    1.889609
     16          1           0        3.161039    2.412962    2.184084
     17          6           0        2.386831   -1.878924    0.444886
     18          1           0        2.709078   -2.300951   -0.512140
     19          1           0        2.174864   -2.728527    1.097736
     20          1           0        3.208231   -1.291215    0.846704
 ---------------------------------------------------------------------

 SCF Done:  E(UB3LYP) =  -573.574718638     A.U. after    1 cycles

 Alpha  occ. eigenvalues --  -19.15201 -19.15124 -19.13738 -10.29985 -10.29660
 Alpha  occ. eigenvalues --  -10.28927 -10.23918 -10.22722 -10.22717 -10.22630
 Alpha  occ. eigenvalues --  -10.18829 -10.18529  -1.08422  -1.08197  -1.07123
 Alpha  occ. eigenvalues --   -0.88250  -0.82782  -0.77485  -0.73971  -0.70686
 Alpha  occ. eigenvalues --   -0.65798  -0.61256  -0.56614  -0.54563  -0.51483
 Alpha  occ. eigenvalues --   -0.49711  -0.47795  -0.47730  -0.46074  -0.45560
 Alpha  occ. eigenvalues --   -0.45118  -0.44640  -0.43793  -0.41913  -0.41705
 Alpha  occ. eigenvalues --   -0.41232  -0.40425  -0.37860  -0.32484  -0.30774
 Alpha  occ. eigenvalues --   -0.30112  -0.29696  -0.26984
 Alpha virt. eigenvalues --   -0.14693  -0.06351  -0.03220  -0.01453  -0.01019
 Alpha virt. eigenvalues --   -0.00254   0.00698   0.02226   0.02386   0.02849
 Alpha virt. eigenvalues --    0.04013   0.04586   0.05248   0.05572   0.06608

  Beta  occ. eigenvalues --  -19.15201 -19.15124 -19.13738 -10.29985 -10.29660
  Beta  occ. eigenvalues --  -10.28927 -10.23918 -10.22722 -10.22717 -10.22630
  Beta  occ. eigenvalues --  -10.18829 -10.18529  -1.08422  -1.08197  -1.07123
  Beta  occ. eigenvalues --   -0.88250  -0.82782  -0.77485  -0.73971  -0.70686
  Beta  occ. eigenvalues --   -0.65798  -0.61256  -0.56614  -0.54563  -0.51483
  Beta  occ. eigenvalues --   -0.49711  -0.47795  -0.47730  -0.46074  -0.45560
  Beta  occ. eigenvalues --   -0.45118  -0.44640  -0.43793  -0.41913  -0.41705
  Beta  occ. eigenvalues --   -0.41232  -0.40425  -0.37860  -0.32484  -0.30774
  Beta  occ. eigenvalues --   -0.30112  -0.29696  -0.26984
  Beta virt. eigenvalues --   -0.14693  -0.06351  -0.03220  -0.01453  -0.01019
  Beta virt. eigenvalues --   -0.00254   0.00698   0.02226   0.02386   0.02849
  Beta virt. eigenvalues --    0.04013   0.04586   0.05248   0.05572   0.06608

 Mulliken charges and spin densities:
               1          2
     1  C   -0.601763  -0.000000
     2  C   -0.010288   0.000000
     3  C    0.169325  -0.000000
     4  C   -0.584311   0.000000
     5  C    0.235129  -0.000000
     6  C    1.038397   0.000000
     7  O   -0.225081   0.000000
     8  O   -0.207142   0.000000
     9  C   -0.120267  -0.000000
    10  C   -0.592968  -0.000000
    11  O   -0.213169   0.000000
    12  H    0.228434   0.000000
    13  H    0.226447   0.000000
    14  H    0.142212  -0.000000
    15  H    0.215451  -0.000000
    16  H    0.181457   0.000000
    17  C   -0.435116   0.000000
    18  H    0.200180  -0.000000
    19  H    0.180490   0.000000
    20  H    0.172583  -0.000000
 Sum of Mulliken charges =  -0.00000   0.00000

 Dipole moment (field-independent basis, Debye):
    X=             -1.7021    Y=             -0.5238    Z=              1.7056  Tot=              2.4659
 Quadrupole moment (field-independent basis, Debye-Ang):
   XX=            -71.8663   YY=            -82.7786   ZZ=            -65.9139
   XY=             -2.5620   XZ=              6.2651   YZ=              1.5342

  Exact polarizability: 111.833   0.605 152.255   7.148  12.979  76.370
 Approx polarizability: 151.237  -9.169 296.295  -1.944  19.792 115.096

                      1                      2                      3
                      A                      A                      A
 Frequencies --     39.7733                71.4552                78.6034
 Red. masses --      3.0142                 4.6968                 5.3713
 Frc consts  --      0.0028                 0.0141                 0.0196
 IR Inten    --      3.4514                 3.1269                10.9842

                      4                      5                      6
                      A                      A                      A
 Frequencies --     94.2656               117.4281               172.0888
 Red. masses --      1.1287                 1.2257                 5.0130
 Frc consts  --      0.0059                 0.0100                 0.0875
 IR Inten    --      0.3886                 0.5316                 0.7574

                      7                      8                      9
                      A                      A                      A
 Frequencies --    196.2136               255.1340               286.7536
 Red. masses --      3.8153                 4.2106                 4.7559
 Frc consts  --      0.0865                 0.1615                 0.2304
 IR Inten    --      3.5880                 0.0562                 0.8704

                     10                     11                     12
                      A                      A                      A
 Frequencies --    340.0659               357.9326               416.1287
 Red. masses --      3.5153                 4.5245                 7.3005
 Frc consts  --      0.2395                 0.3415                 0.7448
 IR Inten    --      3.2149                 0.9204                16.9208

                     13                     14                     15
                      A                      A                      A
 Frequencies --    448.8783               478.5939               544.8071
 Red. masses --      6.9555                 4.9348                 4.2581
 Frc consts  --      0.8257                 0.6660                 0.7446
 IR Inten    --      3.0251                 2.3896                14.3539

                     16                     17                     18
                      A                      A                      A
 Frequencies --    565.8000               605.0372               620.4734
 Red. masses --      3.0742                 3.4175                 3.6853
 Frc consts  --      0.5798                 0.7371                 0.8359
 IR Inten    --      3.1682                 3.9932                 1.3843

                     19                     20                     21
                      A                      A                      A
 Frequencies --    651.0192               734.7078               793.2100
 Red. masses --      3.1455                 6.6203                 6.5612
 Frc consts  --      0.7855                 2.1055                 2.4323
 IR Inten    --      3.4977                10.1517                 0.6617

                     22                     23                     24
                      A                      A                      A
 Frequencies --    813.3195               853.7040               959.8208
 Red. masses --      3.1849                 1.9539                 3.4830
 Frc consts  --      1.2413                 0.8390                 1.8905
 IR Inten    --      2.4447                43.6785                13.5081

                     25                     26                     27
                      A                      A                      A
 Frequencies --    969.9008              1013.4284              1039.5550
 Red. masses --      2.2035                 1.2521                 1.7047
 Frc consts  --      1.2213                 0.7576                 1.0854
 IR Inten    --     34.3726                 0.0395                12.3032

                     28                     29                     30
                      A                      A                      A
 Frequencies --   1048.1736              1071.5319              1119.5562
 Red. masses --      1.6390                 2.4136                 1.6402
 Frc consts  --      1.0610                 1.6328                 1.2113
 IR Inten    --      0.5421                19.3686                27.9575

                     31                     32                     33
                      A                      A                      A
 Frequencies --   1147.9859              1212.7043              1298.3197
 Red. masses --      2.1220                 3.2040                 3.5990
 Frc consts  --      1.6476                 2.7762                 3.5743
 IR Inten    --      9.0886                71.8828               160.4668

                     34                     35                     36
                      A                      A                      A
 Frequencies --   1320.3495              1380.7922              1391.3352
 Red. masses --      3.3525                 1.3042                 2.0087
 Frc consts  --      3.4435                 1.4650                 2.2910
 IR Inten    --     22.1905                52.7151                 3.9309

                     37                     38                     39
                      A                      A                      A
 Frequencies --   1417.4510              1465.0541              1465.6984
 Red. masses --      1.2432                 1.0652                 1.0566
 Frc consts  --      1.4716                 1.3471                 1.3374
 IR Inten    --     22.7763                 4.2724                13.6245

                     40                     41                     42
                      A                      A                      A
 Frequencies --   1470.5133              1478.0445              1638.9072
 Red. masses --      1.0542                 1.0770                 7.7840
 Frc consts  --      1.3431                 1.3862                12.3187
 IR Inten    --     27.8701                 6.6020                25.9854

                     43                     44                     45
                      A                      A                      A
 Frequencies --   1679.2905              1711.1490              1723.6585
 Red. masses --      9.0835                10.3061                10.5980
 Frc consts  --     15.0922                17.7795                18.5514
 IR Inten    --      8.1018               268.0194               192.1632

                     46                     47                     48
                      A                      A                      A
 Frequencies --   1770.7153              3031.8043              3042.7613
 Red. masses --     10.9653                 1.0381                 1.0419
 Frc consts  --     20.2566                 5.6218                 5.6837
 IR Inten    --    175.2130                 3.2537                 1.5010

                     49                     50                     51
                      A                      A                      A
 Frequencies --   3091.5108              3099.2249              3140.7754
 Red. masses --      1.0948                 1.0950                 1.1040
 Frc consts  --      6.1650                 6.1971                 6.4164
 IR Inten    --      4.7479                 4.0386                 6.8988

                     52                     53                     54
                      A                      A                      A
 Frequencies --   3157.1076              3177.6331              3195.5144
 Red. masses --      1.1001                 1.0873                 1.0999
 Frc consts  --      6.4605                 6.4685                 6.6172
 IR Inten    --      4.5298                 0.6351                 2.2993

 - Thermochemistry -
 -------------------
 Temperature   298.150 Kelvin.  Pressure   1.00000 Atm.
 Atom     1 has atomic number  6 and mass  12.00000

 Molecular mass:   164.04734 amu.
 Principal axes and moments of inertia in atomic units:
                           1         2         3
     Eigenvalues --  1301.610932112.776593152.02684
           X            0.54202   0.81383  -0.20951
           Y            0.80363  -0.57487  -0.15396
           Z            0.24574   0.08492   0.96561
 This molecule is an asymmetric top.
 Rotational symmetry number  1.
 Warning -- assumption of classical behavior for rotation
           may cause significant error
 Rotational temperatures (Kelvin)      0.06654     0.04100     0.02748
 Rotational constants (GHZ):           1.38654     0.85420     0.57257
 Zero-point vibrational energy     390375.3 (Joules/Mol)
                                   93.30195 (Kcal/Mol)
 Warning -- explicit consideration of  18 degrees of freedom as
           vibrations may cause significant error
 Vibrational temperatures:     57.22   102.81   113.09   135.63   168.95
          (Kelvin)            247.60   282.31   367.08   412.57   489.28
                              514.99   598.72   645.84   688.59   783.86
                              814.06   870.51   892.72   936.67  1057.08
                             1141.25  1170.19  1228.29  1380.97  1395.47
                             1458.10  1495.69  1508.09  1541.70  1610.79
                             1651.70  1744.81  1867.99  1899.69  1986.65
                             2001.82  2039.40  2107.89  2108.81  2115.74
                             2126.58  2358.02  2416.12  2461.96  2479.96
                             2547.66  4362.09  4377.85  4447.99  4459.09
                             4518.88  4542.37  4571.91  4597.63

 Zero-point correction=                           0.148686 (Hartree/Particle)
 Thermal correction to Energy=                    0.160481
 Thermal correction to Enthalpy=                  0.161425
 Thermal correction to Gibbs Free Energy=         0.109974
 Sum of electronic and zero-point Energies=           -573.426033
 Sum of electronic and thermal Energies=              -573.414238
 Sum of electronic and thermal Enthalpies=            -573.413294
 Sum of electronic and thermal Free Energies=         -573.464744

                     E (Thermal)             CV                S
                      KCal/Mol        Cal/Mol-Kelvin    Cal/Mol-Kelvin
 Total                  100.703             41.993            108.287
 Electronic               0.000              0.000              0.000
 Translational            0.889              2.981             41.193
 Rotational               0.889              2.981             30.539
 Vibrational             98.926             36.032             36.554
 Vibration     1          0.594              1.981              5.270
 Vibration     2          0.598              1.968              4.113
 Vibration     3          0.600              1.964              3.925
 Vibration     4          0.603              1.953              3.570
 Vibration     5          0.608              1.935              3.142
 Vibration     6          0.626              1.877              2.413
 Vibration     7          0.636              1.845              2.168
 Vibration     8          0.666              1.754              1.695
 Vibration     9          0.684              1.698              1.493
 Vibration    10          0.720              1.595              1.212
 Vibration    11          0.733              1.559              1.131
 Vibration    12          0.779              1.435              0.905
 Vibration    13          0.808              1.363              0.799
 Vibration    14          0.835              1.298              0.714
 Vibration    15          0.900              1.151              0.555
 Vibration    16          0.922              1.105              0.512
 Vibration    17          0.964              1.021              0.441
 Vibration    18          0.981              0.989              0.416

 Optimization completed.
    -- Stationary point found.
 Normal termination of Gaussian 16 at Sun Dec 17 22:22:35 2023.
