 Q-Chem 5.4, Q-Chem, Inc., Pleasanton, CA (2021)
 Q-Chem 5.4.0 for Intel X86 EM64T Linux

User input:
--------------------------------------------------------------
$molecule
-2 1
Cl                 3.0130710000      2.8801070000      0.3392980000
C                  2.6106840000      1.1238870000      0.2620000000
C                  3.7199430000      0.3110220000      0.3433040000
C                  3.5579200000     -1.1014760000      0.2956470000
C                  2.2946710000     -1.6248290000      0.1693000000
C                  1.1351030000     -0.8122730000      0.0835640000
C                 -0.1300580000     -1.4956340000     -0.0465530000
O                 -0.2272940000     -2.7825910000     -0.0851380000
C                 -1.2791870000     -0.6298540000     -0.1301670000
C                 -2.5745130000     -1.1990330000     -0.2603610000
C                 -3.7127630000     -0.4260250000     -0.3451930000
C                 -3.6022560000      0.9932500000     -0.3021770000
C                 -2.3563370000      1.5742480000     -0.1761620000
C                 -1.1651370000      0.8104780000     -0.0864060000
C                  0.1002770000      1.5191210000      0.0442470000
O                  0.1354440000      2.7975450000      0.0771280000
C                  1.2675950000      0.6584810000      0.1297660000
H                  4.7026790000      0.7580640000      0.4425730000
H                  4.4316670000     -1.7470080000      0.3594810000
H                  2.1186570000     -2.6949040000      0.1283580000
H                 -2.6201080000     -2.2835250000     -0.2897320000
H                 -4.6906340000     -0.8956480000     -0.4444360000
H                 -4.4945580000      1.6140690000     -0.3682880000
H                 -2.2348650000      2.6525280000     -0.1400490000
$end
$rem
MAX_SCF_CYCLES=200
BASIS  =  6-311++G(d,p)
GUI  =  2
JOB_TYPE  =  SP
METHOD  =  B3LYP
SOLVENT_METHOD = COSMO
$end
$solvent
dielectric 37.219
opticaldielectric 1.43
$end

--------------------------------------------------------------

             Standard Nuclear Orientation (Angstroms)
    I     Atom           X                Y                Z
 ----------------------------------------------------------------
    1      Cl      3.1553965377    -1.8501053623    -0.0001268734
    2      C       2.3581738036    -0.2325037820    -0.0000436416
    3      C       3.2557526554     0.8125644364    -0.0000788041
    4      C       2.7725523006     2.1505444949     0.0000716031
    5      C       1.4171766016     2.3710363819     0.0001444122
    6      C       0.4703524990     1.3147599156     0.0000610884
    7      C      -0.9236721555     1.6905794277     0.0000079717
    8      O      -1.3146386594     2.9211675525    -0.0001392445
    9      C      -1.8480579073     0.5848784059    -0.0000161244
   10      C      -3.2453202679     0.8426429332    -0.0000594275
   11      C      -4.1804053902    -0.1702572162    -0.0000421686
   12      C      -3.7460256015    -1.5266192247    -0.0000473117
   13      C      -2.3943482697    -1.8071918541    -0.0000122576
   14      C      -1.4053785607    -0.7911716260     0.0000434970
   15      C      -0.0053003302    -1.1915447414     0.0001715142
   16      O       0.3230309073    -2.4280253915     0.0002186315
   17      C       0.9380632374    -0.0866867471     0.0000536415
   18      H       4.3193377047     0.6021891489    -0.0001847947
   19      H       3.4783467946     2.9788405117     0.0001293154
   20      H       0.9990336160     3.3724724033     0.0002852568
   21      H      -3.5392605664     1.8879484189    -0.0000453663
   22      H      -5.2444158567     0.0632130279    -0.0000478124
   23      H      -4.4756454270    -2.3351021643    -0.0000791203
   24      H      -2.0276510773    -2.8290922997    -0.0000596823
 ----------------------------------------------------------------

   11   -1148.5459511242      7.82e-06  Convergence criterion met
 Total energy in the final basis set =    -1148.5459511242
    6   -1148.8163010002      3.43e-06  Convergence criterion met
 Total energy in the final basis set =    -1148.8163010002

                    Orbital Energies (a.u.)
 --------------------------------------------------------------

 Alpha MOs
 -- Occupied --
******** -19.0278 -19.0259 -10.2176 -10.1883 -10.1801 -10.1584 -10.1580
-10.1550 -10.1537 -10.1526 -10.1497 -10.1496 -10.1495 -10.1471 -10.1433
-10.1429  -9.4456  -7.2098  -7.2010  -7.1998  -0.9505  -0.9441  -0.8597
 -0.8295  -0.8079  -0.7586  -0.7274  -0.7149  -0.7133  -0.6440  -0.6138
 -0.5969  -0.5572  -0.5279  -0.5148  -0.4997  -0.4487  -0.4456  -0.4389
 -0.4292  -0.4079  -0.4020  -0.3933  -0.3850  -0.3781  -0.3748  -0.3602
 -0.3598  -0.3376  -0.3293  -0.3234  -0.3197  -0.3088  -0.3033  -0.2977
 -0.2374  -0.2335  -0.2284  -0.2232  -0.2098  -0.1987  -0.1141

          Ground-State Mulliken Net Atomic Charges

     Atom                 Charge (a.u.)
  ----------------------------------------
      1 Cl                    0.292575
      2 C                     0.930463
      3 C                    -0.146463
      4 C                    -0.676044
      5 C                     0.191568
      6 C                     0.195793
      7 C                    -0.647573
      8 O                    -0.696014
      9 C                     0.034309
     10 C                     0.029576
     11 C                    -0.481950
     12 C                    -0.510068
     13 C                     0.100648
     14 C                     0.046965
     15 C                    -1.259714
     16 O                    -0.572749
     17 C                    -0.062385
     18 H                     0.198442
     19 H                     0.185179
     20 H                     0.162643
     21 H                     0.159841
     22 H                     0.181582
     23 H                     0.182320
     24 H                     0.161058
  ----------------------------------------
  Sum of atomic charges =    -2.000000

                    Cartesian Multipole Moments
 -----------------------------------------------------------------
    Charge (ESU x 10^10)
                -9.6064
    Dipole Moment (Debye)
         X       2.3823      Y      -0.8344      Z      -0.0022
       Tot       2.5242
    Quadrupole Moments (Debye-Ang)
        XX    -136.6037     XY      19.8311     YY    -166.0502
        XZ       0.0007     YZ       0.0025     ZZ    -117.4343

 Total job time:  58.97s(wall), 450.58s(cpu)
        *  Thank you very much for using Q-Chem.  Have a nice day.  *
