 Gaussian 16, Revision A.03,
 Gaussian 16:  ES64L-G16RevA.03 25-Dec-2016

 --------------------------------------
 #P UB3LYP/6-311++G(d,p) nosym opt freq
 --------------------------------------

 --------
 Oxidized
 --------
 Symbolic Z-matrix:
 Charge =  0 Multiplicity = 1

 SCF Done:  E(UB3LYP) =  -916.894418892     A.U. after   16 cycles
 SCF Done:  E(UB3LYP) =  -916.897807817     A.U. after   13 cycles
 SCF Done:  E(UB3LYP) =  -916.898024557     A.U. after   12 cycles
 SCF Done:  E(UB3LYP) =  -916.897905219     A.U. after   12 cycles
 SCF Done:  E(UB3LYP) =  -916.898033795     A.U. after   12 cycles
 SCF Done:  E(UB3LYP) =  -916.898058742     A.U. after   11 cycles
 SCF Done:  E(UB3LYP) =  -916.898059202     A.U. after    9 cycles
 SCF Done:  E(UB3LYP) =  -916.898059321     A.U. after    9 cycles
 Optimization completed.
    -- Stationary point found.
 Normal termination of Gaussian 16 at Thu Dec 21 19:26:23 2023.

 ----------------------------------------------------------------------
 #P Geom=AllCheck Guess=TCheck SCRF=Check GenChk UB3LYP/6-311++G(d,p) F
 req
 ----------------------------------------------------------------------

 Structure from the checkpoint file:  "221.chk"
 --------
 Oxidized
 --------
 Charge =  0 Multiplicity = 1

                          Input orientation:
 ---------------------------------------------------------------------
 Center     Atomic      Atomic             Coordinates (Angstroms)
 Number     Number       Type             X           Y           Z
 ---------------------------------------------------------------------
      1          6           0        4.999202   -2.491705    0.201977
      2          6           0        5.690284   -1.650307   -0.661549
      3          6           0        4.990448   -0.801840   -1.524435
      4          6           0        3.600903   -2.493843    0.212017
      5          6           0        2.896688   -1.640050   -0.656285
      6          6           0        3.600966   -0.796719   -1.521811
      7          6           0        2.886535   -3.408410    1.150498
      8          6           0        1.392838   -3.382563    1.131828
      9          6           0        0.688836   -2.529182    0.263805
     10          6           0        1.406326   -1.613421   -0.675103
     11          6           0        0.690339   -4.224288    1.995308
     12          6           0       -0.709053   -2.531048    0.272854
     13          6           0       -1.403228   -3.369951    1.133236
     14          8           0        3.496711   -4.148004    1.903149
     15          8           0        0.791257   -0.874644   -1.425927
     16          1           0        5.521169   -3.156844    0.878654
     17          1           0       -2.485010   -3.372283    1.141064
     18          1           0        3.038747   -0.147701   -2.181682
     19          1           0        1.234758   -4.880082    2.662571
     20          1           0       -1.231481   -1.866208   -0.403520
     21          6           0       -0.703618   -4.222082    2.000177
     22          1           0        5.531913   -0.146468   -2.197072
     23          6           0       -1.402938   -5.145099    2.946971
     24          8           0       -0.839265   -5.893127    3.709869
     25          8           0       -2.744866   -5.049851    2.854840
     26          6           0       -3.497719   -5.906989    3.734664
     27          1           0       -4.542602   -5.694718    3.520416
     28          1           0       -3.263430   -5.681287    4.775602
     29          1           0       -3.267076   -6.953648    3.532983
     30          1           0        6.774325   -1.652579   -0.665340
 ---------------------------------------------------------------------

 SCF Done:  E(UB3LYP) =  -916.898059321     A.U. after    1 cycles

 Alpha  occ. eigenvalues --  -19.18568 -19.13307 -19.13068 -19.12634 -10.31941
 Alpha  occ. eigenvalues --  -10.28508 -10.28322 -10.23813 -10.21941 -10.21856
 Alpha  occ. eigenvalues --  -10.21571 -10.21390 -10.21336 -10.21093 -10.20733
 Alpha  occ. eigenvalues --  -10.20655 -10.20602 -10.20578 -10.20343 -10.20294
 Alpha  occ. eigenvalues --   -1.12633  -1.06744  -1.06472  -1.03842  -0.90295
 Alpha  occ. eigenvalues --   -0.89085  -0.82601  -0.79292  -0.78469  -0.78316
 Alpha  occ. eigenvalues --   -0.74708  -0.69806  -0.67788  -0.65703  -0.62708
 Alpha  occ. eigenvalues --   -0.60178  -0.59220  -0.56767  -0.56459  -0.52725
 Alpha  occ. eigenvalues --   -0.50673  -0.50407  -0.50186  -0.49388  -0.48072
 Alpha  occ. eigenvalues --   -0.46476  -0.45936  -0.45922  -0.45568  -0.45475
 Alpha  occ. eigenvalues --   -0.44553  -0.43969  -0.42579  -0.41981  -0.41365
 Alpha  occ. eigenvalues --   -0.39555  -0.39136  -0.38544  -0.37682  -0.37156
 Alpha  occ. eigenvalues --   -0.36989  -0.32650  -0.30029  -0.29521  -0.28783
 Alpha  occ. eigenvalues --   -0.28772  -0.28455  -0.28259  -0.27595
 Alpha virt. eigenvalues --   -0.12357  -0.08539  -0.05961  -0.03551  -0.01213
 Alpha virt. eigenvalues --   -0.00912  -0.00197   0.00380   0.01147   0.01529
 Alpha virt. eigenvalues --    0.02412   0.02914   0.03146   0.03253   0.03894

  Beta  occ. eigenvalues --  -19.18568 -19.13307 -19.13068 -19.12634 -10.31941
  Beta  occ. eigenvalues --  -10.28508 -10.28322 -10.23813 -10.21941 -10.21856
  Beta  occ. eigenvalues --  -10.21571 -10.21390 -10.21336 -10.21093 -10.20733
  Beta  occ. eigenvalues --  -10.20655 -10.20602 -10.20578 -10.20343 -10.20294
  Beta  occ. eigenvalues --   -1.12633  -1.06744  -1.06472  -1.03842  -0.90295
  Beta  occ. eigenvalues --   -0.89085  -0.82601  -0.79292  -0.78469  -0.78316
  Beta  occ. eigenvalues --   -0.74708  -0.69806  -0.67788  -0.65703  -0.62708
  Beta  occ. eigenvalues --   -0.60178  -0.59220  -0.56767  -0.56459  -0.52725
  Beta  occ. eigenvalues --   -0.50673  -0.50407  -0.50186  -0.49388  -0.48072
  Beta  occ. eigenvalues --   -0.46476  -0.45936  -0.45922  -0.45568  -0.45475
  Beta  occ. eigenvalues --   -0.44553  -0.43969  -0.42579  -0.41981  -0.41365
  Beta  occ. eigenvalues --   -0.39555  -0.39136  -0.38544  -0.37682  -0.37156
  Beta  occ. eigenvalues --   -0.36989  -0.32650  -0.30029  -0.29521  -0.28783
  Beta  occ. eigenvalues --   -0.28772  -0.28455  -0.28259  -0.27595
  Beta virt. eigenvalues --   -0.12357  -0.08539  -0.05961  -0.03551  -0.01213
  Beta virt. eigenvalues --   -0.00912  -0.00197   0.00380   0.01147   0.01529
  Beta virt. eigenvalues --    0.02412   0.02914   0.03146   0.03253   0.03894

 Mulliken charges and spin densities:
               1          2
     1  C    0.085326  -0.000000
     2  C   -0.350424   0.000000
     3  C   -0.363941   0.000000
     4  C    0.446905  -0.000000
     5  C    0.354525   0.000000
     6  C    0.087282   0.000000
     7  C   -0.772622  -0.000000
     8  C    0.400165  -0.000000
     9  C    0.297001   0.000000
    10  C   -0.902888  -0.000000
    11  C    0.013571  -0.000000
    12  C   -0.021497  -0.000000
    13  C   -0.545513  -0.000000
    14  O   -0.198928  -0.000000
    15  O   -0.200118  -0.000000
    16  H    0.183350   0.000000
    17  H    0.205761   0.000000
    18  H    0.184797  -0.000000
    19  H    0.206221  -0.000000
    20  H    0.194388   0.000000
    21  C    0.262178   0.000000
    22  H    0.178690   0.000000
    23  C    0.140385  -0.000000
    24  O   -0.247717   0.000000
    25  O   -0.111845   0.000000
    26  C   -0.229579   0.000000
    27  H    0.153281   0.000000
    28  H    0.185412  -0.000000
    29  H    0.185408  -0.000000
    30  H    0.180425  -0.000000
 Sum of Mulliken charges =  -0.00000   0.00000

 Dipole moment (field-independent basis, Debye):
    X=             -0.9413    Y=              0.9953    Z=             -1.0171  Tot=              1.7062
 Quadrupole moment (field-independent basis, Debye-Ang):
   XX=            -88.5399   YY=           -124.4739   ZZ=           -119.9961
   XY=             19.3957   XZ=            -17.7810   YZ=              6.8849

  Exact polarizability: 273.548  35.089 171.348 -36.778 -76.167 174.983
 Approx polarizability: 406.121   0.163 285.825  -1.488-132.982 291.536

                      1                      2                      3
                      A                      A                      A
 Frequencies --     28.8082                41.1436                68.5317
 Red. masses --      5.8730                 7.3865                 5.6969
 Frc consts  --      0.0029                 0.0074                 0.0158
 IR Inten    --      4.4168                 0.1046                 2.4250

                      4                      5                      6
                      A                      A                      A
 Frequencies --    100.4244               113.6613               122.6687
 Red. masses --      5.2143                 3.7911                 1.7607
 Frc consts  --      0.0310                 0.0289                 0.0156
 IR Inten    --      1.1529                 0.0613                 1.2629

                      7                      8                      9
                      A                      A                      A
 Frequencies --    139.8666               154.5478               195.0298
 Red. masses --      2.1648                 4.4601                 5.2289
 Frc consts  --      0.0250                 0.0628                 0.1172
 IR Inten    --      0.0897                 4.9783                 1.6819

                     10                     11                     12
                      A                      A                      A
 Frequencies --    218.0221               242.8281               274.5864
 Red. masses --      5.2100                 7.7537                 6.1017
 Frc consts  --      0.1459                 0.2694                 0.2711
 IR Inten    --      0.8133                 0.4372                 0.6616

                     13                     14                     15
                      A                      A                      A
 Frequencies --    292.0351               336.0037               384.5511
 Red. masses --      6.4585                 5.1003                 9.6902
 Frc consts  --      0.3245                 0.3393                 0.8443
 IR Inten    --      3.5128                19.3536                18.3788

                     16                     17                     18
                      A                      A                      A
 Frequencies --    411.0214               412.3024               442.1677
 Red. masses --      8.3957                 3.3796                 4.9364
 Frc consts  --      0.8357                 0.3385                 0.5686
 IR Inten    --      6.4279                 0.2531                 0.0334

                     19                     20                     21
                      A                      A                      A
 Frequencies --    447.7804               461.8017               492.9142
 Red. masses --      3.4558                 9.4766                 7.6287
 Frc consts  --      0.4083                 1.1907                 1.0921
 IR Inten    --      0.0118                 4.2064                 2.5240

                     22                     23                     24
                      A                      A                      A
 Frequencies --    503.6856               511.9599               645.7008
 Red. masses --      8.1926                 4.8683                 6.8998
 Frc consts  --      1.2246                 0.7518                 1.6949
 IR Inten    --      9.8622                 0.1522                12.5447

                     25                     26                     27
                      A                      A                      A
 Frequencies --    653.3498               659.8301               698.4252
 Red. masses --      6.7122                 4.8934                 6.8359
 Frc consts  --      1.6881                 1.2552                 1.9647
 IR Inten    --      1.7689                 0.0729                 0.9148

                     28                     29                     30
                      A                      A                      A
 Frequencies --    709.2209               726.2243               727.5702
 Red. masses --      7.1843                 3.6646                 2.7735
 Frc consts  --      2.1291                 1.1387                 0.8650
 IR Inten    --      2.0848                23.2213                79.8113

                     31                     32                     33
                      A                      A                      A
 Frequencies --    780.1875               795.2374               810.0743
 Red. masses --      2.4996                 6.1358                 4.0549
 Frc consts  --      0.8965                 2.2862                 1.5678
 IR Inten    --      1.3651                 7.8320                 2.6954

                     34                     35                     36
                      A                      A                      A
 Frequencies --    817.7585               853.4881               888.8836
 Red. masses --      2.7228                 5.7791                 1.5689
 Frc consts  --      1.0728                 2.4803                 0.7303
 IR Inten    --     15.1188                 6.0928                11.2229

                     37                     38                     39
                      A                      A                      A
 Frequencies --    918.1149               942.2790               957.1758
 Red. masses --      1.4060                 7.0951                 6.9682
 Frc consts  --      0.6983                 3.7117                 3.7615
 IR Inten    --      0.2590                44.5479                67.1819

                     40                     41                     42
                      A                      A                      A
 Frequencies --    980.9398              1004.5063              1014.8576
 Red. masses --      1.4452                 1.3794                 4.4563
 Frc consts  --      0.8194                 0.8201                 2.7041
 IR Inten    --      5.3727                 1.9480                 8.7643

                     43                     44                     45
                      A                      A                      A
 Frequencies --   1017.3557              1019.9512              1057.6027
 Red. masses --      1.3578                 1.3292                 1.9747
 Frc consts  --      0.8280                 0.8147                 1.3014
 IR Inten    --      1.0050                 0.0002                 1.8905

                     46                     47                     48
                      A                      A                      A
 Frequencies --   1103.5799              1113.9144              1142.6374
 Red. masses --      2.7157                 2.1608                 2.0855
 Frc consts  --      1.9487                 1.5797                 1.6043
 IR Inten    --      7.5189                 5.8812                33.5134

                     49                     50                     51
                      A                      A                      A
 Frequencies --   1171.3964              1175.5750              1183.0696
 Red. masses --      1.2790                 1.8606                 1.5961
 Frc consts  --      1.0340                 1.5150                 1.3162
 IR Inten    --      0.8294                43.8647                55.1018

                     52                     53                     54
                      A                      A                      A
 Frequencies --   1191.5217              1212.8330              1233.3053
 Red. masses --      1.7630                 1.6578                 1.7023
 Frc consts  --      1.4747                 1.4367                 1.5255
 IR Inten    --     36.1990                60.0701                 7.3250

                     55                     56                     57
                      A                      A                      A
 Frequencies --   1259.3308              1287.9197              1312.8431
 Red. masses --      3.3101                 1.7989                 2.5148
 Frc consts  --      3.0930                 1.7580                 2.5538
 IR Inten    --    922.0586               334.4903                 7.6688

                     58                     59                     60
                      A                      A                      A
 Frequencies --   1315.8384              1352.6624              1364.9705
 Red. masses --      4.3658                 8.3498                 8.6981
 Frc consts  --      4.4536                 9.0013                 9.5482
 IR Inten    --    104.8675                42.1836                 2.6431

                     61                     62                     63
                      A                      A                      A
 Frequencies --   1438.9850              1471.0852              1481.7415
 Red. masses --      4.1599                 1.2086                 2.4159
 Frc consts  --      5.0752                 1.5410                 3.1252
 IR Inten    --      1.8673                18.7706                 0.3850

                     64                     65                     66
                      A                      A                      A
 Frequencies --   1482.8122              1497.1744              1502.7425
 Red. masses --      1.0444                 1.0524                 2.6399
 Frc consts  --      1.3530                 1.3898                 3.5124
 IR Inten    --     10.0376                13.0282                13.8586

                     67                     68                     69
                      A                      A                      A
 Frequencies --   1513.2042              1600.0422              1615.3623
 Red. masses --      2.7385                 7.4197                 7.2803
 Frc consts  --      3.6945                11.1918                11.1929
 IR Inten    --      6.1545                 2.8271                 1.3096

                     70                     71                     72
                      A                      A                      A
 Frequencies --   1627.8946              1639.3231              1721.6526
 Red. masses --      5.8302                 6.1798                12.6400
 Frc consts  --      9.1031                 9.7848                22.0743
 IR Inten    --     88.5297                18.6901                27.6337

                     73                     74                     75
                      A                      A                      A
 Frequencies --   1732.7543              1776.3242              3052.5193
 Red. masses --     12.1201                11.7706                 1.0294
 Frc consts  --     21.4402                21.8824                 5.6514
 IR Inten    --    299.0272               276.0297                39.2216

                     76                     77                     78
                      A                      A                      A
 Frequencies --   3126.6974              3159.2272              3171.2182
 Red. masses --      1.1072                 1.1066                 1.0871
 Frc consts  --      6.3776                 6.5073                 6.4412
 IR Inten    --     16.1631                13.1705                 3.1063

                     79                     80                     81
                      A                      A                      A
 Frequencies --   3185.3950              3197.9732              3200.6098
 Red. masses --      1.0918                 1.0890                 1.0926
 Frc consts  --      6.5270                 6.5618                 6.5942
 IR Inten    --      9.7429                 0.9325                 0.1716

                     82                     83                     84
                      A                      A                      A
 Frequencies --   3203.1678              3211.8091              3214.2094
 Red. masses --      1.0950                 1.0908                 1.0942
 Frc consts  --      6.6196                 6.6296                 6.6602
 IR Inten    --     11.8376                 4.3595                 1.0857

 - Thermochemistry -
 -------------------
 Temperature   298.150 Kelvin.  Pressure   1.00000 Atm.
 Atom     1 has atomic number  6 and mass  12.00000

 Molecular mass:   266.05791 amu.
 Principal axes and moments of inertia in atomic units:
                           1         2         3
     Eigenvalues --  1910.04394********************
           X            0.76271   0.64673   0.00367
           Y            0.45041  -0.53524   0.71460
           Z           -0.46411   0.54338   0.69953
 This molecule is an asymmetric top.
 Rotational symmetry number  1.
 Warning -- assumption of classical behavior for rotation
           may cause significant error
 Rotational temperatures (Kelvin)      0.04535     0.00849     0.00716
 Rotational constants (GHZ):           0.94487     0.17686     0.14911
 Zero-point vibrational energy     582105.2 (Joules/Mol)
                                  139.12649 (Kcal/Mol)
 Warning -- explicit consideration of  23 degrees of freedom as
           vibrations may cause significant error
 Vibrational temperatures:     41.45    59.20    98.60   144.49   163.53
          (Kelvin)            176.49   201.24   222.36   280.60   313.69
                              349.38   395.07   420.17   483.43   553.28
                              591.37   593.21   636.18   644.26   664.43
                              709.19   724.69   736.60   929.02   940.02
                              949.35  1004.88  1020.41  1044.87  1046.81
                             1122.52  1144.17  1165.52  1176.57  1227.98
                             1278.91  1320.96  1355.73  1377.16  1411.35
                             1445.26  1460.15  1463.75  1467.48  1521.65
                             1587.81  1602.67  1644.00  1685.38  1691.39
                             1702.17  1714.33  1745.00  1774.45  1811.90
                             1853.03  1888.89  1893.20  1946.18  1963.89
                             2070.38  2116.56  2131.90  2133.44  2154.10
                             2162.11  2177.16  2302.10  2324.15  2342.18
                             2358.62  2477.07  2493.05  2555.73  4391.89
                             4498.62  4545.42  4562.68  4583.07  4601.17
                             4604.96  4608.64  4621.08  4624.53

 Zero-point correction=                           0.221712 (Hartree/Particle)
 Thermal correction to Energy=                    0.237641
 Thermal correction to Enthalpy=                  0.238585
 Thermal correction to Gibbs Free Energy=         0.177155
 Sum of electronic and zero-point Energies=           -916.676347
 Sum of electronic and thermal Energies=              -916.660419
 Sum of electronic and thermal Enthalpies=            -916.659474
 Sum of electronic and thermal Free Energies=         -916.720904

                     E (Thermal)             CV                S
                      KCal/Mol        Cal/Mol-Kelvin    Cal/Mol-Kelvin
 Total                  149.122             61.073            129.290
 Electronic               0.000              0.000              0.000
 Translational            0.889              2.981             42.635
 Rotational               0.889              2.981             33.822
 Vibrational            147.344             55.111             52.833
 Vibration     1          0.593              1.984              5.910
 Vibration     2          0.594              1.981              5.203
 Vibration     3          0.598              1.969              4.195
 Vibration     4          0.604              1.949              3.446
 Vibration     5          0.607              1.938              3.205
 Vibration     6          0.610              1.930              3.058
 Vibration     7          0.615              1.913              2.806
 Vibration     8          0.620              1.898              2.615
 Vibration     9          0.636              1.847              2.179
 Vibration    10          0.646              1.814              1.975
 Vibration    11          0.659              1.775              1.782
 Vibration    12          0.677              1.720              1.567
 Vibration    13          0.687              1.689              1.462
 Vibration    14          0.717              1.604              1.231
 Vibration    15          0.753              1.503              1.021
 Vibration    16          0.775              1.446              0.923
 Vibration    17          0.776              1.444              0.919
 Vibration    18          0.802              1.378              0.820
 Vibration    19          0.807              1.366              0.803
 Vibration    20          0.820              1.335              0.761
 Vibration    21          0.849              1.266              0.676
 Vibration    22          0.859              1.242              0.649
 Vibration    23          0.867              1.223              0.629

                           ! Non-Optimized Parameters !
 Normal termination of Gaussian 16 at Thu Dec 21 20:13:07 2023.
