 Q-Chem 5.4, Q-Chem, Inc., Pleasanton, CA (2021)
 Q-Chem 5.4.0 for Intel X86 EM64T Linux

User input:
--------------------------------------------------------------
$molecule
-1 2
C                 -0.1443940000      1.8367570000      4.9936950000
C                  1.0542350000      1.2551940000      4.4195510000
C                  1.3987690000      1.2838500000      3.0910480000
C                  0.4863750000      1.9377600000      2.1442350000
C                 -0.7253960000      2.4964800000      2.7000260000
C                 -1.0427580000      2.4696340000      4.0366870000
O                 -0.3702950000      1.7761100000      6.2338830000
O                  0.7115640000      2.0135480000      0.8997290000
S                 -2.5093140000      3.3344620000      4.5929530000
C                 -3.3956000000      2.0562040000      5.6089670000
C                 -4.5441090000      2.7614240000      6.3307680000
C                 -3.8792880000      0.8843050000      4.7572830000
C                  2.7014400000      0.6530590000      2.5683130000
C                  3.5378810000      0.0124130000      3.6921580000
C                  3.5720610000      1.7401210000      1.8918660000
C                  2.3692310000     -0.4527740000      1.5368920000
H                  1.6958000000      0.7842530000      5.1552200000
H                 -1.3988250000      2.9578060000      1.9852060000
H                 -2.6526260000      1.7146300000      6.3304370000
H                 -4.1741120000      3.5640840000      6.9735780000
H                 -5.0897100000      2.0464080000      6.9568990000
H                 -5.2567410000      3.1938870000      5.6191280000
H                 -3.0482290000      0.4193520000      4.2230620000
H                 -4.6176580000      1.2121700000      4.0179040000
H                 -4.3431350000      0.1192000000      5.3935890000
H                  2.9943010000     -0.7911780000      4.1976380000
H                  3.8366770000      0.7457640000      4.4468480000
H                  4.4498580000     -0.4182020000      3.2644160000
H                  3.8445910000      2.5158880000      2.6150060000
H                  3.0285900000      2.2050040000      1.0697840000
H                  4.4982160000      1.2969680000      1.5045000000
H                  1.7806120000     -1.2482680000      2.0058530000
H                  3.2935620000     -0.8988850000      1.1485540000
H                  1.7975670000     -0.0387570000      0.7067650000
$end

$rem
BASIS  =  6-311++G(d,p)
GUI  =  2
JOB_TYPE  =  SP
METHOD  =  B3LYP
SCF_CONVERGENCE  = 8
SOLVENT_METHOD = sm12
$end

$smx
solvent dimethylformamide
charges CM5
$end

--------------------------------------------------------------

             Standard Nuclear Orientation (Angstroms)
    I     Atom           X                Y                Z
 ----------------------------------------------------------------
    1      C      -0.1443940000     1.8367570000     4.9936950000
    2      C       1.0542350000     1.2551940000     4.4195510000
    3      C       1.3987690000     1.2838500000     3.0910480000
    4      C       0.4863750000     1.9377600000     2.1442350000
    5      C      -0.7253960000     2.4964800000     2.7000260000
    6      C      -1.0427580000     2.4696340000     4.0366870000
    7      O      -0.3702950000     1.7761100000     6.2338830000
    8      O       0.7115640000     2.0135480000     0.8997290000
    9      S      -2.5093140000     3.3344620000     4.5929530000
   10      C      -3.3956000000     2.0562040000     5.6089670000
   11      C      -4.5441090000     2.7614240000     6.3307680000
   12      C      -3.8792880000     0.8843050000     4.7572830000
   13      C       2.7014400000     0.6530590000     2.5683130000
   14      C       3.5378810000     0.0124130000     3.6921580000
   15      C       3.5720610000     1.7401210000     1.8918660000
   16      C       2.3692310000    -0.4527740000     1.5368920000
   17      H       1.6958000000     0.7842530000     5.1552200000
   18      H      -1.3988250000     2.9578060000     1.9852060000
   19      H      -2.6526260000     1.7146300000     6.3304370000
   20      H      -4.1741120000     3.5640840000     6.9735780000
   21      H      -5.0897100000     2.0464080000     6.9568990000
   22      H      -5.2567410000     3.1938870000     5.6191280000
   23      H      -3.0482290000     0.4193520000     4.2230620000
   24      H      -4.6176580000     1.2121700000     4.0179040000
   25      H      -4.3431350000     0.1192000000     5.3935890000
   26      H       2.9943010000    -0.7911780000     4.1976380000
   27      H       3.8366770000     0.7457640000     4.4468480000
   28      H       4.4498580000    -0.4182020000     3.2644160000
   29      H       3.8445910000     2.5158880000     2.6150060000
   30      H       3.0285900000     2.2050040000     1.0697840000
   31      H       4.4982160000     1.2969680000     1.5045000000
   32      H       1.7806120000    -1.2482680000     2.0058530000
   33      H       3.2935620000    -0.8988850000     1.1485540000
   34      H       1.7975670000    -0.0387570000     0.7067650000
 ----------------------------------------------------------------

   18   -1055.1306261361      3.02e-09  Convergence criterion met
 Total energy in the final basis set =    -1055.2091094430

                    Orbital Energies (a.u.)
 --------------------------------------------------------------

 Alpha MOs
 -- Occupied --
-88.8364 -19.0760 -19.0745 -10.2234 -10.2209 -10.1996 -10.1938 -10.1936
-10.1774 -10.1684 -10.1674 -10.1664 -10.1651 -10.1631 -10.1591 -10.1589
 -7.9222  -5.8861  -5.8825  -5.8761  -0.9991  -0.9960  -0.8419  -0.8252
 -0.8039  -0.7536  -0.7012  -0.6942  -0.6898  -0.6881  -0.6706  -0.6035
 -0.5848  -0.5609  -0.5277  -0.4855  -0.4738  -0.4673  -0.4494  -0.4429
 -0.4378  -0.4319  -0.4284  -0.4164  -0.4129  -0.4024  -0.3934  -0.3906
 -0.3824  -0.3743  -0.3711  -0.3622  -0.3599  -0.3510  -0.3485  -0.3393
 -0.3381  -0.3302  -0.3187  -0.2789  -0.2651  -0.2402  -0.2337  -0.2196
 -0.1622

 Beta MOs
 -- Occupied --
-88.8364 -19.0689 -19.0672 -10.2223 -10.2198 -10.1996 -10.1936 -10.1926
-10.1763 -10.1684 -10.1664 -10.1662 -10.1642 -10.1631 -10.1591 -10.1588
 -7.9222  -5.8861  -5.8825  -5.8760  -0.9869  -0.9832  -0.8382  -0.8240
 -0.8017  -0.7516  -0.6971  -0.6942  -0.6893  -0.6879  -0.6635  -0.6005
 -0.5823  -0.5598  -0.5251  -0.4838  -0.4714  -0.4666  -0.4483  -0.4420
 -0.4356  -0.4310  -0.4261  -0.4136  -0.4051  -0.3961  -0.3933  -0.3818
 -0.3801  -0.3700  -0.3682  -0.3592  -0.3511  -0.3486  -0.3414  -0.3374
 -0.3341  -0.3297  -0.3143  -0.2618  -0.2459  -0.2335  -0.2275  -0.2152

          Ground-State Mulliken Net Atomic Charges

     Atom                 Charge (a.u.)    Spin (a.u.)
  --------------------------------------------------------
      1 C                    -1.610750       0.105627
      2 C                    -0.926742       0.026287
      3 C                     0.257199       0.122295
      4 C                    -1.714774       0.061899
      5 C                    -1.290763       0.075791
      6 C                     1.765839       0.097669
      7 O                    -0.303455       0.255446
      8 O                    -0.292080       0.266495
      9 S                     0.242946       0.011329
     10 C                     0.002531       0.008614
     11 C                     0.099272       0.001063
     12 C                    -0.688801      -0.002314
     13 C                     1.305493      -0.033819
     14 C                     0.304674      -0.000175
     15 C                    -0.531725       0.013294
     16 C                    -0.497610       0.012741
     17 H                     0.131620      -0.008229
     18 H                     0.138303      -0.010271
     19 H                     0.073620      -0.001830
     20 H                     0.173870       0.000169
     21 H                     0.237892       0.000166
     22 H                     0.175267       0.000054
     23 H                     0.044769       0.000507
     24 H                     0.168170      -0.000435
     25 H                     0.211347       0.000406
     26 H                     0.141790      -0.000266
     27 H                     0.142435      -0.000234
     28 H                     0.324156       0.000086
     29 H                     0.097558       0.001305
     30 H                     0.089753      -0.002771
     31 H                     0.271044       0.000293
     32 H                     0.096755       0.001070
     33 H                     0.265251       0.000171
     34 H                     0.095147      -0.002433
  --------------------------------------------------------
  Sum of atomic charges =    -1.000000

                    Cartesian Multipole Moments
 -----------------------------------------------------------------
    Charge (ESU x 10^10)
                -4.8032
    Dipole Moment (Debye)
         X      -0.1136      Y     -10.6158      Z     -16.6871
       Tot      19.7780
    Quadrupole Moments (Debye-Ang)
        XX    -117.9781     XY       4.7480     YY    -139.4123
        XZ       4.7954     YZ     -38.0751     ZZ    -201.2011

 Total job time:  1132.50s(wall), 8665.52s(cpu)
        *  Thank you very much for using Q-Chem.  Have a nice day.  *
