 Gaussian 16, Revision A.03,
 Gaussian 16:  ES64L-G16RevA.03 25-Dec-2016

 -------------------------------
 #P UB3LYP/genecp nosym opt freq
 -------------------------------

 --------
 Oxidized
 --------
 Symbolic Z-matrix:
 Charge =  0 Multiplicity = 1

 SCF Done:  E(UB3LYP) =  -975.937308789     A.U. after   19 cycles
 SCF Done:  E(UB3LYP) =  -975.948650880     A.U. after   14 cycles
 SCF Done:  E(UB3LYP) =  -975.949918497     A.U. after   13 cycles
 SCF Done:  E(UB3LYP) =  -975.949997105     A.U. after   12 cycles
 SCF Done:  E(UB3LYP) =  -975.950001216     A.U. after   10 cycles
 Optimization completed.
    -- Stationary point found.
 Normal termination of Gaussian 16 at Thu Dec 21 03:34:42 2023.

 ------------------------------------------------------------------
 #P Geom=AllCheck Guess=TCheck SCRF=Check GenChk UB3LYP/GenECP Freq
 ------------------------------------------------------------------

 Structure from the checkpoint file:  "013.chk"
 --------
 Oxidized
 --------
 Charge =  0 Multiplicity = 1

                          Input orientation:
 ---------------------------------------------------------------------
 Center     Atomic      Atomic             Coordinates (Angstroms)
 Number     Number       Type             X           Y           Z
 ---------------------------------------------------------------------
      1         53           0       -2.806237   -2.073452    0.004245
      2          6           0       -1.186660   -0.743919    0.000245
      3          6           0       -1.359183    0.585333   -0.016341
      4          6           0       -0.201983    1.511887   -0.018925
      5          8           0       -0.363196    2.720260   -0.034038
      6          6           0        1.157743    0.921527   -0.002549
      7          6           0        1.340437   -0.406438    0.014133
      8         53           0        3.251942   -1.264015    0.037701
      9          6           0        0.182579   -1.366894    0.017083
     10          8           0        0.342376   -2.564608    0.031982
     11          1           0       -2.336290    1.052195   -0.028593
     12          1           0        1.978469    1.628126   -0.004943
 ---------------------------------------------------------------------

 SCF Done:  E(UB3LYP) =  -975.950001216     A.U. after    1 cycles

 Alpha  occ. eigenvalues --  -19.16597 -19.15562 -10.31866 -10.30364 -10.27143
 Alpha  occ. eigenvalues --  -10.27142 -10.23438 -10.23437  -6.87022  -6.87020
 Alpha  occ. eigenvalues --   -4.89524  -4.89521  -4.88314  -4.88312  -4.88201
 Alpha  occ. eigenvalues --   -4.88198  -1.94337  -1.94335  -1.93948  -1.93945
 Alpha  occ. eigenvalues --   -1.93862  -1.93859  -1.92815  -1.92812  -1.92812
 Alpha  occ. eigenvalues --   -1.92810  -1.10177  -1.08566  -0.89308  -0.83292
 Alpha  occ. eigenvalues --   -0.75192  -0.72705  -0.71050  -0.63403  -0.61874
 Alpha  occ. eigenvalues --   -0.55200  -0.52906  -0.48212  -0.47649  -0.46581
 Alpha  occ. eigenvalues --   -0.46354  -0.44030  -0.42032  -0.39720  -0.35843
 Alpha  occ. eigenvalues --   -0.34798  -0.31426  -0.30024  -0.28984  -0.28407
 Alpha  occ. eigenvalues --   -0.27972  -0.27395
 Alpha virt. eigenvalues --   -0.15559  -0.07413  -0.06014  -0.04700  -0.02323
 Alpha virt. eigenvalues --   -0.00881   0.00834   0.02427   0.04177   0.04371
 Alpha virt. eigenvalues --    0.05248   0.06555   0.06648   0.08091   0.08553

  Beta  occ. eigenvalues --  -19.16597 -19.15562 -10.31866 -10.30364 -10.27143
  Beta  occ. eigenvalues --  -10.27142 -10.23438 -10.23437  -6.87022  -6.87020
  Beta  occ. eigenvalues --   -4.89524  -4.89521  -4.88314  -4.88312  -4.88201
  Beta  occ. eigenvalues --   -4.88198  -1.94337  -1.94335  -1.93948  -1.93945
  Beta  occ. eigenvalues --   -1.93862  -1.93859  -1.92815  -1.92812  -1.92812
  Beta  occ. eigenvalues --   -1.92810  -1.10177  -1.08566  -0.89308  -0.83292
  Beta  occ. eigenvalues --   -0.75192  -0.72705  -0.71050  -0.63403  -0.61874
  Beta  occ. eigenvalues --   -0.55200  -0.52906  -0.48212  -0.47649  -0.46581
  Beta  occ. eigenvalues --   -0.46354  -0.44030  -0.42032  -0.39720  -0.35843
  Beta  occ. eigenvalues --   -0.34798  -0.31426  -0.30024  -0.28984  -0.28407
  Beta  occ. eigenvalues --   -0.27972  -0.27395
  Beta virt. eigenvalues --   -0.15559  -0.07413  -0.06014  -0.04700  -0.02323
  Beta virt. eigenvalues --   -0.00881   0.00834   0.02427   0.04177   0.04371
  Beta virt. eigenvalues --    0.05248   0.06555   0.06648   0.08091   0.08553

 Mulliken charges and spin densities:
               1          2
     1  I   -0.003471   0.000000
     2  C    1.423333   0.000000
     3  C   -0.368554  -0.000000
     4  C   -0.114567   0.000000
     5  O   -0.226271   0.000000
     6  C   -0.368267  -0.000000
     7  C    1.423212   0.000000
     8  I   -0.003425  -0.000000
     9  C   -2.095774  -0.000000
    10  O   -0.084789   0.000000
    11  H    0.209291  -0.000000
    12  H    0.209281  -0.000000
 Sum of Mulliken charges =  -0.00000   0.00000

 Dipole moment (field-independent basis, Debye):
    X=              0.0203    Y=             -0.1451    Z=              0.0020  Tot=              0.1466
 Quadrupole moment (field-independent basis, Debye-Ang):
   XX=            -89.4485   YY=           -111.6336   ZZ=            -98.2622
   XY=              3.0125   XZ=              0.0275   YZ=              0.1754

  Exact polarizability: 184.076   0.738 178.725   0.697  -1.089  84.231
 Approx polarizability: 258.719 -16.566 380.656   1.028  -2.897 140.487

                      1                      2                      3
                      A                      A                      A
 Frequencies --     43.8489                93.0698               116.9545
 Red. masses --     16.8171                37.3403                10.0939
 Frc consts  --      0.0191                 0.1906                 0.0813
 IR Inten    --      1.7619                 0.1579                 6.6651

                      4                      5                      6
                      A                      A                      A
 Frequencies --    150.3819               196.0768               214.4257
 Red. masses --      4.7663                13.0137                19.0920
 Frc consts  --      0.0635                 0.2948                 0.5172
 IR Inten    --      0.0000                 0.1342                 0.0659

                      7                      8                      9
                      A                      A                      A
 Frequencies --    241.4663               280.4834               417.6655
 Red. masses --     14.8977                 6.0030                 5.5858
 Frc consts  --      0.5118                 0.2782                 0.5741
 IR Inten    --      0.1132                 1.9548                 0.0000

                     10                     11                     12
                      A                      A                      A
 Frequencies --    436.8966               465.3620               605.5425
 Red. masses --      8.6955                12.8093                 6.4607
 Frc consts  --      0.9779                 1.6344                 1.3958
 IR Inten    --     39.0534                 0.0017                10.0674

                     13                     14                     15
                      A                      A                      A
 Frequencies --    650.0353               670.0826               770.9476
 Red. masses --      3.7905                10.1008                11.4178
 Frc consts  --      0.9437                 2.6722                 3.9984
 IR Inten    --      2.1970                61.4498                 1.9093

                     16                     17                     18
                      A                      A                      A
 Frequencies --    777.4270               840.9719               884.9848
 Red. masses --      6.7956                 5.9948                 1.3091
 Frc consts  --      2.4199                 2.4980                 0.6041
 IR Inten    --      0.1018                 0.7676                 0.0002

                     19                     20                     21
                      A                      A                      A
 Frequencies --    925.7036               976.7183              1117.5999
 Red. masses --      1.5050                 4.5566                 3.1139
 Frc consts  --      0.7598                 2.5611                 2.2916
 IR Inten    --     36.4152               118.3870                 6.0525

                     22                     23                     24
                      A                      A                      A
 Frequencies --   1264.4491              1291.4977              1307.5715
 Red. masses --      7.7946                 1.4180                 1.7336
 Frc consts  --      7.3425                 1.3935                 1.7464
 IR Inten    --    310.7632                23.1849                 0.0141

                     25                     26                     27
                      A                      A                      A
 Frequencies --   1606.9757              1644.3580              1711.2963
 Red. masses --      8.9892                 8.5304                11.2647
 Frc consts  --     13.6769                13.5898                19.4365
 IR Inten    --    164.7051                26.8909               303.2038

                     28                     29                     30
                      A                      A                      A
 Frequencies --   1745.0615              3199.6812              3200.4876
 Red. masses --     13.2027                 1.0930                 1.0937
 Frc consts  --     23.6883                 6.5930                 6.6007
 IR Inten    --    158.2443                 0.4313                 0.2545

 - Thermochemistry -
 -------------------
 Temperature   298.150 Kelvin.  Pressure   1.00000 Atm.
 Atom     1 has atomic number 53 and mass 126.90040

 Molecular mass:   359.80628 amu.
 Principal axes and moments of inertia in atomic units:
                           1         2         3
     Eigenvalues --  1937.097888776.25556**********
           X            0.99118  -0.13235  -0.00707
           Y            0.13243   0.99112   0.01159
           Z            0.00547  -0.01242   0.99991
 This molecule is an asymmetric top.
 Rotational symmetry number  1.
 Warning -- assumption of classical behavior for rotation
           may cause significant error
 Rotational temperatures (Kelvin)      0.04471     0.00987     0.00808
 Rotational constants (GHZ):           0.93167     0.20564     0.16846
 Zero-point vibrational energy     166568.2 (Joules/Mol)
                                   39.81075 (Kcal/Mol)
 Warning -- explicit consideration of  12 degrees of freedom as
           vibrations may cause significant error
 Vibrational temperatures:     63.09   133.91   168.27   216.37   282.11
          (Kelvin)            308.51   347.42   403.55   600.93   628.60
                              669.55   871.24   935.26   964.10  1109.22
                             1118.54  1209.97  1273.30  1331.88  1405.28
                             1607.98  1819.26  1858.18  1881.30  2312.08
                             2365.86  2462.17  2510.75  4603.63  4604.79

 Zero-point correction=                           0.063442 (Hartree/Particle)
 Thermal correction to Energy=                    0.072955
 Thermal correction to Enthalpy=                  0.073899
 Thermal correction to Gibbs Free Energy=         0.024529
 Sum of electronic and zero-point Energies=           -975.886559
 Sum of electronic and thermal Energies=              -975.877046
 Sum of electronic and thermal Enthalpies=            -975.876102
 Sum of electronic and thermal Free Energies=         -975.925472

                     E (Thermal)             CV                S
                      KCal/Mol        Cal/Mol-Kelvin    Cal/Mol-Kelvin
 Total                   45.780             32.123            103.908
 Electronic               0.000              0.000              0.000
 Translational            0.889              2.981             43.535
 Rotational               0.889              2.981             33.565
 Vibrational             44.003             26.161             26.808
 Vibration     1          0.595              1.980              5.077
 Vibration     2          0.602              1.954              3.594
 Vibration     3          0.608              1.935              3.150
 Vibration     4          0.618              1.902              2.667
 Vibration     5          0.636              1.845              2.170
 Vibration     6          0.644              1.819              2.006
 Vibration     7          0.658              1.777              1.792
 Vibration     8          0.680              1.710              1.531
 Vibration     9          0.781              1.432              0.900
 Vibration    10          0.797              1.390              0.836
 Vibration    11          0.823              1.327              0.751
 Vibration    12          0.964              1.020              0.440

 Optimization completed.
    -- Stationary point found.
 Normal termination of Gaussian 16 at Thu Dec 21 03:42:22 2023.
