 Q-Chem 5.4, Q-Chem, Inc., Pleasanton, CA (2021)
 Q-Chem 5.4.0 for Intel X86 EM64T Linux

User input:
--------------------------------------------------------------
$molecule
0 1
C                 -2.6040930000     -1.7731690000     -0.1673690000
O                 -2.3378090000     -0.4652990000     -0.7237870000
C                 -1.2973140000      0.2811890000     -0.3359010000
C                 -1.4156990000      1.6279640000     -0.2611050000
Br                -3.0684520000      2.4759880000     -0.5990310000
C                 -0.2714150000      2.5154160000      0.0899240000
O                 -0.4009460000      3.7175060000      0.1722420000
C                  1.0400930000      1.8518570000      0.3346650000
C                  1.2116430000      0.5132860000      0.2238150000
O                  2.3925550000     -0.0406350000      0.5220250000
C                  2.9222180000     -1.1748010000     -0.2017350000
C                  0.0391320000     -0.3620840000     -0.1085100000
O                  0.1694090000     -1.5695360000     -0.1920410000
Br                 2.4795150000      2.9774290000      0.8100440000
H                 -2.3680310000     -1.7979900000      0.8974890000
H                 -3.6736460000     -1.9174670000     -0.3112800000
H                 -2.0378310000     -2.5396010000     -0.6910160000
H                  4.0000620000     -1.1066980000     -0.0634140000
H                  2.5396530000     -2.1074600000      0.2058590000
H                  2.6809560000     -1.1058940000     -1.2634530000
$end
$rem
MAX_SCF_CYCLES=200
BASIS  =  6-311++G(d,p)
GUI  =  2
JOB_TYPE  =  SP
METHOD  =  B3LYP
SOLVENT_METHOD = COSMO
$end
$solvent
dielectric 37.219
opticaldielectric 1.43
$end

--------------------------------------------------------------

             Standard Nuclear Orientation (Angstroms)
    I     Atom           X                Y                Z
 ----------------------------------------------------------------
    1      C      -2.7175766971    -2.8709736951     0.5817329405
    2      O      -2.4514471168    -1.6403288172    -0.1294072196
    3      C      -1.2903135273    -0.9846269590    -0.0191639037
    4      C      -1.2678039995     0.3690248467    -0.0422390101
    5      Br     -2.8704042794     1.3638404038    -0.1255787673
    6      C      -0.0000915758     1.1509178922    -0.0006847080
    7      O      -0.0001159856     2.3627653805    -0.0014367263
    8      C       1.2677296029     0.3691948257     0.0417469293
    9      C       1.2904994898    -0.9844785784     0.0185242184
   10      O       2.4518171786    -1.6398153280     0.1289135318
   11      C       2.7182052090    -2.8710619431    -0.5808562455
   12      C       0.0001565727    -1.7500856507    -0.0003319405
   13      O       0.0001737380    -2.9674146308    -0.0004355647
   14      Br      2.8701065611     1.3642243011     0.1262314951
   15      H      -2.2739300958    -2.8478662212     1.5781804543
   16      H      -3.8027111659    -2.9095357816     0.6621820470
   17      H      -2.3414349059    -3.7276670625     0.0277738526
   18      H       3.8033444132    -2.9093474771    -0.6616370068
   19      H       2.3427549865    -3.7272962177    -0.0256610945
   20      H       2.2741439483    -2.8496691775    -1.5771255792
 ----------------------------------------------------------------

    9   -5757.7406506765      3.75e-06  Convergence criterion met
 Total energy in the final basis set =    -5757.7406506765
    5   -5757.7564262122      4.59e-06  Convergence criterion met
 Total energy in the final basis set =    -5757.7564262122

                    Orbital Energies (a.u.)
 --------------------------------------------------------------

 Alpha MOs
 -- Occupied --
********-482.8499 -62.5027 -62.5026 -56.3233 -56.3233 -56.3194 -56.3194
-56.3189 -56.3189 -19.1850 -19.1850 -19.1630 -19.1477 -10.3145 -10.3071
-10.2877 -10.2877 -10.2584 -10.2584 -10.2281 -10.2281  -8.7115  -8.7115
 -6.5434  -6.5433  -6.5303  -6.5303  -6.5289  -6.5289  -2.6542  -2.6541
 -2.6508  -2.6508  -2.6497  -2.6497  -2.6393  -2.6392  -2.6392  -2.6392
 -1.1172  -1.1011  -1.0870  -1.0801  -0.8890  -0.8551  -0.8052  -0.7752
 -0.7429  -0.7021  -0.7003  -0.6250  -0.6168  -0.5724  -0.5490  -0.5267
 -0.5055  -0.5037  -0.4843  -0.4762  -0.4623  -0.4539  -0.4471  -0.4331
 -0.4301  -0.4228  -0.3910  -0.3854  -0.3647  -0.3632  -0.3339  -0.3330
 -0.3097  -0.3091  -0.2980  -0.2965  -0.2768  -0.2537

          Ground-State Mulliken Net Atomic Charges

     Atom                 Charge (a.u.)
  ----------------------------------------
      1 C                    -0.317875
      2 O                    -0.134478
      3 C                    -0.393536
      4 C                     0.836312
      5 Br                   -0.001762
      6 C                    -0.702580
      7 O                    -0.220166
      8 C                     0.830396
      9 C                    -0.389605
     10 O                    -0.134294
     11 C                    -0.317866
     12 C                     0.034648
     13 O                    -0.236321
     14 Br                   -0.001895
     15 H                     0.189700
     16 H                     0.189711
     17 H                     0.195106
     18 H                     0.189710
     19 H                     0.195089
     20 H                     0.189704
  ----------------------------------------
  Sum of atomic charges =     0.000000

                    Cartesian Multipole Moments
 -----------------------------------------------------------------
    Charge (ESU x 10^10)
                 0.0000
    Dipole Moment (Debye)
         X       0.0012      Y      -6.7654      Z       0.0054
       Tot       6.7654
    Quadrupole Moments (Debye-Ang)
        XX     -99.1138     XY      -0.0076     YY    -106.0846
        XZ      -6.8135     YZ      -0.0018     ZZ    -102.8413

 Total job time:  35.52s(wall), 269.13s(cpu)
        *  Thank you very much for using Q-Chem.  Have a nice day.  *
