 Q-Chem 5.4, Q-Chem, Inc., Pleasanton, CA (2021)
 Q-Chem 5.4.0 for Intel X86 EM64T Linux

User input:
--------------------------------------------------------------
$molecule
0 1
C                 -3.4199760000     -0.7289220000     -0.3823230000
C                 -2.0325970000     -0.2644570000     -0.0651780000
C                 -1.7584680000      0.6980350000      0.8352780000
C                 -0.3932030000      1.1507830000      1.1434330000
O                 -0.2159800000      2.0435370000      1.9857690000
C                  0.7259650000      0.5238610000      0.4360480000
C                  2.0538270000      0.9271670000      0.7010140000
O                  2.3492850000      1.8815500000      1.5918570000
C                  3.1122360000      0.3118170000      0.0109570000
C                  2.8522040000     -0.6798500000     -0.9190400000
C                  1.5404720000     -1.0888620000     -1.1911370000
C                  0.4846900000     -0.4907380000     -0.5178180000
C                 -0.9125980000     -0.9281240000     -0.8094190000
O                 -1.1565560000     -1.7999820000     -1.6272870000
H                 -4.1605850000     -0.1884780000      0.2079130000
H                 -3.5179270000     -1.8007960000     -0.1895690000
H                 -3.6357810000     -0.5905060000     -1.4453290000
H                 -2.5447020000      1.1989620000      1.3909390000
H                  1.4977090000      2.1993530000      1.9765670000
H                  4.1228580000      0.6352890000      0.2285870000
H                  3.6782150000     -1.1460860000     -1.4440790000
H                  1.3309110000     -1.8635550000     -1.9171820000
$end
$rem
MAX_SCF_CYCLES=200
BASIS  =  6-311++G(d,p)
GUI  =  2
JOB_TYPE  =  SP
METHOD  =  B3LYP
SOLVENT_METHOD = COSMO
$end
$solvent
dielectric 37.219
opticaldielectric 1.43
$end

--------------------------------------------------------------

             Standard Nuclear Orientation (Angstroms)
    I     Atom           X                Y                Z
 ----------------------------------------------------------------
    1      C       3.7241643409     0.2877951514    -0.0010687502
    2      C       2.2286814349     0.3560570570    -0.0004628254
    3      C       1.5372048619     1.5111408815    -0.0001905231
    4      C       0.0674816666     1.5728037635     0.0002499365
    5      O      -0.5025615353     2.6741657844     0.0005326457
    6      C      -0.6834745332     0.3150174031     0.0002036485
    7      C      -2.0962504896     0.3270278631    -0.0000150273
    8      O      -2.8038162790     1.4632911351     0.0001315265
    9      C      -2.7963196368    -0.8915643153    -0.0004496745
   10      C      -2.1045965252    -2.0904945093    -0.0006133076
   11      C      -0.7041325828    -2.1163610431    -0.0002944878
   12      C       0.0013239588    -0.9213224014     0.0000789910
   13      C       1.4939255509    -0.9511839927     0.0005076425
   14      O       2.1165816132    -2.0004019280     0.0015543450
   15      H       4.1637631602     1.2856488736    -0.0019467722
   16      H       4.0815079606    -0.2642186629    -0.8747097869
   17      H       4.0820359725    -0.2627298263     0.8733240033
   18      H       2.0371578446     2.4744154146    -0.0005035813
   19      H      -2.1599399001     2.2113588865     0.0003822517
   20      H      -3.8790948215    -0.8607157885    -0.0006648748
   21      H      -2.6573216756    -3.0231417691    -0.0009714753
   22      H      -0.1577872106    -3.0505522077    -0.0003316373
 ----------------------------------------------------------------

    9    -649.8497919647      3.34e-06  Convergence criterion met
 Total energy in the final basis set =     -649.8497919647
    5    -649.8637104250      2.71e-06  Convergence criterion met
 Total energy in the final basis set =     -649.8637104250

                    Orbital Energies (a.u.)
 --------------------------------------------------------------

 Alpha MOs
 -- Occupied --
-19.1670 -19.1439 -19.1390 -10.2895 -10.2869 -10.2685 -10.2218 -10.2113
-10.2071 -10.2043 -10.2013 -10.1952 -10.1948 -10.1753  -1.0947  -1.0724
 -1.0650  -0.8901  -0.8482  -0.7906  -0.7731  -0.7305  -0.6919  -0.6585
 -0.6262  -0.6075  -0.5497  -0.5407  -0.5361  -0.4964  -0.4794  -0.4726
 -0.4672  -0.4664  -0.4409  -0.4340  -0.4218  -0.4160  -0.4075  -0.4050
 -0.4014  -0.3864  -0.3796  -0.3593  -0.3023  -0.2975  -0.2812  -0.2812
 -0.2530

          Ground-State Mulliken Net Atomic Charges

     Atom                 Charge (a.u.)
  ----------------------------------------
      1 C                    -0.329901
      2 C                     0.621689
      3 C                    -0.446303
      4 C                    -0.896175
      5 O                    -0.360119
      6 C                     1.001383
      7 C                    -0.220817
      8 O                    -0.331995
      9 C                    -0.091572
     10 C                    -0.427904
     11 C                    -0.048362
     12 C                     0.353762
     13 C                    -0.377339
     14 O                    -0.292582
     15 H                     0.184529
     16 H                     0.200526
     17 H                     0.200485
     18 H                     0.223018
     19 H                     0.365304
     20 H                     0.235815
     21 H                     0.237734
     22 H                     0.198825
  ----------------------------------------
  Sum of atomic charges =     0.000000

                    Cartesian Multipole Moments
 -----------------------------------------------------------------
    Charge (ESU x 10^10)
                 0.0000
    Dipole Moment (Debye)
         X       0.8609      Y      -1.0384      Z      -0.0052
       Tot       1.3488
    Quadrupole Moments (Debye-Ang)
        XX     -74.7954     XY      17.3145     YY     -87.4203
        XZ      -0.0064     YZ       0.0069     ZZ     -81.6343

 Total job time:  35.00s(wall), 251.53s(cpu)
        *  Thank you very much for using Q-Chem.  Have a nice day.  *
