 Gaussian 16, Revision A.03,
 Gaussian 16:  ES64L-G16RevA.03 25-Dec-2016

 ----------------------------------------------------------------------
 #P UB3LYP/6-311++G(d,p) nosym opt freq SCRF=(PCM,Solvent=n,n-DiMethylF
 ormamide)
 ----------------------------------------------------------------------

 --------
 Oxidized
 --------
 Symbolic Z-matrix:
 Charge = -2 Multiplicity = 1

 SCF Done:  E(UB3LYP) =  -1782.18734424     A.U. after   17 cycles
 SCF Done:  E(UB3LYP) =  -1782.18863391     A.U. after   13 cycles
 SCF Done:  E(UB3LYP) =  -1782.18904933     A.U. after   12 cycles
 SCF Done:  E(UB3LYP) =  -1782.18896754     A.U. after   12 cycles
 SCF Done:  E(UB3LYP) =  -1782.18908714     A.U. after   12 cycles
 SCF Done:  E(UB3LYP) =  -1782.18911167     A.U. after   12 cycles
 SCF Done:  E(UB3LYP) =  -1782.18911569     A.U. after   11 cycles
 SCF Done:  E(UB3LYP) =  -1782.18911587     A.U. after   10 cycles
 SCF Done:  E(UB3LYP) =  -1782.18911589     A.U. after   10 cycles
 SCF Done:  E(UB3LYP) =  -1782.18911594     A.U. after    8 cycles
 SCF Done:  E(UB3LYP) =  -1782.18911595     A.U. after    8 cycles
 Optimization completed.
    -- Stationary point found.
 Normal termination of Gaussian 16 at Sun Feb 11 20:10:16 2024.

 ----------------------------------------------------------------------
 #P Geom=AllCheck Guess=TCheck SCRF=Check GenChk UB3LYP/6-311++G(d,p) F
 req
 ----------------------------------------------------------------------

 Structure from the checkpoint file:  "327.chk"
 --------
 Oxidized
 --------
 Charge = -2 Multiplicity = 1

                          Input orientation:
 ---------------------------------------------------------------------
 Center     Atomic      Atomic             Coordinates (Angstroms)
 Number     Number       Type             X           Y           Z
 ---------------------------------------------------------------------
      1          6           0       -1.709294    2.954757   -0.837354
      2          6           0       -2.849426    2.226061   -0.516315
      3          6           0       -2.706977    0.920502   -0.056845
      4          6           0       -0.439874    2.390966   -0.700469
      5          6           0       -0.293039    1.060395   -0.233162
      6          6           0       -1.447508    0.337327    0.082956
      7          6           0        0.743247    3.205638   -1.054851
      8          6           0        2.140625    2.550303   -0.881460
      9          6           0        2.181930    1.176118   -0.399162
     10          6           0        1.060455    0.489270   -0.100616
     11          8           0        0.674050    4.346296   -1.468858
     12          8           0        3.140043    3.194693   -1.149706
     13          1           0       -1.791044    3.971730   -1.200158
     14          1           0       -3.835334    2.657532   -0.629249
     15         16           0       -4.179207   -0.031287    0.429709
     16          1           0       -1.374183   -0.682124    0.430350
     17          1           0        3.155664    0.717479   -0.283537
     18         16           0        1.279914   -1.231108    0.502800
     19          8           0        2.744133   -1.465663    0.509760
     20          8           0        0.546809   -2.069846   -0.481553
     21          8           0        0.669578   -1.231059    1.858255
     22          8           0       -4.263623    0.125099    1.909181
     23          8           0       -3.905981   -1.429630    0.003819
     24          8           0       -5.314189    0.602492   -0.292614
 ---------------------------------------------------------------------

 SCF Done:  E(UB3LYP) =  -1782.18911595     A.U. after    1 cycles

 Alpha  occ. eigenvalues --  -89.05431 -89.04794 -19.14521 -19.14330 -19.09797
 Alpha  occ. eigenvalues --  -19.09745 -19.09743 -19.09178 -19.09158 -19.09137
 Alpha  occ. eigenvalues --  -10.28654 -10.28344 -10.23862 -10.22441 -10.21822
 Alpha  occ. eigenvalues --  -10.21049 -10.20336 -10.20207 -10.20063 -10.20028
 Alpha  occ. eigenvalues --   -8.11310  -8.10686  -6.07570  -6.07555  -6.07519
 Alpha  occ. eigenvalues --   -6.06949  -6.06941  -6.06877  -1.11811  -1.11087
 Alpha  occ. eigenvalues --   -1.08632  -1.05909  -0.98151  -0.97941  -0.97436
 Alpha  occ. eigenvalues --   -0.97210  -0.90139  -0.84663  -0.79292  -0.77156
 Alpha  occ. eigenvalues --   -0.72567  -0.66442  -0.64979  -0.62891  -0.59355
 Alpha  occ. eigenvalues --   -0.57261  -0.54831  -0.52571  -0.51232  -0.49618
 Alpha  occ. eigenvalues --   -0.48496  -0.46868  -0.46423  -0.46401  -0.45932
 Alpha  occ. eigenvalues --   -0.45635  -0.45343  -0.45046  -0.44574  -0.42705
 Alpha  occ. eigenvalues --   -0.41292  -0.40761  -0.39498  -0.38130  -0.34917
 Alpha  occ. eigenvalues --   -0.34073  -0.33821  -0.33556  -0.33465  -0.32296
 Alpha  occ. eigenvalues --   -0.31191  -0.30500  -0.30024  -0.29647  -0.29480
 Alpha  occ. eigenvalues --   -0.29355  -0.27295  -0.26607  -0.26207  -0.26090
 Alpha  occ. eigenvalues --   -0.25584
 Alpha virt. eigenvalues --   -0.13735  -0.06261  -0.03134   0.00064   0.00206
 Alpha virt. eigenvalues --    0.01184   0.01699   0.03266   0.03594   0.04190
 Alpha virt. eigenvalues --    0.04300   0.05488   0.06030   0.06218   0.06279

  Beta  occ. eigenvalues --  -89.05431 -89.04794 -19.14521 -19.14330 -19.09797
  Beta  occ. eigenvalues --  -19.09745 -19.09743 -19.09178 -19.09158 -19.09137
  Beta  occ. eigenvalues --  -10.28654 -10.28344 -10.23862 -10.22441 -10.21822
  Beta  occ. eigenvalues --  -10.21049 -10.20336 -10.20207 -10.20063 -10.20028
  Beta  occ. eigenvalues --   -8.11310  -8.10686  -6.07570  -6.07555  -6.07519
  Beta  occ. eigenvalues --   -6.06949  -6.06941  -6.06877  -1.11811  -1.11087
  Beta  occ. eigenvalues --   -1.08632  -1.05909  -0.98151  -0.97941  -0.97436
  Beta  occ. eigenvalues --   -0.97210  -0.90139  -0.84663  -0.79292  -0.77156
  Beta  occ. eigenvalues --   -0.72567  -0.66442  -0.64979  -0.62891  -0.59355
  Beta  occ. eigenvalues --   -0.57261  -0.54831  -0.52571  -0.51232  -0.49618
  Beta  occ. eigenvalues --   -0.48496  -0.46868  -0.46423  -0.46401  -0.45932
  Beta  occ. eigenvalues --   -0.45635  -0.45343  -0.45046  -0.44574  -0.42705
  Beta  occ. eigenvalues --   -0.41292  -0.40761  -0.39498  -0.38130  -0.34917
  Beta  occ. eigenvalues --   -0.34073  -0.33821  -0.33556  -0.33465  -0.32296
  Beta  occ. eigenvalues --   -0.31191  -0.30500  -0.30024  -0.29647  -0.29480
  Beta  occ. eigenvalues --   -0.29355  -0.27295  -0.26607  -0.26207  -0.26090
  Beta  occ. eigenvalues --   -0.25584
  Beta virt. eigenvalues --   -0.13735  -0.06261  -0.03134   0.00064   0.00206
  Beta virt. eigenvalues --    0.01184   0.01699   0.03266   0.03594   0.04190
  Beta virt. eigenvalues --    0.04300   0.05488   0.06030   0.06218   0.06279

 Mulliken charges and spin densities:
               1          2
     1  C    0.056853  -0.000000
     2  C   -0.174978  -0.000000
     3  C   -0.495948   0.000000
     4  C    1.004594  -0.000000
     5  C    0.138045   0.000000
     6  C   -0.366493   0.000000
     7  C   -0.863411   0.000000
     8  C    0.092679  -0.000000
     9  C    0.203714   0.000000
    10  C   -0.908940   0.000000
    11  O   -0.273117  -0.000000
    12  O   -0.298766   0.000000
    13  H    0.192770   0.000000
    14  H    0.235750  -0.000000
    15  S    0.684505   0.000000
    16  H    0.169976  -0.000000
    17  H    0.274249   0.000000
    18  S    0.511724   0.000000
    19  O   -0.275571  -0.000000
    20  O   -0.372756   0.000000
    21  O   -0.368992   0.000000
    22  O   -0.357113   0.000000
    23  O   -0.401770  -0.000000
    24  O   -0.407005  -0.000000
 Sum of Mulliken charges =  -2.00000  -0.00000

 Dipole moment (field-independent basis, Debye):
    X=             11.8028    Y=              5.2133    Z=             -4.3169  Tot=             13.6059
 Quadrupole moment (field-independent basis, Debye-Ang):
   XX=           -261.7821   YY=           -179.7952   ZZ=           -154.0546
   XY=            -15.5740   XZ=             15.1853   YZ=             12.7790

  Exact polarizability: 362.206  44.319 295.883 -27.932 -51.686 180.956
 Approx polarizability: 406.815  54.602 343.044 -31.955 -57.035 217.180

                      1                      2                      3
                      A                      A                      A
 Frequencies --     18.5793                38.7704                55.7806
 Red. masses --     16.0614                11.1751                15.8882
 Frc consts  --      0.0033                 0.0099                 0.0291
 IR Inten    --      0.1415                 0.4912                 0.0591

                      4                      5                      6
                      A                      A                      A
 Frequencies --     68.0612                82.3745                86.1096
 Red. masses --     10.2350                 8.0274                14.0082
 Frc consts  --      0.0279                 0.0321                 0.0612
 IR Inten    --     12.9413                 5.7019                 3.3509

                      7                      8                      9
                      A                      A                      A
 Frequencies --    140.8380               166.6262               191.0652
 Red. masses --      6.4496                11.6893                 7.1903
 Frc consts  --      0.0754                 0.1912                 0.1547
 IR Inten    --      4.6224                23.3285                 1.3592

                     10                     11                     12
                      A                      A                      A
 Frequencies --    203.2336               235.0152               252.4229
 Red. masses --     14.9009                10.9845                14.0996
 Frc consts  --      0.3626                 0.3575                 0.5293
 IR Inten    --      0.1853                 2.5380                 3.5387

                     13                     14                     15
                      A                      A                      A
 Frequencies --    263.9896               311.4886               322.8121
 Red. masses --     13.3050                 7.0843                12.7595
 Frc consts  --      0.5463                 0.4050                 0.7834
 IR Inten    --     13.5278                 1.0673                 9.2241

                     16                     17                     18
                      A                      A                      A
 Frequencies --    369.7920               383.1025               417.7523
 Red. masses --     14.7402                 7.2389                 3.3545
 Frc consts  --      1.1876                 0.6260                 0.3449
 IR Inten    --      9.2491                15.3818                 0.1145

                     19                     20                     21
                      A                      A                      A
 Frequencies --    446.9900               459.1698               482.1969
 Red. masses --     12.5970                 9.6633                10.3560
 Frc consts  --      1.4829                 1.2004                 1.4187
 IR Inten    --      1.5624                 9.5078                83.0048

                     22                     23                     24
                      A                      A                      A
 Frequencies --    488.9491               492.5277               513.6492
 Red. masses --     11.1519                15.2159                 8.5410
 Frc consts  --      1.5708                 2.1748                 1.3277
 IR Inten    --     58.1146                 4.8861                47.5322

                     25                     26                     27
                      A                      A                      A
 Frequencies --    521.4029               550.6393               576.9051
 Red. masses --     12.0004                 5.1989                12.5636
 Frc consts  --      1.9222                 0.9287                 2.4636
 IR Inten    --     24.5374                18.1522               225.7249

                     28                     29                     30
                      A                      A                      A
 Frequencies --    601.3949               630.1896               657.6922
 Red. masses --     16.4456                 8.8892                 6.6850
 Frc consts  --      3.5045                 2.0800                 1.7037
 IR Inten    --    201.9516               199.5396                35.7422

                     31                     32                     33
                      A                      A                      A
 Frequencies --    689.4523               709.7850               716.5942
 Red. masses --      6.4724                 4.7078                 7.1385
 Frc consts  --      1.8127                 1.3974                 2.1597
 IR Inten    --     66.6873                 2.2996                 0.8255

                     34                     35                     36
                      A                      A                      A
 Frequencies --    807.9895               828.0150               865.5670
 Red. masses --      3.0912                 8.2625                 1.5207
 Frc consts  --      1.1890                 3.3376                 0.6713
 IR Inten    --     18.1605                 1.8254                12.5389

                     37                     38                     39
                      A                      A                      A
 Frequencies --    897.0410               905.7997               925.4973
 Red. masses --      1.5133                 1.5077                 6.2609
 Frc consts  --      0.7175                 0.7288                 3.1596
 IR Inten    --      4.4888                35.5966                27.8972

                     40                     41                     42
                      A                      A                      A
 Frequencies --    964.1699               983.1456               996.1249
 Red. masses --      8.5739                11.8866                10.6743
 Frc consts  --      4.6961                 6.7693                 6.2404
 IR Inten    --    272.7936                61.7490               436.9867

                     43                     44                     45
                      A                      A                      A
 Frequencies --   1000.8738              1111.8493              1122.8975
 Red. masses --      1.3676                 2.5394                12.5933
 Frc consts  --      0.8072                 1.8496                 9.3556
 IR Inten    --      3.5109               111.0905               523.5677

                     46                     47                     48
                      A                      A                      A
 Frequencies --   1129.5171              1134.2078              1142.0918
 Red. masses --      3.1008                19.3246                 3.9395
 Frc consts  --      2.3308                14.6469                 3.0275
 IR Inten    --    324.2898               561.6860               313.7199

                     49                     50                     51
                      A                      A                      A
 Frequencies --   1147.2503              1179.6921              1223.0061
 Red. masses --     14.2208                 2.2732                 2.5239
 Frc consts  --     11.0278                 1.8639                 2.2242
 IR Inten    --    373.0314                24.2601                15.7843

                     52                     53                     54
                      A                      A                      A
 Frequencies --   1264.9989              1303.0641              1335.2749
 Red. masses --      3.6762                 1.6962                 2.7159
 Frc consts  --      3.4660                 1.6969                 2.8530
 IR Inten    --    273.8299               180.2027                23.6540

                     55                     56                     57
                      A                      A                      A
 Frequencies --   1342.4256              1418.1438              1504.1820
 Red. masses --      4.0220                 3.9702                 2.6204
 Frc consts  --      4.2704                 4.7044                 3.4932
 IR Inten    --     67.8420                57.9065                 3.1075

                     58                     59                     60
                      A                      A                      A
 Frequencies --   1587.0233              1613.0731              1625.3901
 Red. masses --      6.8993                 5.7759                 8.3751
 Frc consts  --     10.2381                 8.8548                13.0364
 IR Inten    --     16.6066               239.6186               191.3829

                     61                     62                     63
                      A                      A                      A
 Frequencies --   1703.3441              1739.1480              3196.6051
 Red. masses --     12.6832                12.6598                 1.0887
 Frc consts  --     21.6813                22.5606                 6.5545
 IR Inten    --   1081.7471               122.1146                 1.8277

                     64                     65                     66
                      A                      A                      A
 Frequencies --   3202.8202              3210.1871              3234.6571
 Red. masses --      1.0909                 1.0944                 1.0910
 Frc consts  --      6.5935                 6.6446                 6.7257
 IR Inten    --      8.3354                 1.1982                11.1640

 - Thermochemistry -
 -------------------
 Temperature   298.150 Kelvin.  Pressure   1.00000 Atm.
 Atom     1 has atomic number  6 and mass  12.00000

 Molecular mass:   315.93476 amu.
 Principal axes and moments of inertia in atomic units:
                           1         2         3
     Eigenvalues --  4378.558158206.03276**********
           X            0.97459  -0.21623   0.05840
           Y            0.18457   0.92304   0.33755
           Z           -0.12690  -0.31819   0.93949
 This molecule is an asymmetric top.
 Rotational symmetry number  1.
 Warning -- assumption of classical behavior for rotation
           may cause significant error
 Rotational temperatures (Kelvin)      0.01978     0.01055     0.00729
 Rotational constants (GHZ):           0.41218     0.21993     0.15194
 Zero-point vibrational energy     357626.2 (Joules/Mol)
                                   85.47470 (Kcal/Mol)
 Warning -- explicit consideration of  28 degrees of freedom as
           vibrations may cause significant error
 Vibrational temperatures:     26.73    55.78    80.26    97.92   118.52
          (Kelvin)            123.89   202.63   239.74   274.90   292.41
                              338.13   363.18   379.82   448.16   464.45
                              532.05   551.20   601.05   643.12   660.64
                              693.77   703.49   708.64   739.03   750.18
                              792.25   830.04   865.27   906.70   946.27
                              991.97  1021.22  1031.02  1162.52  1191.33
                             1245.36  1290.64  1303.24  1331.58  1387.23
                             1414.53  1433.20  1440.03  1599.70  1615.60
                             1625.12  1631.87  1643.22  1650.64  1697.31
                             1759.63  1820.05  1874.82  1921.16  1931.45
                             2040.39  2164.18  2283.37  2320.85  2338.57
                             2450.73  2502.25  4599.20  4608.14  4618.74
                             4653.95

 Zero-point correction=                           0.136213 (Hartree/Particle)
 Thermal correction to Energy=                    0.153105
 Thermal correction to Enthalpy=                  0.154049
 Thermal correction to Gibbs Free Energy=         0.089231
 Sum of electronic and zero-point Energies=          -1782.052903
 Sum of electronic and thermal Energies=             -1782.036011
 Sum of electronic and thermal Enthalpies=           -1782.035067
 Sum of electronic and thermal Free Energies=        -1782.099885

                     E (Thermal)             CV                S
                      KCal/Mol        Cal/Mol-Kelvin    Cal/Mol-Kelvin
 Total                   96.075             62.593            136.422
 Electronic               0.000              0.000              0.000
 Translational            0.889              2.981             43.147
 Rotational               0.889              2.981             34.411
 Vibrational             94.297             56.632             58.864
 Vibration     1          0.593              1.986              6.781
 Vibration     2          0.594              1.981              5.321
 Vibration     3          0.596              1.975              4.601
 Vibration     4          0.598              1.969              4.209
 Vibration     5          0.600              1.961              3.833
 Vibration     6          0.601              1.959              3.747
 Vibration     7          0.615              1.912              2.792
 Vibration     8          0.624              1.884              2.473
 Vibration     9          0.634              1.852              2.217
 Vibration    10          0.639              1.835              2.104
 Vibration    11          0.655              1.787              1.840
 Vibration    12          0.664              1.759              1.714
 Vibration    13          0.671              1.739              1.635
 Vibration    14          0.700              1.652              1.354
 Vibration    15          0.708              1.630              1.296
 Vibration    16          0.742              1.534              1.081
 Vibration    17          0.752              1.506              1.027
 Vibration    18          0.781              1.432              0.900
 Vibration    19          0.806              1.368              0.805
 Vibration    20          0.817              1.341              0.769
 Vibration    21          0.838              1.290              0.704
 Vibration    22          0.845              1.275              0.686
 Vibration    23          0.848              1.267              0.677
 Vibration    24          0.869              1.220              0.625
 Vibration    25          0.876              1.203              0.607
 Vibration    26          0.906              1.138              0.543
 Vibration    27          0.933              1.081              0.491
 Vibration    28          0.960              1.029              0.447

                           ! Non-Optimized Parameters !
 Normal termination of Gaussian 16 at Sun Feb 11 20:43:11 2024.
