 Q-Chem 5.4, Q-Chem, Inc., Pleasanton, CA (2021)
 Q-Chem 5.4.0 for Intel X86 EM64T Linux

User input:
--------------------------------------------------------------
$molecule
-2 1
C                 -0.6673730000     -1.2246510000      2.5414880000
C                 -0.8005440000     -1.8024090000      1.2045130000
C                 -0.4959440000     -1.1341160000      0.0634660000
C                  0.0673480000      0.2158770000      0.0278810000
C                  0.3013610000      0.8039190000      1.3241940000
C                 -0.2322160000      0.1371270000      2.5174840000
O                 -0.9541490000     -1.9289110000      3.5610520000
O                  0.3748720000      0.7098490000     -1.1100430000
S                 -0.6311540000      1.0883270000      3.9533960000
C                  0.6122910000      0.7017640000      5.2331530000
C                  0.5308060000     -0.5194100000      5.9060420000
C                  1.6202680000      1.6193230000      5.5239800000
C                  2.5427230000      1.3230000000      6.5276280000
C                  1.4628960000     -0.8071680000      6.9025860000
C                  2.4645600000      0.1139230000      7.2235730000
O                 -0.5190170000      2.5411990000      3.6925030000
O                 -1.9135360000      0.6508360000      4.5538260000
H                 -1.1916590000     -2.8186700000      1.1763140000
H                 -0.6303600000     -1.6012460000     -0.9113480000
H                 -0.2358080000     -1.2242670000      5.5984850000
H                  1.6756670000      2.5293440000      4.9407480000
H                  3.3325060000      2.0329640000      6.7587020000
H                  1.4106280000     -1.7571830000      7.4280520000
H                  3.1877710000     -0.1148840000      8.0024740000
C                  1.3082610000      1.8481060000      1.4542370000
C                  1.5989690000      2.7656030000      0.2704010000
O                  1.9969950000      2.0067240000      2.4786230000
H                  0.6807260000      3.1808760000     -0.1528030000
H                  2.0602880000      2.1991120000     -0.5437230000
H                  2.2614150000      3.5619620000      0.6239360000
$end

$rem
BASIS  =  6-311++G(d,p)
GUI  =  2
JOB_TYPE  =  SP
METHOD  =  B3LYP
SCF_CONVERGENCE  = 8
SOLVENT_METHOD = sm12
$end

$smx
solvent dimethylformamide
charges CM5
$end

--------------------------------------------------------------

             Standard Nuclear Orientation (Angstroms)
    I     Atom           X                Y                Z
 ----------------------------------------------------------------
    1      C      -0.6673730000    -1.2246510000     2.5414880000
    2      C      -0.8005440000    -1.8024090000     1.2045130000
    3      C      -0.4959440000    -1.1341160000     0.0634660000
    4      C       0.0673480000     0.2158770000     0.0278810000
    5      C       0.3013610000     0.8039190000     1.3241940000
    6      C      -0.2322160000     0.1371270000     2.5174840000
    7      O      -0.9541490000    -1.9289110000     3.5610520000
    8      O       0.3748720000     0.7098490000    -1.1100430000
    9      S      -0.6311540000     1.0883270000     3.9533960000
   10      C       0.6122910000     0.7017640000     5.2331530000
   11      C       0.5308060000    -0.5194100000     5.9060420000
   12      C       1.6202680000     1.6193230000     5.5239800000
   13      C       2.5427230000     1.3230000000     6.5276280000
   14      C       1.4628960000    -0.8071680000     6.9025860000
   15      C       2.4645600000     0.1139230000     7.2235730000
   16      O      -0.5190170000     2.5411990000     3.6925030000
   17      O      -1.9135360000     0.6508360000     4.5538260000
   18      H      -1.1916590000    -2.8186700000     1.1763140000
   19      H      -0.6303600000    -1.6012460000    -0.9113480000
   20      H      -0.2358080000    -1.2242670000     5.5984850000
   21      H       1.6756670000     2.5293440000     4.9407480000
   22      H       3.3325060000     2.0329640000     6.7587020000
   23      H       1.4106280000    -1.7571830000     7.4280520000
   24      H       3.1877710000    -0.1148840000     8.0024740000
   25      C       1.3082610000     1.8481060000     1.4542370000
   26      C       1.5989690000     2.7656030000     0.2704010000
   27      O       1.9969950000     2.0067240000     2.4786230000
   28      H       0.6807260000     3.1808760000    -0.1528030000
   29      H       2.0602880000     2.1991120000    -0.5437230000
   30      H       2.2614150000     3.5619620000     0.6239360000
 ----------------------------------------------------------------

   17   -1314.0230596494      8.21e-09  Convergence criterion met
 Total energy in the final basis set =    -1314.2888918446

                    Orbital Energies (a.u.)
 --------------------------------------------------------------

 Alpha MOs
 -- Occupied --
-89.0221 -19.0859 -19.0829 -19.0700 -19.0428 -19.0420 -10.2269 -10.2094
-10.2078 -10.1985 -10.1882 -10.1862 -10.1858 -10.1839 -10.1810 -10.1663
-10.1647 -10.1613 -10.1542 -10.1489  -8.0851  -6.0482  -6.0470  -6.0459
 -1.0753  -0.9975  -0.9698  -0.9633  -0.9613  -0.8675  -0.8087  -0.7703
 -0.7569  -0.7493  -0.7245  -0.6855  -0.6517  -0.6165  -0.6131  -0.5909
 -0.5546  -0.5239  -0.5104  -0.4803  -0.4698  -0.4631  -0.4588  -0.4510
 -0.4462  -0.4344  -0.4310  -0.4222  -0.4169  -0.3977  -0.3870  -0.3858
 -0.3789  -0.3773  -0.3706  -0.3605  -0.3574  -0.3512  -0.3354  -0.3319
 -0.3106  -0.2954  -0.2793  -0.2733  -0.2658  -0.2628  -0.2514  -0.2349
 -0.2261  -0.2140  -0.2076  -0.1486

          Ground-State Mulliken Net Atomic Charges

     Atom                 Charge (a.u.)
  ----------------------------------------
      1 C                    -0.795951
      2 C                     0.127673
      3 C                     0.388692
      4 C                    -1.174166
      5 C                    -0.267307
      6 C                    -0.898755
      7 O                    -0.264379
      8 O                    -0.317504
      9 S                    -0.141593
     10 C                    -2.776647
     11 C                    -1.183252
     12 C                    -0.437517
     13 C                     1.006526
     14 C                     0.945776
     15 C                     2.036931
     16 O                    -0.199977
     17 O                    -0.099866
     18 H                     0.253165
     19 H                     0.251669
     20 H                     0.099178
     21 H                     0.137322
     22 H                     0.386699
     23 H                     0.368719
     24 H                     0.484147
     25 C                    -0.239516
     26 C                     0.065502
     27 O                    -0.236946
     28 H                     0.113128
     29 H                     0.125236
     30 H                     0.243012
  ----------------------------------------
  Sum of atomic charges =    -2.000000

                    Cartesian Multipole Moments
 -----------------------------------------------------------------
    Charge (ESU x 10^10)
                -9.6064
    Dipole Moment (Debye)
         X       2.0644      Y      -5.0483      Z     -21.6132
       Tot      22.2907
    Quadrupole Moments (Debye-Ang)
        XX    -150.7858     XY      -7.8423     YY    -161.8960
        XZ      21.0747     YZ      -9.9216     ZZ    -232.5155

 Total job time:  890.37s(wall), 6846.42s(cpu)
        *  Thank you very much for using Q-Chem.  Have a nice day.  *
