 Gaussian 16, Revision A.03,
 Gaussian 16:  ES64L-G16RevA.03 25-Dec-2016

 --------------------------------------
 #P UB3LYP/6-311++G(d,p) nosym opt freq
 --------------------------------------

 -------
 Reduced
 -------
 Symbolic Z-matrix:
 Charge = -2 Multiplicity = 1

 SCF Done:  E(UB3LYP) =  -1314.03063033     A.U. after   23 cycles
 Optimization completed.
    -- Stationary point found.
 Normal termination of Gaussian 16 at Wed Jan 10 04:59:52 2024.

 ----------------------------------------------------------------------
 #P Geom=AllCheck Guess=TCheck SCRF=Check GenChk UB3LYP/6-311++G(d,p) F
 req
 ----------------------------------------------------------------------

 Structure from the checkpoint file:  "067-an.chk"
 -------
 Reduced
 -------
 Charge = -2 Multiplicity = 1

                          Input orientation:
 ---------------------------------------------------------------------
 Center     Atomic      Atomic             Coordinates (Angstroms)
 Number     Number       Type             X           Y           Z
 ---------------------------------------------------------------------
      1          6           0       -0.667373   -1.224651    2.541488
      2          6           0       -0.800544   -1.802409    1.204513
      3          6           0       -0.495944   -1.134116    0.063466
      4          6           0        0.067348    0.215877    0.027881
      5          6           0        0.301361    0.803919    1.324194
      6          6           0       -0.232216    0.137127    2.517484
      7          8           0       -0.954149   -1.928911    3.561052
      8          8           0        0.374872    0.709849   -1.110043
      9         16           0       -0.631154    1.088327    3.953396
     10          6           0        0.612291    0.701764    5.233153
     11          6           0        0.530806   -0.519410    5.906042
     12          6           0        1.620268    1.619323    5.523980
     13          6           0        2.542723    1.323000    6.527628
     14          6           0        1.462896   -0.807168    6.902586
     15          6           0        2.464560    0.113923    7.223573
     16          8           0       -0.519017    2.541199    3.692503
     17          8           0       -1.913536    0.650836    4.553826
     18          1           0       -1.191659   -2.818670    1.176314
     19          1           0       -0.630360   -1.601246   -0.911348
     20          1           0       -0.235808   -1.224267    5.598485
     21          1           0        1.675667    2.529344    4.940748
     22          1           0        3.332506    2.032964    6.758702
     23          1           0        1.410628   -1.757183    7.428052
     24          1           0        3.187771   -0.114884    8.002474
     25          6           0        1.308261    1.848106    1.454237
     26          6           0        1.598969    2.765603    0.270401
     27          8           0        1.996995    2.006724    2.478623
     28          1           0        0.680726    3.180876   -0.152803
     29          1           0        2.060288    2.199112   -0.543723
     30          1           0        2.261415    3.561962    0.623936
 ---------------------------------------------------------------------

 SCF Done:  E(UB3LYP) =  -1314.03063033     A.U. after    2 cycles

 Alpha  occ. eigenvalues --  -88.78750 -18.85012 -18.84766 -18.82913 -18.80168
 Alpha  occ. eigenvalues --  -18.80013  -9.98646  -9.98396  -9.97956  -9.97862
 Alpha  occ. eigenvalues --   -9.97707  -9.96867  -9.96809  -9.96536  -9.96449
 Alpha  occ. eigenvalues --   -9.92416  -9.92270  -9.92242  -9.91755  -9.90641
 Alpha  occ. eigenvalues --   -7.85027  -5.81330  -5.81230  -5.81098  -0.84010
 Alpha  occ. eigenvalues --   -0.75670  -0.73303  -0.72287  -0.71925  -0.65573
 Alpha  occ. eigenvalues --   -0.56779  -0.55383  -0.54588  -0.51065  -0.48748
 Alpha  occ. eigenvalues --   -0.44826  -0.42160  -0.40459  -0.38577  -0.35669
 Alpha  occ. eigenvalues --   -0.32972  -0.30142  -0.27266  -0.25562  -0.25145
 Alpha  occ. eigenvalues --   -0.23806  -0.22589  -0.22483  -0.21994  -0.20825
 Alpha  occ. eigenvalues --   -0.19551  -0.18616  -0.17917  -0.17002  -0.16624
 Alpha  occ. eigenvalues --   -0.15747  -0.15066  -0.14159  -0.13873  -0.13225
 Alpha  occ. eigenvalues --   -0.11909  -0.11576  -0.09562  -0.09197  -0.07463
 Alpha  occ. eigenvalues --   -0.06366  -0.05739  -0.05138  -0.03848  -0.03316
 Alpha  occ. eigenvalues --   -0.01041   0.00524   0.01459   0.02587   0.03280
 Alpha  occ. eigenvalues --    0.09340
 Alpha virt. eigenvalues --    0.13956   0.16087   0.17531   0.17715   0.17940
 Alpha virt. eigenvalues --    0.18229   0.18831   0.19829   0.20094   0.21087
 Alpha virt. eigenvalues --    0.21484   0.22163   0.22602   0.23180   0.24777

  Beta  occ. eigenvalues --  -88.78750 -18.85012 -18.84766 -18.82913 -18.80168
  Beta  occ. eigenvalues --  -18.80013  -9.98646  -9.98396  -9.97956  -9.97862
  Beta  occ. eigenvalues --   -9.97707  -9.96867  -9.96809  -9.96536  -9.96449
  Beta  occ. eigenvalues --   -9.92416  -9.92270  -9.92242  -9.91755  -9.90641
  Beta  occ. eigenvalues --   -7.85027  -5.81330  -5.81230  -5.81098  -0.84010
  Beta  occ. eigenvalues --   -0.75670  -0.73303  -0.72287  -0.71925  -0.65573
  Beta  occ. eigenvalues --   -0.56779  -0.55383  -0.54588  -0.51065  -0.48748
  Beta  occ. eigenvalues --   -0.44826  -0.42160  -0.40459  -0.38577  -0.35669
  Beta  occ. eigenvalues --   -0.32972  -0.30142  -0.27266  -0.25562  -0.25145
  Beta  occ. eigenvalues --   -0.23806  -0.22589  -0.22483  -0.21994  -0.20825
  Beta  occ. eigenvalues --   -0.19551  -0.18616  -0.17917  -0.17002  -0.16624
  Beta  occ. eigenvalues --   -0.15747  -0.15066  -0.14159  -0.13873  -0.13225
  Beta  occ. eigenvalues --   -0.11909  -0.11576  -0.09562  -0.09197  -0.07463
  Beta  occ. eigenvalues --   -0.06366  -0.05739  -0.05138  -0.03848  -0.03316
  Beta  occ. eigenvalues --   -0.01041   0.00524   0.01459   0.02587   0.03280
  Beta  occ. eigenvalues --    0.09340
  Beta virt. eigenvalues --    0.13956   0.16087   0.17531   0.17715   0.17940
  Beta virt. eigenvalues --    0.18229   0.18831   0.19829   0.20094   0.21087
  Beta virt. eigenvalues --    0.21484   0.22163   0.22602   0.23180   0.24777

 Mulliken charges and spin densities:
               1          2
     1  C   -0.375802  -0.000000
     2  C   -0.272292  -0.000000
     3  C   -0.053280  -0.000000
     4  C   -0.868048  -0.000000
     5  C    1.059596   0.000000
     6  C    0.302184   0.000000
     7  O   -0.393314   0.000000
     8  O   -0.466516   0.000000
     9  S    0.417477   0.000000
    10  C   -0.145908  -0.000000
    11  C    0.020757   0.000000
    12  C    0.095016   0.000000
    13  C   -0.489265  -0.000000
    14  C   -0.479879   0.000000
    15  C   -0.209986  -0.000000
    16  O   -0.233051   0.000000
    17  O   -0.138383   0.000000
    18  H    0.114488   0.000000
    19  H    0.106510  -0.000000
    20  H    0.292991  -0.000000
    21  H    0.278081   0.000000
    22  H    0.124095  -0.000000
    23  H    0.124295   0.000000
    24  H    0.096787   0.000000
    25  C   -0.371813  -0.000000
    26  C   -0.607425   0.000000
    27  O   -0.320794  -0.000000
    28  H    0.148160  -0.000000
    29  H    0.159589   0.000000
    30  H    0.085733   0.000000
 Sum of Mulliken charges =  -2.00000   0.00000

 Dipole moment (field-independent basis, Debye):
    X=              0.3688    Y=             -5.0591    Z=            -23.8505  Tot=             24.3840
 Quadrupole moment (field-independent basis, Debye-Ang):
   XX=           -155.0457   YY=           -162.5227   ZZ=           -255.9549
   XY=             -8.7811   XZ=              9.3327   YZ=             -9.2285

  Exact polarizability: 197.459  48.657 240.659  44.679   3.170 325.551
 Approx polarizability: 324.193  97.465 427.328  70.901  16.364 479.694

                      1                      2                      3
                      A                      A                      A
 Frequencies --     28.2383                45.9918                61.8613
 Red. masses --      4.3293                 5.9163                 4.3231
 Frc consts  --      0.0020                 0.0074                 0.0097
 IR Inten    --      0.9026                 0.3932                 4.0455

                      4                      5                      6
                      A                      A                      A
 Frequencies --     70.3961                85.3193               116.7482
 Red. masses --      3.6883                 3.4444                 4.3124
 Frc consts  --      0.0108                 0.0148                 0.0346
 IR Inten    --      4.2493                 3.7499                 4.1717

                      7                      8                      9
                      A                      A                      A
 Frequencies --    131.6089               153.1502               164.6842
 Red. masses --      1.8178                 5.4357                10.1725
 Frc consts  --      0.0186                 0.0751                 0.1625
 IR Inten    --      2.7518                 2.4112                 1.3896

                     10                     11                     12
                      A                      A                      A
 Frequencies --    189.5909               211.3013               231.3065
 Red. masses --     10.1070                 5.6588                 7.8143
 Frc consts  --      0.2140                 0.1489                 0.2463
 IR Inten    --      1.3839                 8.9574                 3.7734

                     13                     14                     15
                      A                      A                      A
 Frequencies --    269.7027               294.8107               310.4568
 Red. masses --     10.2089                 7.4657                 6.9855
 Frc consts  --      0.4375                 0.3823                 0.3967
 IR Inten    --      0.9927                 0.5073                 0.3754

                     16                     17                     18
                      A                      A                      A
 Frequencies --    318.7458               353.2050               379.5769
 Red. masses --      6.7543                 4.2723                 6.8234
 Frc consts  --      0.4043                 0.3140                 0.5792
 IR Inten    --      0.9788                 2.3987                 3.7837

                     19                     20                     21
                      A                      A                      A
 Frequencies --    399.1936               411.4876               426.7010
 Red. masses --      8.7833                 2.9539                 6.5063
 Frc consts  --      0.8247                 0.2947                 0.6980
 IR Inten    --      2.1859                 0.3145                14.4866

                     22                     23                     24
                      A                      A                      A
 Frequencies --    462.5500               467.5805               512.2395
 Red. masses --      8.5148                 6.2824                 5.7848
 Frc consts  --      1.0733                 0.8093                 0.8943
 IR Inten    --      8.9244                 5.1286                16.6693

                     25                     26                     27
                      A                      A                      A
 Frequencies --    543.6053               561.4650               591.2142
 Red. masses --      5.2705                 6.0038                 3.3938
 Frc consts  --      0.9176                 1.1151                 0.6989
 IR Inten    --     44.1361               124.6660                 9.9432

                     28                     29                     30
                      A                      A                      A
 Frequencies --    608.6332               627.6278               631.5192
 Red. masses --      5.6049                 6.3156                 4.3132
 Frc consts  --      1.2233                 1.4658                 1.0135
 IR Inten    --     80.5675                 1.1692                 1.5564

                     31                     32                     33
                      A                      A                      A
 Frequencies --    645.4002               691.1864               703.5280
 Red. masses --      2.8302                 1.8139                 6.2459
 Frc consts  --      0.6946                 0.5106                 1.8214
 IR Inten    --      3.9841                55.4282                 9.3081

                     34                     35                     36
                      A                      A                      A
 Frequencies --    741.5230               749.0903               767.0556
 Red. masses --      3.3506                 2.8185                 6.4087
 Frc consts  --      1.0855                 0.9318                 2.2216
 IR Inten    --     36.2602                18.2700                 6.4410

                     37                     38                     39
                      A                      A                      A
 Frequencies --    835.9155               837.5500               863.0094
 Red. masses --      2.1515                 1.3336                 5.5056
 Frc consts  --      0.8857                 0.5512                 2.4159
 IR Inten    --     46.4150                 4.2679                56.3802

                     40                     41                     42
                      A                      A                      A
 Frequencies --    899.8224               908.7403               963.9830
 Red. masses --      4.9566                 1.5009                 1.3060
 Frc consts  --      2.3645                 0.7303                 0.7151
 IR Inten    --     37.4498                10.7392                 1.2340

                     43                     44                     45
                      A                      A                      A
 Frequencies --    966.5191               982.2054               985.8590
 Red. masses --      1.3093                 1.4058                 1.9621
 Frc consts  --      0.7206                 0.7991                 1.1236
 IR Inten    --      4.4866                 6.0999                58.0503

                     46                     47                     48
                      A                      A                      A
 Frequencies --   1010.7328              1026.4422              1035.7718
 Red. masses --      4.6581                 1.9955                 4.7121
 Frc consts  --      2.8037                 1.2387                 2.9785
 IR Inten    --     20.4625                13.4418                92.6697

                     49                     50                     51
                      A                      A                      A
 Frequencies --   1049.5168              1072.3192              1087.4131
 Red. masses --      3.2056                 3.4781                 1.6522
 Frc consts  --      2.0804                 2.3563                 1.1511
 IR Inten    --     83.4243                46.2437                10.5373

                     52                     53                     54
                      A                      A                      A
 Frequencies --   1097.4603              1108.2287              1165.4462
 Red. masses --      3.4451                 1.5626                 1.1057
 Frc consts  --      2.4447                 1.1307                 0.8849
 IR Inten    --     71.6103                57.2296                 0.4884

                     55                     56                     57
                      A                      A                      A
 Frequencies --   1187.4469              1191.4547              1196.0234
 Red. masses --      2.6398                 1.1973                 7.3721
 Frc consts  --      2.1930                 1.0014                 6.2133
 IR Inten    --     39.0932                 5.5094               170.0949

                     58                     59                     60
                      A                      A                      A
 Frequencies --   1240.9070              1288.5449              1327.7351
 Red. masses --      9.5993                 3.2180                 2.9473
 Frc consts  --      8.7090                 3.1480                 3.0612
 IR Inten    --     46.5955               156.2320                 4.1725

                     61                     62                     63
                      A                      A                      A
 Frequencies --   1343.1909              1348.3232              1371.2842
 Red. masses --      2.3123                 1.7111                 1.5804
 Frc consts  --      2.4579                 1.8328                 1.7510
 IR Inten    --     94.8044                 8.4129                73.6809

                     64                     65                     66
                      A                      A                      A
 Frequencies --   1413.5809              1428.6185              1457.6994
 Red. masses --      4.1107                 1.1631                 1.0639
 Frc consts  --      4.8396                 1.3986                 1.3319
 IR Inten    --     40.2183                35.8242                11.0039

                     67                     68                     69
                      A                      A                      A
 Frequencies --   1463.3562              1484.2540              1499.6274
 Red. masses --      2.1919                 8.7898                 2.2317
 Frc consts  --      2.7654                11.4090                 2.9570
 IR Inten    --      5.4105               103.5175               180.2046

                     70                     71                     72
                      A                      A                      A
 Frequencies --   1510.7584              1593.3902              1608.2094
 Red. masses --      4.9255                 7.7364                 5.4887
 Frc consts  --      6.6235                11.5727                 8.3638
 IR Inten    --    554.9103               352.3443                59.0147

                     73                     74                     75
                      A                      A                      A
 Frequencies --   1610.7133              1631.8886              3006.3781
 Red. masses --      5.4925                 6.9225                 1.0342
 Frc consts  --      8.3957                10.8616                 5.5071
 IR Inten    --    109.6717                32.8015                92.2228

                     76                     77                     78
                      A                      A                      A
 Frequencies --   3077.9523              3086.7989              3094.3059
 Red. masses --      1.0987                 1.1025                 1.0835
 Frc consts  --      6.1328                 6.1896                 6.1122
 IR Inten    --     20.5175                30.3733                30.0197

                     79                     80                     81
                      A                      A                      A
 Frequencies --   3115.6203              3122.8948              3133.6967
 Red. masses --      1.0830                 1.0950                 1.0890
 Frc consts  --      6.1941                 6.2918                 6.3007
 IR Inten    --      1.9255               135.7804                65.8544

                     82                     83                     84
                      A                      A                      A
 Frequencies --   3147.7651              3162.6596              3207.5826
 Red. masses --      1.0949                 1.0948                 1.0921
 Frc consts  --      6.3919                 6.4517                 6.6200
 IR Inten    --     89.2362                36.7740                 7.7995

 - Thermochemistry -
 -------------------
 Temperature   298.150 Kelvin.  Pressure   1.00000 Atm.
 Atom     1 has atomic number  6 and mass  12.00000

 Molecular mass:   290.02490 amu.
 Principal axes and moments of inertia in atomic units:
                           1         2         3
     Eigenvalues --  3357.960826971.736178444.86634
           X            0.17628   0.57450   0.79929
           Y           -0.00453   0.81248  -0.58298
           Z            0.98433  -0.09914  -0.14583
 This molecule is an asymmetric top.
 Rotational symmetry number  1.
 Warning -- assumption of classical behavior for rotation
           may cause significant error
 Rotational temperatures (Kelvin)      0.02579     0.01242     0.01026
 Rotational constants (GHZ):           0.53745     0.25887     0.21371
 Zero-point vibrational energy     545544.3 (Joules/Mol)
                                  130.38823 (Kcal/Mol)
 Warning -- explicit consideration of  28 degrees of freedom as
           vibrations may cause significant error
 Vibrational temperatures:     40.63    66.17    89.00   101.28   122.76
          (Kelvin)            167.97   189.36   220.35   236.94   272.78
                              304.02   332.80   388.04   424.17   446.68
                              458.60   508.18   546.13   574.35   592.04
                              613.93   665.51   672.74   737.00   782.13
                              807.82   850.63   875.69   903.02   908.62
                              928.59   994.46  1012.22  1066.89  1077.77
                             1103.62  1202.70  1205.05  1241.68  1294.64
                             1307.47  1386.96  1390.61  1413.17  1418.43
                             1454.22  1476.82  1490.24  1510.02  1542.83
                             1564.54  1579.00  1594.49  1676.82  1708.47
                             1714.24  1720.81  1785.39  1853.93  1910.31
                             1932.55  1939.94  1972.97  2033.83  2055.46
                             2097.30  2105.44  2135.51  2157.63  2173.64
                             2292.53  2313.85  2317.46  2347.92  4325.51
                             4428.49  4441.22  4452.02  4482.68  4493.15
                             4508.69  4528.93  4550.36  4615.00

 Zero-point correction=                           0.207787 (Hartree/Particle)
 Thermal correction to Energy=                    0.225486
 Thermal correction to Enthalpy=                  0.226430
 Thermal correction to Gibbs Free Energy=         0.161482
 Sum of electronic and zero-point Energies=          -1313.822843
 Sum of electronic and thermal Energies=             -1313.805145
 Sum of electronic and thermal Enthalpies=           -1313.804201
 Sum of electronic and thermal Free Energies=        -1313.869149

                     E (Thermal)             CV                S
                      KCal/Mol        Cal/Mol-Kelvin    Cal/Mol-Kelvin
 Total                  141.494             67.384            136.695
 Electronic               0.000              0.000              0.000
 Translational            0.889              2.981             42.892
 Rotational               0.889              2.981             33.647
 Vibrational            139.717             61.422             60.156
 Vibration     1          0.593              1.984              5.949
 Vibration     2          0.595              1.979              4.983
 Vibration     3          0.597              1.973              4.397
 Vibration     4          0.598              1.968              4.142
 Vibration     5          0.601              1.959              3.765
 Vibration     6          0.608              1.935              3.154
 Vibration     7          0.612              1.922              2.922
 Vibration     8          0.619              1.899              2.633
 Vibration     9          0.623              1.886              2.495
 Vibration    10          0.633              1.854              2.232
 Vibration    11          0.643              1.824              2.032
 Vibration    12          0.653              1.793              1.869
 Vibration    13          0.674              1.729              1.598
 Vibration    14          0.689              1.683              1.446
 Vibration    15          0.699              1.654              1.360
 Vibration    16          0.705              1.638              1.317
 Vibration    17          0.729              1.569              1.152
 Vibration    18          0.750              1.514              1.041
 Vibration    19          0.765              1.472              0.966
 Vibration    20          0.775              1.445              0.921
 Vibration    21          0.788              1.412              0.869
 Vibration    22          0.820              1.333              0.759
 Vibration    23          0.825              1.322              0.744
 Vibration    24          0.867              1.223              0.628
 Vibration    25          0.899              1.154              0.558
 Vibration    26          0.917              1.115              0.521
 Vibration    27          0.949              1.051              0.465
 Vibration    28          0.968              1.014              0.435

 Optimization completed.
    -- Stationary point found.
 Normal termination of Gaussian 16 at Wed Jan 10 06:45:52 2024.
