 Gaussian 16, Revision A.03,
 Gaussian 16:  ES64L-G16RevA.03 25-Dec-2016

 ----------------------------------------------------------------
 #P UB3LYP/6-311++G(d,p) SCRF=(PCM,Solvent=n,n-DiMethylFormamide)
 ----------------------------------------------------------------

 ------------------
 Radical PCM in DMF
 ------------------
 Symbolic Z-matrix:
 Charge = -1 Multiplicity = 2

                         Standard orientation:
 ---------------------------------------------------------------------
 Center     Atomic      Atomic             Coordinates (Angstroms)
 Number     Number       Type             X           Y           Z
 ---------------------------------------------------------------------
      1          6           0        0.574532    2.292807    0.313177
      2          6           0       -0.248542    3.348005   -0.247811
      3          6           0       -1.460976    3.101925   -0.807541
      4          6           0       -2.024946    1.770416   -0.900323
      5          6           0       -1.239062    0.681929   -0.327155
      6          6           0       -0.028736    0.962980    0.288660
      7          8           0        1.724709    2.516541    0.755287
      8          8           0       -3.139130    1.566526   -1.453946
      9         16           0        0.901014   -0.324941    1.132247
     10          6           0        2.385105   -0.587260    0.128699
     11          6           0        2.314613   -1.467339   -0.949278
     12          6           0        3.562045    0.079498    0.456691
     13          6           0        4.700985   -0.154319   -0.311827
     14          6           0        3.459381   -1.687214   -1.712978
     15          6           0        4.650806   -1.035179   -1.392629
     16          8           0        0.108932   -1.567447    1.031720
     17          8           0        1.325164    0.114403    2.467165
     18          1           0        0.172197    4.348014   -0.209343
     19          1           0       -2.061740    3.899481   -1.234403
     20          1           0        1.378103   -1.960315   -1.181018
     21          1           0        3.560916    0.776479    1.283527
     22          1           0        5.625689    0.358566   -0.070151
     23          1           0        3.419219   -2.367678   -2.556586
     24          1           0        5.539801   -1.209432   -1.990164
     25          6           0       -1.804457   -0.712568   -0.609876
     26          8           0       -1.382458   -1.312768   -1.575840
     27          6           0       -2.983347   -1.288167    0.220817
     28          6           0       -3.237058   -0.482813    1.504426
     29          6           0       -4.242646   -1.259448   -0.679280
     30          6           0       -2.671166   -2.758092    0.572388
     31          1           0       -3.505181    0.552470    1.281731
     32          1           0       -2.358389   -0.483440    2.153546
     33          1           0       -4.067176   -0.931792    2.060802
     34          1           0       -4.489432   -0.241131   -0.977768
     35          1           0       -5.084390   -1.697760   -0.130952
     36          1           0       -4.073367   -1.850317   -1.583112
     37          1           0       -1.825153   -2.829454    1.254902
     38          1           0       -2.432779   -3.322766   -0.331412
     39          1           0       -3.551470   -3.210865    1.042412
 ---------------------------------------------------------------------

 SCF Done:  E(UB3LYP) =  -1432.13236354     A.U. after   23 cycles

 The electronic state is 2-A.
 Alpha  occ. eigenvalues --  -89.05463 -19.12205 -19.12143 -19.11881 -19.09385
 Alpha  occ. eigenvalues --  -19.09319 -10.27429 -10.24572 -10.24066 -10.21377
 Alpha  occ. eigenvalues --  -10.21234 -10.20666 -10.19531 -10.19315 -10.19063
 Alpha  occ. eigenvalues --  -10.18937 -10.18892 -10.18838 -10.18060 -10.17940
 Alpha  occ. eigenvalues --  -10.15474 -10.15191 -10.15073  -8.11852  -6.08142
 Alpha  occ. eigenvalues --   -6.08019  -6.07943  -1.11477  -1.05847  -1.02232
 Alpha  occ. eigenvalues --   -1.01772  -1.00902  -0.87868  -0.85002  -0.81489
 Alpha  occ. eigenvalues --   -0.78997  -0.77280  -0.76527  -0.72501  -0.68368
 Alpha  occ. eigenvalues --   -0.68022  -0.67793  -0.64577  -0.62455  -0.62017
 Alpha  occ. eigenvalues --   -0.59161  -0.57835  -0.54239  -0.52595  -0.50458
 Alpha  occ. eigenvalues --   -0.50027  -0.48592  -0.48220  -0.47824  -0.46713
 Alpha  occ. eigenvalues --   -0.45892  -0.45648  -0.45489  -0.43971  -0.43536
 Alpha  occ. eigenvalues --   -0.42802  -0.42536  -0.42250  -0.41129  -0.39716
 Alpha  occ. eigenvalues --   -0.39388  -0.39261  -0.38528  -0.38212  -0.38033
 Alpha  occ. eigenvalues --   -0.37252  -0.36787  -0.36201  -0.36051  -0.34435
 Alpha  occ. eigenvalues --   -0.33324  -0.32796  -0.32331  -0.31383  -0.30623
 Alpha  occ. eigenvalues --   -0.30129  -0.28626  -0.27477  -0.27146  -0.26551
 Alpha  occ. eigenvalues --   -0.25889  -0.24461  -0.18145
 Alpha virt. eigenvalues --   -0.05453  -0.03466  -0.02825  -0.02406  -0.00415
 Alpha virt. eigenvalues --    0.00267   0.00516   0.00877   0.01538   0.01958
 Alpha virt. eigenvalues --    0.02311   0.02748   0.03098   0.03451   0.03873

  Beta  occ. eigenvalues --  -89.05465 -19.12180 -19.12134 -19.11884 -19.08692
  Beta  occ. eigenvalues --  -19.08619 -10.27445 -10.24488 -10.23955 -10.21376
  Beta  occ. eigenvalues --  -10.21123 -10.20400 -10.19527 -10.19311 -10.19059
  Beta  occ. eigenvalues --  -10.18934 -10.18894 -10.18839 -10.18010 -10.17852
  Beta  occ. eigenvalues --  -10.15473 -10.15190 -10.15072  -8.11854  -6.08143
  Beta  occ. eigenvalues --   -6.08022  -6.07947  -1.11458  -1.05778  -1.01285
  Beta  occ. eigenvalues --   -1.00772  -1.00443  -0.87860  -0.84368  -0.81459
  Beta  occ. eigenvalues --   -0.78871  -0.77100  -0.76521  -0.71826  -0.68347
  Beta  occ. eigenvalues --   -0.68007  -0.67362  -0.64353  -0.62450  -0.61865
  Beta  occ. eigenvalues --   -0.58956  -0.57649  -0.54143  -0.52409  -0.50283
  Beta  occ. eigenvalues --   -0.49783  -0.48511  -0.48134  -0.47798  -0.46512
  Beta  occ. eigenvalues --   -0.45800  -0.45620  -0.45425  -0.43949  -0.43457
  Beta  occ. eigenvalues --   -0.42319  -0.41997  -0.41260  -0.40640  -0.39410
  Beta  occ. eigenvalues --   -0.39110  -0.38752  -0.38167  -0.38024  -0.37187
  Beta  occ. eigenvalues --   -0.36865  -0.36313  -0.36175  -0.35859  -0.34301
  Beta  occ. eigenvalues --   -0.33288  -0.32777  -0.32306  -0.31319  -0.30440
  Beta  occ. eigenvalues --   -0.28572  -0.27479  -0.26828  -0.26449  -0.26189
  Beta  occ. eigenvalues --   -0.25233  -0.24039
  Beta virt. eigenvalues --   -0.10941  -0.04840  -0.03183  -0.02679  -0.01770
  Beta virt. eigenvalues --   -0.00389   0.00290   0.00850   0.01424   0.01928
  Beta virt. eigenvalues --    0.02169   0.02629   0.02839   0.03131   0.03579

 Mulliken charges and spin densities:
               1          2
     1  C   -0.310102   0.034129
     2  C   -0.082416   0.057541
     3  C   -0.172886   0.044795
     4  C   -0.576924   0.081315
     5  C    0.679044   0.183148
     6  C    0.095525   0.126632
     7  O   -0.373825   0.230728
     8  O   -0.377850   0.281181
     9  S    0.189760  -0.038728
    10  C    0.720607   0.003280
    11  C   -0.384295   0.004021
    12  C    0.104804   0.018016
    13  C   -0.497479  -0.001846
    14  C   -0.574213  -0.001642
    15  C   -0.355574   0.003175
    16  O   -0.158839  -0.003304
    17  O   -0.139485   0.008313
    18  H    0.211991  -0.006246
    19  H    0.206349  -0.004432
    20  H    0.223825   0.001162
    21  H    0.269931  -0.000314
    22  H    0.214154   0.000181
    23  H    0.220337   0.000046
    24  H    0.192741  -0.000213
    25  C   -0.158112  -0.027838
    26  O   -0.251547   0.001954
    27  C    0.260826   0.000694
    28  C   -0.533562  -0.002128
    29  C   -0.560871   0.006997
    30  C   -0.568500  -0.000707
    31  H    0.149200   0.000455
    32  H    0.185518   0.000011
    33  H    0.169202   0.000174
    34  H    0.186639  -0.001933
    35  H    0.149820   0.000193
    36  H    0.165747   0.000497
    37  H    0.158145   0.000077
    38  H    0.160148   0.000086
    39  H    0.162168   0.000532
 Sum of Mulliken charges =  -1.00000   1.00000

 Dipole moment (field-independent basis, Debye):
    X=              3.5069    Y=             -3.0511    Z=             -1.7843  Tot=              4.9791
 Quadrupole moment (field-independent basis, Debye-Ang):
   XX=           -155.0631   YY=           -160.3943   ZZ=           -166.3519
   XY=             -2.9311   XZ=            -24.6283   YZ=              1.5358

 Normal termination of Gaussian 16 at Wed Jan 24 23:07:04 2024.
