 Q-Chem 5.4, Q-Chem, Inc., Pleasanton, CA (2021)
 Q-Chem 5.4.0 for Intel X86 EM64T Linux

User input:
--------------------------------------------------------------
$molecule
-3 1
C                 -1.7684960000      1.8793410000     -5.1443690000
C                 -1.6646910000      0.5574040000     -5.5366070000
C                 -1.2574840000     -0.4226880000     -4.5941460000
C                 -1.4809610000      2.2992030000     -3.8226050000
C                 -1.1039000000      1.3007520000     -2.8601060000
C                 -0.9859550000     -0.0442470000     -3.2939570000
C                 -1.5930770000      3.7101520000     -3.4797370000
C                 -0.8408510000      1.6421210000     -1.4757020000
C                 -1.2987180000      4.0712120000     -2.0993560000
C                 -0.9532400000      3.0575620000     -1.1350710000
C                 -1.3681850000      5.4560480000     -1.6564510000
C                 -1.1513180000      5.7673930000     -0.2971740000
C                 -0.8283800000      4.7454700000      0.6164500000
C                 -0.7234120000      3.4332280000      0.2112890000
O                 -1.9574780000      4.5573070000     -4.3781690000
O                 -0.5209830000      0.7599910000     -0.6098480000
N                 -1.6286280000      6.4382690000     -2.5753440000
H                 -2.0735410000      2.6487950000     -5.8455170000
H                 -1.8884160000      0.2629640000     -6.5614600000
H                 -1.1669240000     -1.4646200000     -4.9011420000
H                 -0.6775670000     -0.7711860000     -2.5494790000
S                 -1.1672940000      7.4755760000      0.3406780000
H                 -0.6772560000      5.0235090000      1.6535440000
H                 -1.9314800000      6.0724800000     -3.4806870000
H                 -1.9660330000      7.3151210000     -2.1947590000
H                 -0.4726790000      2.6434400000      0.9097160000
O                 -2.2311870000      8.2062770000     -0.4340690000
O                 -1.4946120000      7.3638060000      1.7956190000
O                  0.1897540000      8.0575820000      0.1072130000
$end
$rem
MAX_SCF_CYCLES=200
BASIS  =  6-311++G(d,p)
GUI  =  2
JOB_TYPE  =  SP
METHOD  =  B3LYP
SOLVENT_METHOD = PCM
$end
$pcm
theory = CPCM
$end
$solvent
dielectric 37.219
opticaldielectric 1.43
$end

--------------------------------------------------------------

             Standard Nuclear Orientation (Angstroms)
    I     Atom           X                Y                Z
 ----------------------------------------------------------------
    1      C      -1.7684960000     1.8793410000    -5.1443690000
    2      C      -1.6646910000     0.5574040000    -5.5366070000
    3      C      -1.2574840000    -0.4226880000    -4.5941460000
    4      C      -1.4809610000     2.2992030000    -3.8226050000
    5      C      -1.1039000000     1.3007520000    -2.8601060000
    6      C      -0.9859550000    -0.0442470000    -3.2939570000
    7      C      -1.5930770000     3.7101520000    -3.4797370000
    8      C      -0.8408510000     1.6421210000    -1.4757020000
    9      C      -1.2987180000     4.0712120000    -2.0993560000
   10      C      -0.9532400000     3.0575620000    -1.1350710000
   11      C      -1.3681850000     5.4560480000    -1.6564510000
   12      C      -1.1513180000     5.7673930000    -0.2971740000
   13      C      -0.8283800000     4.7454700000     0.6164500000
   14      C      -0.7234120000     3.4332280000     0.2112890000
   15      O      -1.9574780000     4.5573070000    -4.3781690000
   16      O      -0.5209830000     0.7599910000    -0.6098480000
   17      N      -1.6286280000     6.4382690000    -2.5753440000
   18      H      -2.0735410000     2.6487950000    -5.8455170000
   19      H      -1.8884160000     0.2629640000    -6.5614600000
   20      H      -1.1669240000    -1.4646200000    -4.9011420000
   21      H      -0.6775670000    -0.7711860000    -2.5494790000
   22      S      -1.1672940000     7.4755760000     0.3406780000
   23      H      -0.6772560000     5.0235090000     1.6535440000
   24      H      -1.9314800000     6.0724800000    -3.4806870000
   25      H      -1.9660330000     7.3151210000    -2.1947590000
   26      H      -0.4726790000     2.6434400000     0.9097160000
   27      O      -2.2311870000     8.2062770000    -0.4340690000
   28      O      -1.4946120000     7.3638060000     1.7956190000
   29      O       0.1897540000     8.0575820000     0.1072130000
 ----------------------------------------------------------------

    9   -1368.0474424804      6.11e-06  Convergence criterion met
 Total energy in the final basis set =    -1368.0474424804

                    Orbital Energies (a.u.)
 --------------------------------------------------------------

 Alpha MOs
 -- Occupied --
-89.0346 -19.0810 -19.0807 -19.0800 -19.0299 -19.0204 -14.2813 -10.2036
-10.1836 -10.1729 -10.1585 -10.1496 -10.1481 -10.1473 -10.1468 -10.1460
-10.1440 -10.1371 -10.1360 -10.1343 -10.1321  -8.0933  -6.0563  -6.0561
 -6.0546  -1.0945  -0.9602  -0.9582  -0.9545  -0.9428  -0.8934  -0.8264
 -0.8098  -0.7550  -0.7225  -0.7162  -0.7015  -0.6401  -0.6199  -0.5986
 -0.5764  -0.5545  -0.5301  -0.5205  -0.4978  -0.4764  -0.4633  -0.4512
 -0.4456  -0.4414  -0.4343  -0.4196  -0.4106  -0.3995  -0.3918  -0.3877
 -0.3764  -0.3679  -0.3567  -0.3555  -0.3346  -0.3323  -0.3262  -0.3255
 -0.3209  -0.3151  -0.3047  -0.2897  -0.2861  -0.2801  -0.2762  -0.2475
 -0.2306  -0.2285  -0.2184  -0.2096  -0.1984  -0.1864  -0.1043

          Ground-State Mulliken Net Atomic Charges

     Atom                 Charge (a.u.)
  ----------------------------------------
      1 C                     0.034988
      2 C                    -0.586501
      3 C                    -0.486846
      4 C                     0.163646
      5 C                     0.100214
      6 C                    -0.034621
      7 C                    -0.374377
      8 C                    -0.399404
      9 C                     0.173914
     10 C                     0.476953
     11 C                     0.331709
     12 C                    -1.196972
     13 C                    -0.257991
     14 C                    -0.210933
     15 O                    -0.625455
     16 O                    -0.674266
     17 N                    -0.481595
     18 H                     0.150083
     19 H                     0.172747
     20 H                     0.175015
     21 H                     0.141822
     22 S                     0.736663
     23 H                     0.199048
     24 H                     0.344013
     25 H                     0.276651
     26 H                     0.135414
     27 O                    -0.481495
     28 O                    -0.420084
     29 O                    -0.382349
  ----------------------------------------
  Sum of atomic charges =    -3.000009

                    Cartesian Multipole Moments
 -----------------------------------------------------------------
    Charge (ESU x 10^10)
               -14.4097
    Dipole Moment (Debye)
         X      16.0637      Y     -66.2725      Z      17.7367
       Tot      70.4604
    Quadrupole Moments (Debye-Ang)
        XX    -172.5460     XY      78.5136     YY    -577.8271
        XZ     -26.8606     YZ      44.2228     ZZ    -228.3259

 Total job time:  63.65s(wall), 469.30s(cpu)
        *  Thank you very much for using Q-Chem.  Have a nice day.  *
