 Gaussian 16, Revision A.03,
 Gaussian 16:  ES64L-G16RevA.03 25-Dec-2016

 --------------------------------------
 #P UB3LYP/6-311++G(d,p) nosym opt freq
 --------------------------------------

 -------
 Reduced
 -------
 Symbolic Z-matrix:
 Charge = -3 Multiplicity = 1

 SCF Done:  E(UB3LYP) =  -1367.54240889     A.U. after   44 cycles
 Optimization completed.
    -- Stationary point found.
 Normal termination of Gaussian 16 at Wed Dec 27 21:25:59 2023.

 ----------------------------------------------------------------------
 #P Geom=AllCheck Guess=TCheck SCRF=Check GenChk UB3LYP/6-311++G(d,p) F
 req
 ----------------------------------------------------------------------

 Structure from the checkpoint file:  "157-an.chk"
 -------
 Reduced
 -------
 Charge = -3 Multiplicity = 1

                          Input orientation:
 ---------------------------------------------------------------------
 Center     Atomic      Atomic             Coordinates (Angstroms)
 Number     Number       Type             X           Y           Z
 ---------------------------------------------------------------------
      1          6           0       -1.768496    1.879341   -5.144369
      2          6           0       -1.664691    0.557404   -5.536607
      3          6           0       -1.257484   -0.422688   -4.594146
      4          6           0       -1.480961    2.299203   -3.822605
      5          6           0       -1.103900    1.300752   -2.860106
      6          6           0       -0.985955   -0.044247   -3.293957
      7          6           0       -1.593077    3.710152   -3.479737
      8          6           0       -0.840851    1.642121   -1.475702
      9          6           0       -1.298718    4.071212   -2.099356
     10          6           0       -0.953240    3.057562   -1.135071
     11          6           0       -1.368185    5.456048   -1.656451
     12          6           0       -1.151318    5.767393   -0.297174
     13          6           0       -0.828380    4.745470    0.616450
     14          6           0       -0.723412    3.433228    0.211289
     15          8           0       -1.957478    4.557307   -4.378169
     16          8           0       -0.520983    0.759991   -0.609848
     17          7           0       -1.628628    6.438269   -2.575344
     18          1           0       -2.073541    2.648795   -5.845517
     19          1           0       -1.888416    0.262964   -6.561460
     20          1           0       -1.166924   -1.464620   -4.901142
     21          1           0       -0.677567   -0.771186   -2.549479
     22         16           0       -1.167294    7.475576    0.340678
     23          1           0       -0.677256    5.023509    1.653544
     24          1           0       -1.931480    6.072480   -3.480687
     25          1           0       -1.966033    7.315121   -2.194759
     26          1           0       -0.472679    2.643440    0.909716
     27          8           0       -2.231187    8.206277   -0.434069
     28          8           0       -1.494612    7.363806    1.795619
     29          8           0        0.189754    8.057582    0.107213
 ---------------------------------------------------------------------

 SCF Done:  E(UB3LYP) =  -1367.54240889     A.U. after    3 cycles

 Alpha  occ. eigenvalues --  -88.72379 -18.76886 -18.76778 -18.76491 -18.74957
 Alpha  occ. eigenvalues --  -18.74061 -13.98620  -9.90999  -9.90472  -9.89570
 Alpha  occ. eigenvalues --   -9.87033  -9.86950  -9.86642  -9.86595  -9.86560
 Alpha  occ. eigenvalues --   -9.86027  -9.85825  -9.85579  -9.85423  -9.85313
 Alpha  occ. eigenvalues --   -9.84470  -7.78217  -5.74510  -5.74480  -5.74380
 Alpha  occ. eigenvalues --   -0.78045  -0.66895  -0.65770  -0.64642  -0.64234
 Alpha  occ. eigenvalues --   -0.59804  -0.54367  -0.52017  -0.46944  -0.44038
 Alpha  occ. eigenvalues --   -0.42845  -0.41235  -0.35285  -0.33140  -0.31236
 Alpha  occ. eigenvalues --   -0.28405  -0.26202  -0.24413  -0.23228  -0.20524
 Alpha  occ. eigenvalues --   -0.18492  -0.16816  -0.16320  -0.15221  -0.13566
 Alpha  occ. eigenvalues --   -0.12917  -0.12651  -0.12211  -0.11661  -0.10447
 Alpha  occ. eigenvalues --   -0.09708  -0.08993  -0.07928  -0.06961  -0.06432
 Alpha  occ. eigenvalues --   -0.04878  -0.04262  -0.03880  -0.02628  -0.02103
 Alpha  occ. eigenvalues --   -0.00998  -0.00849   0.00991   0.02624   0.02709
 Alpha  occ. eigenvalues --    0.03238   0.05474   0.06090   0.06877   0.07304
 Alpha  occ. eigenvalues --    0.07855   0.08945   0.10945   0.19017
 Alpha virt. eigenvalues --    0.20595   0.22248   0.24993   0.25675   0.26372
 Alpha virt. eigenvalues --    0.26491   0.27837   0.28103   0.28787   0.30718
 Alpha virt. eigenvalues --    0.31192   0.31574   0.32003   0.32393   0.32988

  Beta  occ. eigenvalues --  -88.72379 -18.76886 -18.76778 -18.76491 -18.74957
  Beta  occ. eigenvalues --  -18.74061 -13.98620  -9.90999  -9.90472  -9.89570
  Beta  occ. eigenvalues --   -9.87033  -9.86950  -9.86642  -9.86595  -9.86560
  Beta  occ. eigenvalues --   -9.86027  -9.85825  -9.85579  -9.85423  -9.85313
  Beta  occ. eigenvalues --   -9.84470  -7.78217  -5.74510  -5.74480  -5.74380
  Beta  occ. eigenvalues --   -0.78045  -0.66895  -0.65770  -0.64642  -0.64234
  Beta  occ. eigenvalues --   -0.59804  -0.54367  -0.52017  -0.46944  -0.44038
  Beta  occ. eigenvalues --   -0.42845  -0.41235  -0.35285  -0.33140  -0.31236
  Beta  occ. eigenvalues --   -0.28405  -0.26202  -0.24413  -0.23228  -0.20524
  Beta  occ. eigenvalues --   -0.18492  -0.16816  -0.16320  -0.15221  -0.13566
  Beta  occ. eigenvalues --   -0.12917  -0.12651  -0.12211  -0.11661  -0.10447
  Beta  occ. eigenvalues --   -0.09708  -0.08993  -0.07928  -0.06961  -0.06432
  Beta  occ. eigenvalues --   -0.04878  -0.04262  -0.03880  -0.02628  -0.02103
  Beta  occ. eigenvalues --   -0.00998  -0.00849   0.00991   0.02624   0.02709
  Beta  occ. eigenvalues --    0.03238   0.05474   0.06090   0.06877   0.07304
  Beta  occ. eigenvalues --    0.07855   0.08945   0.10945   0.19017
  Beta virt. eigenvalues --    0.20595   0.22248   0.24993   0.25675   0.26372
  Beta virt. eigenvalues --    0.26491   0.27837   0.28103   0.28787   0.30718
  Beta virt. eigenvalues --    0.31192   0.31574   0.32003   0.32393   0.32988

 Mulliken charges and spin densities:
               1          2
     1  C   -0.922727  -0.000000
     2  C    1.282639   0.000000
     3  C    1.642193   0.000000
     4  C    0.497694  -0.000000
     5  C    0.680825   0.000000
     6  C   -0.890349  -0.000000
     7  C   -0.557030   0.000000
     8  C   -0.684527   0.000000
     9  C    0.295496  -0.000000
    10  C    0.711741   0.000000
    11  C    0.320132  -0.000000
    12  C   -1.053009  -0.000000
    13  C   -0.215969   0.000000
    14  C   -0.175951   0.000000
    15  O   -0.447879   0.000000
    16  O   -0.453724   0.000000
    17  N   -0.408704   0.000000
    18  H    0.259155   0.000000
    19  H   -1.661996  -0.000000
    20  H   -1.842405  -0.000000
    21  H    0.227573  -0.000000
    22  S    0.667760   0.000000
    23  H    0.158261  -0.000000
    24  H    0.327897   0.000000
    25  H    0.235199  -0.000000
    26  H    0.116342  -0.000000
    27  O   -0.429688   0.000000
    28  O   -0.361199   0.000000
    29  O   -0.317748  -0.000000
 Sum of Mulliken charges =  -3.00000   0.00000

 Dipole moment (field-independent basis, Debye):
    X=             17.6394    Y=            -50.4996    Z=             32.5985  Tot=             62.6420
 Quadrupole moment (field-independent basis, Debye-Ang):
   XX=           -187.1815   YY=           -549.9838   ZZ=           -360.0956
   XY=             60.0533   XZ=            -54.2379   YZ=             -9.8503

  Exact polarizability: 348.624-195.9911599.040 343.375 321.3441484.821
 Approx polarizability: 429.493 195.0255087.965 619.3833897.1644974.628

                      1                      2                      3
                      A                      A                      A
 Frequencies --     36.6512                43.6475                83.8791
 Red. masses --      9.7514                10.6153                 7.8338
 Frc consts  --      0.0077                 0.0119                 0.0325
 IR Inten    --      7.3082                 5.0752                 0.5970

                      4                      5                      6
                      A                      A                      A
 Frequencies --     92.3390               136.1920               140.8921
 Red. masses --      6.9097                 5.5468                 7.3525
 Frc consts  --      0.0347                 0.0606                 0.0860
 IR Inten    --      1.4456                 3.0395                 1.6180

                      7                      8                      9
                      A                      A                      A
 Frequencies --    182.4312               198.9356               220.5512
 Red. masses --     10.3840                 6.4423                11.2952
 Frc consts  --      0.2036                 0.1502                 0.3237
 IR Inten    --     15.2691                14.0922                 0.2362

                     10                     11                     12
                      A                      A                      A
 Frequencies --    243.7784               289.5567               300.4566
 Red. masses --      7.1172                 5.2255                10.0448
 Frc consts  --      0.2492                 0.2581                 0.5343
 IR Inten    --      5.4995                31.8844                 0.6163

                     13                     14                     15
                      A                      A                      A
 Frequencies --    345.3542               354.2408               389.2538
 Red. masses --      6.0834                 8.0966                 7.9220
 Frc consts  --      0.4275                 0.5986                 0.7072
 IR Inten    --     91.0120                 0.1839                66.6760

                     16                     17                     18
                      A                      A                      A
 Frequencies --    396.0447               419.1503               430.5099
 Red. masses --      7.0521                 7.3061                 8.7667
 Frc consts  --      0.6517                 0.7563                 0.9573
 IR Inten    --    133.3773                10.0998               103.7295

                     19                     20                     21
                      A                      A                      A
 Frequencies --    441.8895               471.5973               487.4392
 Red. masses --      3.4079                 8.1090                 7.2648
 Frc consts  --      0.3921                 1.0626                 1.0170
 IR Inten    --     12.6864               220.6874                21.1156

                     22                     23                     24
                      A                      A                      A
 Frequencies --    502.8813               520.0371               541.9995
 Red. masses --      8.5484                 7.8865                 7.3959
 Frc consts  --      1.2737                 1.2566                 1.2801
 IR Inten    --      7.1901                46.5922                23.8486

                     25                     26                     27
                      A                      A                      A
 Frequencies --    572.8238               577.6364               599.8243
 Red. masses --      3.5432                 6.0717                 3.5725
 Frc consts  --      0.6850                 1.1936                 0.7573
 IR Inten    --     37.5474               356.9127               125.6642

                     28                     29                     30
                      A                      A                      A
 Frequencies --    620.6292               656.6324               663.4798
 Red. masses --      1.9441                 6.3401                 4.9428
 Frc consts  --      0.4412                 1.6106                 1.2820
 IR Inten    --    236.3431                23.8039                68.6195

                     31                     32                     33
                      A                      A                      A
 Frequencies --    671.2802               700.2479               723.6478
 Red. masses --      5.9675                 7.3663                 3.7513
 Frc consts  --      1.5843                 2.1282                 1.1574
 IR Inten    --    469.7490                66.0126                 1.0044

                     34                     35                     36
                      A                      A                      A
 Frequencies --    748.0258               775.7806               796.5547
 Red. masses --      5.3077                 1.2096                 3.1320
 Frc consts  --      1.7498                 0.4289                 1.1708
 IR Inten    --      4.9081                26.4193                30.3625

                     37                     38                     39
                      A                      A                      A
 Frequencies --    807.3745               823.1677               871.7880
 Red. masses --      2.7592                 2.8665                 1.4612
 Frc consts  --      1.0597                 1.1444                 0.6543
 IR Inten    --     66.5824                23.1800                12.9935

                     40                     41                     42
                      A                      A                      A
 Frequencies --    886.3667               889.4598               933.2991
 Red. masses --      2.1753                 2.8814                 8.9260
 Frc consts  --      1.0069                 1.3431                 4.5809
 IR Inten    --    116.4983                81.4126               308.8581

                     43                     44                     45
                      A                      A                      A
 Frequencies --    952.7082               960.9644              1002.6809
 Red. masses --      1.2584                 8.6677                 1.2351
 Frc consts  --      0.6730                 4.7159                 0.7316
 IR Inten    --      2.0541              1024.5441                 7.2495

                     46                     47                     48
                      A                      A                      A
 Frequencies --   1013.8289              1032.7984              1090.9642
 Red. masses --      2.7936                 2.7146                 8.3761
 Frc consts  --      1.6918                 1.7061                 5.8737
 IR Inten    --    295.3273                20.7766               362.3988

                     49                     50                     51
                      A                      A                      A
 Frequencies --   1098.8414              1107.6098              1120.0822
 Red. masses --      2.2417                 1.2545                 2.5615
 Frc consts  --      1.5947                 0.9068                 1.8934
 IR Inten    --     98.5499              1249.1749               261.7362

                     52                     53                     54
                      A                      A                      A
 Frequencies --   1122.4550              1133.5926              1163.0704
 Red. masses --     10.5710                 1.4647                 2.1113
 Frc consts  --      7.8470                 1.1089                 1.6827
 IR Inten    --    355.4081                86.6152               349.5744

                     55                     56                     57
                      A                      A                      A
 Frequencies --   1170.0090              1201.5563              1222.6673
 Red. masses --      2.0069                 1.9584                 2.9365
 Frc consts  --      1.6187                 1.6659                 2.5864
 IR Inten    --    330.4143                13.6321                24.6319

                     58                     59                     60
                      A                      A                      A
 Frequencies --   1241.3316              1287.3611              1340.5303
 Red. masses --      2.3431                 2.7905                 4.5259
 Frc consts  --      2.1273                 2.7247                 4.7919
 IR Inten    --    386.6551               739.1327              1034.6483

                     61                     62                     63
                      A                      A                      A
 Frequencies --   1348.5913              1369.9218              1380.0471
 Red. masses --      8.8766                 3.0740                 2.9977
 Frc consts  --      9.5117                 3.3989                 3.3638
 IR Inten    --     73.0224                16.0972                85.6923

                     64                     65                     66
                      A                      A                      A
 Frequencies --   1429.2178              1444.8755              1464.0366
 Red. masses --      3.2584                 5.4125                 2.9617
 Frc consts  --      3.9215                 6.6574                 3.7402
 IR Inten    --    426.9179               948.4542                45.0963

                     67                     68                     69
                      A                      A                      A
 Frequencies --   1479.8406              1498.0238              1533.2038
 Red. masses --      3.1520                 4.4839                 4.7489
 Frc consts  --      4.0670                 5.9285                 6.5772
 IR Inten    --   1412.0703               246.7809               193.6296

                     70                     71                     72
                      A                      A                      A
 Frequencies --   1565.6731              1583.6280              1592.9336
 Red. masses --      6.9267                 5.2418                 5.4580
 Frc consts  --     10.0042                 7.7453                 8.1598
 IR Inten    --   2497.4484               255.8048               206.5859

                     73                     74                     75
                      A                      A                      A
 Frequencies --   1607.5717              3092.9795              3115.9107
 Red. masses --      1.3049                 1.0855                 1.0917
 Frc consts  --      1.9869                 6.1185                 6.2448
 IR Inten    --    168.1292              1059.0999               127.5961

                     76                     77                     78
                      A                      A                      A
 Frequencies --   3159.6333              3161.9480              3165.7416
 Red. masses --      1.0903                 1.0850                 1.0903
 Frc consts  --      6.4129                 6.3911                 6.4379
 IR Inten    --     11.4303                 1.9224                24.7661

                     79                     80                     81
                      A                      A                      A
 Frequencies --   3181.1309              3331.3710              3540.0396
 Red. masses --      1.0931                 1.0591                 1.0942
 Frc consts  --      6.5172                 6.9255                 8.0790
 IR Inten    --     56.0001               223.4849               700.8045

 - Thermochemistry -
 -------------------
 Temperature   298.150 Kelvin.  Pressure   1.00000 Atm.
 Atom     1 has atomic number  6 and mass  12.00000

 Molecular mass:   302.01232 amu.
 Principal axes and moments of inertia in atomic units:
                           1         2         3
     Eigenvalues --  2407.64016********************
           X            0.01728   0.25767   0.96608
           Y            0.83938  -0.52873   0.12601
           Z            0.54327   0.80873  -0.22542
 This molecule is an asymmetric top.
 Rotational symmetry number  1.
 Warning -- assumption of classical behavior for rotation
           may cause significant error
 Rotational temperatures (Kelvin)      0.03597     0.00774     0.00654
 Rotational constants (GHZ):           0.74959     0.16129     0.13629
 Zero-point vibrational energy     513778.7 (Joules/Mol)
                                  122.79607 (Kcal/Mol)
 Warning -- explicit consideration of  28 degrees of freedom as
           vibrations may cause significant error
 Vibrational temperatures:     52.73    62.80   120.68   132.86   195.95
          (Kelvin)            202.71   262.48   286.22   317.32   350.74
                              416.61   432.29   496.89   509.67   560.05
                              569.82   603.06   619.41   635.78   678.52
                              701.32   723.53   748.22   779.82   824.17
                              831.09   863.01   892.95   944.75   954.60
                              965.82  1007.50  1041.17  1076.24  1116.18
                             1146.06  1161.63  1184.35  1254.31  1275.28
                             1279.73  1342.81  1370.73  1382.61  1442.63
                             1458.67  1485.97  1569.65  1580.99  1593.60
                             1611.55  1614.96  1630.99  1673.40  1683.38
                             1728.77  1759.15  1786.00  1852.23  1928.72
                             1940.32  1971.01  1985.58  2056.33  2078.85
                             2106.42  2129.16  2155.32  2205.94  2252.65
                             2278.49  2291.88  2312.94  4450.11  4483.10
                             4546.01  4549.34  4554.80  4576.94  4793.10
                             5093.33

 Zero-point correction=                           0.195688 (Hartree/Particle)
 Thermal correction to Energy=                    0.211806
 Thermal correction to Enthalpy=                  0.212750
 Thermal correction to Gibbs Free Energy=         0.151722
 Sum of electronic and zero-point Energies=          -1367.346721
 Sum of electronic and thermal Energies=             -1367.330603
 Sum of electronic and thermal Enthalpies=           -1367.329658
 Sum of electronic and thermal Free Energies=        -1367.390687

                     E (Thermal)             CV                S
                      KCal/Mol        Cal/Mol-Kelvin    Cal/Mol-Kelvin
 Total                  132.910             64.664            128.446
 Electronic               0.000              0.000              0.000
 Translational            0.889              2.981             43.013
 Rotational               0.889              2.981             34.233
 Vibrational            131.133             58.702             51.200
 Vibration     1          0.594              1.982              5.432
 Vibration     2          0.595              1.980              5.086
 Vibration     3          0.601              1.960              3.798
 Vibration     4          0.602              1.955              3.610
 Vibration     5          0.614              1.917              2.857
 Vibration     6          0.615              1.912              2.792
 Vibration     7          0.630              1.864              2.303
 Vibration     8          0.637              1.841              2.143
 Vibration     9          0.647              1.810              1.955
 Vibration    10          0.659              1.773              1.775
 Vibration    11          0.686              1.693              1.477
 Vibration    12          0.693              1.673              1.414
 Vibration    13          0.724              1.585              1.187
 Vibration    14          0.730              1.567              1.147
 Vibration    15          0.757              1.493              1.003
 Vibration    16          0.763              1.479              0.977
 Vibration    17          0.782              1.429              0.895
 Vibration    18          0.792              1.404              0.857
 Vibration    19          0.802              1.379              0.821
 Vibration    20          0.829              1.313              0.733
 Vibration    21          0.843              1.278              0.690
 Vibration    22          0.858              1.244              0.651
 Vibration    23          0.875              1.206              0.610
 Vibration    24          0.897              1.157              0.561
 Vibration    25          0.929              1.090              0.499
 Vibration    26          0.934              1.080              0.490
 Vibration    27          0.958              1.032              0.450
 Vibration    28          0.981              0.988              0.416

 Optimization completed.
    -- Stationary point found.
 Normal termination of Gaussian 16 at Wed Dec 27 23:30:15 2023.
