 Q-Chem 5.4, Q-Chem, Inc., Pleasanton, CA (2021)
 Q-Chem 5.4.0 for Intel X86 EM64T Linux

User input:
--------------------------------------------------------------
$molecule
-2 1
C                 -1.1654240000      3.0059300000     -0.5479510000
C                 -2.4819670000      2.5948280000     -0.3656980000
C                 -2.7653610000      1.2817380000      0.0552350000
C                 -0.0979450000      2.1139170000     -0.3109150000
C                 -0.3885290000      0.7835500000      0.1107430000
C                 -1.7351490000      0.3849010000      0.2764290000
C                  1.2823200000      2.5885680000     -0.5023650000
C                  2.3017420000      1.6143190000     -0.2195520000
C                  1.9574780000      0.2820210000      0.2230190000
C                  0.6579670000     -0.1788490000      0.4169140000
O                  1.4415050000      3.7935360000     -0.8722040000
O                  0.3043620000     -1.3563020000      0.8444110000
H                 -3.7962250000      0.9679580000      0.1937920000
H                  2.7645850000     -0.4059650000      0.4388560000
C                 -2.0502520000     -1.0228520000      0.6912300000
O                 -2.5297360000     -1.3508110000      1.7606180000
O                 -2.0703260000     -1.8649110000     -0.3986210000
C                 -1.9681800000     -3.2462470000     -0.0709870000
H                 -3.2939380000      3.2877420000     -0.5644610000
H                 -1.9819560000     -3.7847340000     -1.0215400000
H                 -2.8024060000     -3.5741770000      0.5582740000
H                 -1.0192480000     -3.4085900000      0.4468990000
C                  3.6930670000      1.9885260000     -0.3633060000
O                  4.1987280000      3.0599730000     -0.6645730000
O                  4.5691040000      0.9034070000     -0.0962410000
C                 -0.9753450000      4.4239970000     -1.0346470000
O                 -1.2524480000      4.7734580000     -2.1609570000
O                 -0.8182720000      5.4105770000     -0.0920390000
C                 -0.2625700000      5.0824080000      1.1854720000
C                  5.9421600000      1.2120350000     -0.2076020000
H                 -0.3317640000      5.9985710000      1.7774040000
H                  0.7774580000      4.7791750000      1.0578430000
H                 -0.8293730000      4.2865700000      1.6769480000
H                  6.4781950000      0.2872270000      0.0254470000
H                  6.2438790000      2.0004970000      0.4921500000
H                  6.2065930000      1.5486170000     -1.2169540000
$end
$rem
MAX_SCF_CYCLES=200
BASIS  =  6-311++G(d,p)
GUI  =  2
JOB_TYPE  =  SP
METHOD  =  B3LYP
SOLVENT_METHOD = PCM
$end
$pcm
theory = CPCM
$end
$solvent
dielectric 37.219
opticaldielectric 1.43
$end

--------------------------------------------------------------

             Standard Nuclear Orientation (Angstroms)
    I     Atom           X                Y                Z
 ----------------------------------------------------------------
    1      C      -1.1654240000     3.0059300000    -0.5479510000
    2      C      -2.4819670000     2.5948280000    -0.3656980000
    3      C      -2.7653610000     1.2817380000     0.0552350000
    4      C      -0.0979450000     2.1139170000    -0.3109150000
    5      C      -0.3885290000     0.7835500000     0.1107430000
    6      C      -1.7351490000     0.3849010000     0.2764290000
    7      C       1.2823200000     2.5885680000    -0.5023650000
    8      C       2.3017420000     1.6143190000    -0.2195520000
    9      C       1.9574780000     0.2820210000     0.2230190000
   10      C       0.6579670000    -0.1788490000     0.4169140000
   11      O       1.4415050000     3.7935360000    -0.8722040000
   12      O       0.3043620000    -1.3563020000     0.8444110000
   13      H      -3.7962250000     0.9679580000     0.1937920000
   14      H       2.7645850000    -0.4059650000     0.4388560000
   15      C      -2.0502520000    -1.0228520000     0.6912300000
   16      O      -2.5297360000    -1.3508110000     1.7606180000
   17      O      -2.0703260000    -1.8649110000    -0.3986210000
   18      C      -1.9681800000    -3.2462470000    -0.0709870000
   19      H      -3.2939380000     3.2877420000    -0.5644610000
   20      H      -1.9819560000    -3.7847340000    -1.0215400000
   21      H      -2.8024060000    -3.5741770000     0.5582740000
   22      H      -1.0192480000    -3.4085900000     0.4468990000
   23      C       3.6930670000     1.9885260000    -0.3633060000
   24      O       4.1987280000     3.0599730000    -0.6645730000
   25      O       4.5691040000     0.9034070000    -0.0962410000
   26      C      -0.9753450000     4.4239970000    -1.0346470000
   27      O      -1.2524480000     4.7734580000    -2.1609570000
   28      O      -0.8182720000     5.4105770000    -0.0920390000
   29      C      -0.2625700000     5.0824080000     1.1854720000
   30      C       5.9421600000     1.2120350000    -0.2076020000
   31      H      -0.3317640000     5.9985710000     1.7774040000
   32      H       0.7774580000     4.7791750000     1.0578430000
   33      H      -0.8293730000     4.2865700000     1.6769480000
   34      H       6.4781950000     0.2872270000     0.0254470000
   35      H       6.2438790000     2.0004970000     0.4921500000
   36      H       6.2065930000     1.5486170000    -1.2169540000
 ----------------------------------------------------------------

    9   -1219.3604445347      5.35e-06  Convergence criterion met
 Total energy in the final basis set =    -1219.3604445347

                    Orbital Energies (a.u.)
 --------------------------------------------------------------

 Alpha MOs
 -- Occupied --
-19.1563 -19.1481 -19.1379 -19.1086 -19.1042 -19.0899 -19.0534 -19.0343
-10.3075 -10.3020 -10.2768 -10.2106 -10.2064 -10.2039 -10.2031 -10.1892
-10.1859 -10.1826 -10.1775 -10.1757 -10.1706 -10.1693 -10.1525 -10.1324
 -1.0940  -1.0902  -1.0740  -1.0176  -1.0089  -0.9932  -0.9771  -0.9490
 -0.8608  -0.7942  -0.7785  -0.7463  -0.7155  -0.7077  -0.6953  -0.6703
 -0.6452  -0.6212  -0.5899  -0.5724  -0.5489  -0.5383  -0.5192  -0.5014
 -0.4996  -0.4799  -0.4730  -0.4728  -0.4692  -0.4639  -0.4600  -0.4587
 -0.4449  -0.4374  -0.4266  -0.4163  -0.4087  -0.4029  -0.3979  -0.3891
 -0.3850  -0.3803  -0.3779  -0.3752  -0.3562  -0.3494  -0.3479  -0.3456
 -0.3408  -0.3340  -0.3292  -0.2950  -0.2903  -0.2873  -0.2846  -0.2811
 -0.2715  -0.2493  -0.2447  -0.2373  -0.2224  -0.2144  -0.1409

          Ground-State Mulliken Net Atomic Charges

     Atom                 Charge (a.u.)
  ----------------------------------------
      1 C                     0.130456
      2 C                     0.230566
      3 C                    -0.052320
      4 C                     0.316784
      5 C                     0.484201
      6 C                     0.457794
      7 C                    -0.522119
      8 C                     0.010093
      9 C                    -0.593794
     10 C                    -0.698614
     11 O                    -0.516897
     12 O                    -0.600314
     13 H                     0.210714
     14 H                     0.181747
     15 C                    -0.565466
     16 O                    -0.298761
     17 O                    -0.023130
     18 C                    -0.248068
     19 H                     0.226195
     20 H                     0.166426
     21 H                     0.153406
     22 H                     0.185717
     23 C                     0.257897
     24 O                    -0.400120
     25 O                    -0.206905
     26 C                    -0.284966
     27 O                    -0.339015
     28 O                    -0.081999
     29 C                    -0.374643
     30 C                    -0.250291
     31 H                     0.170455
     32 H                     0.215832
     33 H                     0.158924
     34 H                     0.153081
     35 H                     0.174326
     36 H                     0.172807
  ----------------------------------------
  Sum of atomic charges =    -2.000000

                    Cartesian Multipole Moments
 -----------------------------------------------------------------
    Charge (ESU x 10^10)
                -9.6064
    Dipole Moment (Debye)
         X      -6.4175      Y     -16.1597      Z       3.5464
       Tot      17.7454
    Quadrupole Moments (Debye-Ang)
        XX    -176.7129     XY     -25.4729     YY    -238.2455
        XZ       8.6661     YZ      47.7372     ZZ    -167.6602

 Total job time:  108.94s(wall), 664.75s(cpu)
        *  Thank you very much for using Q-Chem.  Have a nice day.  *
