 Q-Chem 5.4, Q-Chem, Inc., Pleasanton, CA (2021)
 Q-Chem 5.4.0 for Intel X86 EM64T Linux

User input:
--------------------------------------------------------------
$molecule
-1 2
C                 -3.4596210000      5.5162530000      3.5165240000
C                 -2.4494110000      6.0207020000      4.3161600000
C                 -2.0230450000      5.2992700000      5.4487760000
C                 -4.0755860000      4.2845640000      3.8153580000
C                 -3.6460240000      3.5591830000      4.9550040000
C                 -2.6163070000      4.0882390000      5.7581220000
C                 -5.1482170000      3.7747270000      2.9470540000
C                 -5.7386120000      2.5030100000      3.3178420000
C                 -5.3044250000      1.7886310000      4.4286260000
C                 -4.2592910000      2.2705160000      5.3052300000
O                 -5.5240160000      4.4264040000      1.9330440000
O                 -3.8858130000      1.6221430000      6.3234710000
H                 -1.9849040000      6.9718790000      4.0722360000
H                 -1.2299720000      5.6943770000      6.0771950000
C                 -6.8471780000      1.9903620000      2.4295770000
H                 -3.8082190000      6.0490380000      2.6392090000
H                 -2.3105080000      3.5108930000      6.6232190000
H                 -6.5492220000      1.0818970000      1.8893920000
H                 -7.0932270000      2.7539580000      1.6914090000
H                 -7.7461960000      1.7442050000      3.0041910000
C                 -5.9136090000      0.4487590000      4.8079090000
C                 -7.0450840000      0.5945840000      5.7943300000
C                 -8.2799930000      0.0732670000      5.7538210000
C                 -9.2599920000      0.3542730000      6.8757110000
C                 -9.5837680000     -0.8783960000      7.7590150000
C                -10.6053210000     -0.5735600000      8.8180100000
C                -10.4592040000     -0.5488460000     10.1507490000
C                 -8.8023570000     -0.8054590000      4.6415600000
C                -11.6314530000     -0.1789200000     11.0377860000
C                -11.4795220000      1.1878910000     11.7524380000
C                -12.6435550000      1.4923280000     12.6533830000
C                -13.5387990000      2.4867880000     12.5675600000
C                 -9.1743690000     -0.8734960000     10.8737300000
C                -13.5229640000      3.5610110000     11.5072390000
C                -14.6554330000      2.5939510000     13.5870740000
C                -16.0649050000      2.2892890000     13.0192760000
C                -17.1446180000      2.4638980000     14.0506350000
C                -17.9675000000      1.5437560000     14.5738760000
C                -17.9798420000      0.0865620000     14.1801110000
C                -18.9819170000      1.9424730000     15.6272180000
C                -18.6831290000      1.3829500000     17.0411670000
C                -19.7441000000      1.7587380000     18.0379580000
C                -19.6389990000      2.5293210000     19.1300650000
C                -18.3578650000      3.1739940000     19.6006580000
C                -20.8564790000      2.7940390000     19.9932990000
C                -21.3726320000      4.2539560000     19.9326710000
C                -22.5438780000      4.4821940000     20.8473900000
C                -23.8053200000      4.8116300000     20.5347840000
C                -24.3020220000      5.0535090000     19.1300970000
C                -24.8405320000      4.9787420000     21.6291860000
C                -25.9309260000      3.8780380000     21.6465630000
C                -26.9658210000      4.1181790000     22.7105160000
C                -27.2536820000      3.3696070000     23.7837120000
C                -26.5694390000      2.0737840000     24.1404880000
C                -28.3347980000      3.7878140000     24.7510860000
H                 -5.1235810000     -0.1310600000      5.2990790000
H                 -6.2288820000     -0.0988430000      3.9179450000
H                 -6.7876190000      1.2144700000      6.6510160000
H                -10.2024730000      0.7354810000      6.4557400000
H                 -8.8615450000      1.1448520000      7.5179150000
H                 -8.6516560000     -1.2504710000      8.1898600000
H                 -9.9729170000     -1.6809680000      7.1200830000
H                -11.5911450000     -0.3158420000      8.4281310000
H                 -8.1117120000     -0.8662750000      3.8009580000
H                 -9.7590050000     -0.4231170000      4.2629020000
H                 -8.9893020000     -1.8297470000      4.9875800000
H                -11.7715650000     -0.9560210000     11.8026140000
H                -12.5489010000     -0.1578280000     10.4419770000
H                -11.3383970000      1.9633590000     10.9967600000
H                -10.5642370000      1.1744730000     12.3564840000
H                -12.7677820000      0.7885120000     13.4774890000
H                 -8.3780880000     -1.1873980000     10.2002110000
H                 -9.3373190000     -1.6764020000     11.6034830000
H                 -8.8039570000     -0.0094350000     11.4360590000
H                -12.6797070000      3.4713390000     10.8238130000
H                -13.4753930000      4.5538460000     11.9705830000
H                -14.4380480000      3.5407600000     10.9054200000
H                -14.6644560000      3.6071330000     14.0122360000
H                -14.4610780000      1.9086710000     14.4174270000
H                -16.0632090000      1.2799160000     12.6021550000
H                -16.2674350000      2.9697420000     12.1833950000
H                -17.2484810000      3.4844380000     14.4208880000
H                -17.2666380000     -0.1465430000     13.3903750000
H                -18.9771190000     -0.2055480000     13.8297410000
H                -17.7478540000     -0.5584740000     15.0344850000
H                -19.9791820000      1.5973920000     15.3211520000
H                -19.0351970000      3.0332150000     15.6905350000
H                -17.6951390000      1.7288620000     17.3526730000
H                -18.6259770000      0.2889450000     16.9877300000
H                -20.7302230000      1.3483330000     17.8178620000
H                -17.5013640000      2.9262120000     18.9747840000
H                -18.1273620000      2.8601180000     20.6257460000
H                -18.4462580000      4.2654860000     19.6211810000
H                -20.6203960000      2.5524890000     21.0387620000
H                -21.6699370000      2.1263310000     19.6949080000
H                -21.6161270000      4.4961950000     18.8959240000
H                -20.5624260000      4.9319470000     20.2273210000
H                -22.3180910000      4.3460130000     21.9055320000
H                -23.5186400000      4.9601520000     18.3788240000
H                -24.7306580000      6.0592380000     19.0455590000
H                -25.0994490000      4.3513630000     18.8642630000
H                -25.3337310000      5.9539850000     21.5168220000
H                -24.3449990000      4.9908400000     22.6042550000
H                -25.4470910000      2.9061730000     21.7670420000
H                -26.4318480000      3.8549040000     20.6710670000
H                -27.5396420000      5.0359690000     22.5798340000
H                -25.7778250000      1.7974880000     23.4448090000
H                -27.2945850000      1.2516680000     24.1699310000
H                -26.1304180000      2.1362440000     25.1432190000
H                -28.8025880000      4.7290000000     24.4550630000
H                -27.9305090000      3.9104980000     25.7631450000
H                -29.1185860000      3.0235970000     24.8188010000
$end
$rem
MAX_SCF_CYCLES=200
BASIS  =  6-311++G(d,p)
GUI  =  2
JOB_TYPE  =  SP
METHOD  =  B3LYP
SCF_ALGORITHM = RCA_DIIS
THRESH = 14
SOLVENT_METHOD = PCM
$end
$pcm
theory = CPCM
$end
$solvent
dielectric 37.219
opticaldielectric 1.43
$end

--------------------------------------------------------------

             Standard Nuclear Orientation (Angstroms)
    I     Atom           X                Y                Z
 ----------------------------------------------------------------
    1      C      -3.4596210000     5.5162530000     3.5165240000
    2      C      -2.4494110000     6.0207020000     4.3161600000
    3      C      -2.0230450000     5.2992700000     5.4487760000
    4      C      -4.0755860000     4.2845640000     3.8153580000
    5      C      -3.6460240000     3.5591830000     4.9550040000
    6      C      -2.6163070000     4.0882390000     5.7581220000
    7      C      -5.1482170000     3.7747270000     2.9470540000
    8      C      -5.7386120000     2.5030100000     3.3178420000
    9      C      -5.3044250000     1.7886310000     4.4286260000
   10      C      -4.2592910000     2.2705160000     5.3052300000
   11      O      -5.5240160000     4.4264040000     1.9330440000
   12      O      -3.8858130000     1.6221430000     6.3234710000
   13      H      -1.9849040000     6.9718790000     4.0722360000
   14      H      -1.2299720000     5.6943770000     6.0771950000
   15      C      -6.8471780000     1.9903620000     2.4295770000
   16      H      -3.8082190000     6.0490380000     2.6392090000
   17      H      -2.3105080000     3.5108930000     6.6232190000
   18      H      -6.5492220000     1.0818970000     1.8893920000
   19      H      -7.0932270000     2.7539580000     1.6914090000
   20      H      -7.7461960000     1.7442050000     3.0041910000
   21      C      -5.9136090000     0.4487590000     4.8079090000
   22      C      -7.0450840000     0.5945840000     5.7943300000
   23      C      -8.2799930000     0.0732670000     5.7538210000
   24      C      -9.2599920000     0.3542730000     6.8757110000
   25      C      -9.5837680000    -0.8783960000     7.7590150000
   26      C     -10.6053210000    -0.5735600000     8.8180100000
   27      C     -10.4592040000    -0.5488460000    10.1507490000
   28      C      -8.8023570000    -0.8054590000     4.6415600000
   29      C     -11.6314530000    -0.1789200000    11.0377860000
   30      C     -11.4795220000     1.1878910000    11.7524380000
   31      C     -12.6435550000     1.4923280000    12.6533830000
   32      C     -13.5387990000     2.4867880000    12.5675600000
   33      C      -9.1743690000    -0.8734960000    10.8737300000
   34      C     -13.5229640000     3.5610110000    11.5072390000
   35      C     -14.6554330000     2.5939510000    13.5870740000
   36      C     -16.0649050000     2.2892890000    13.0192760000
   37      C     -17.1446180000     2.4638980000    14.0506350000
   38      C     -17.9675000000     1.5437560000    14.5738760000
   39      C     -17.9798420000     0.0865620000    14.1801110000
   40      C     -18.9819170000     1.9424730000    15.6272180000
   41      C     -18.6831290000     1.3829500000    17.0411670000
   42      C     -19.7441000000     1.7587380000    18.0379580000
   43      C     -19.6389990000     2.5293210000    19.1300650000
   44      C     -18.3578650000     3.1739940000    19.6006580000
   45      C     -20.8564790000     2.7940390000    19.9932990000
   46      C     -21.3726320000     4.2539560000    19.9326710000
   47      C     -22.5438780000     4.4821940000    20.8473900000
   48      C     -23.8053200000     4.8116300000    20.5347840000
   49      C     -24.3020220000     5.0535090000    19.1300970000
   50      C     -24.8405320000     4.9787420000    21.6291860000
   51      C     -25.9309260000     3.8780380000    21.6465630000
   52      C     -26.9658210000     4.1181790000    22.7105160000
   53      C     -27.2536820000     3.3696070000    23.7837120000
   54      C     -26.5694390000     2.0737840000    24.1404880000
   55      C     -28.3347980000     3.7878140000    24.7510860000
   56      H      -5.1235810000    -0.1310600000     5.2990790000
   57      H      -6.2288820000    -0.0988430000     3.9179450000
   58      H      -6.7876190000     1.2144700000     6.6510160000
   59      H     -10.2024730000     0.7354810000     6.4557400000
   60      H      -8.8615450000     1.1448520000     7.5179150000
   61      H      -8.6516560000    -1.2504710000     8.1898600000
   62      H      -9.9729170000    -1.6809680000     7.1200830000
   63      H     -11.5911450000    -0.3158420000     8.4281310000
   64      H      -8.1117120000    -0.8662750000     3.8009580000
   65      H      -9.7590050000    -0.4231170000     4.2629020000
   66      H      -8.9893020000    -1.8297470000     4.9875800000
   67      H     -11.7715650000    -0.9560210000    11.8026140000
   68      H     -12.5489010000    -0.1578280000    10.4419770000
   69      H     -11.3383970000     1.9633590000    10.9967600000
   70      H     -10.5642370000     1.1744730000    12.3564840000
   71      H     -12.7677820000     0.7885120000    13.4774890000
   72      H      -8.3780880000    -1.1873980000    10.2002110000
   73      H      -9.3373190000    -1.6764020000    11.6034830000
   74      H      -8.8039570000    -0.0094350000    11.4360590000
   75      H     -12.6797070000     3.4713390000    10.8238130000
   76      H     -13.4753930000     4.5538460000    11.9705830000
   77      H     -14.4380480000     3.5407600000    10.9054200000
   78      H     -14.6644560000     3.6071330000    14.0122360000
   79      H     -14.4610780000     1.9086710000    14.4174270000
   80      H     -16.0632090000     1.2799160000    12.6021550000
   81      H     -16.2674350000     2.9697420000    12.1833950000
   82      H     -17.2484810000     3.4844380000    14.4208880000
   83      H     -17.2666380000    -0.1465430000    13.3903750000
   84      H     -18.9771190000    -0.2055480000    13.8297410000
   85      H     -17.7478540000    -0.5584740000    15.0344850000
   86      H     -19.9791820000     1.5973920000    15.3211520000
   87      H     -19.0351970000     3.0332150000    15.6905350000
   88      H     -17.6951390000     1.7288620000    17.3526730000
   89      H     -18.6259770000     0.2889450000    16.9877300000
   90      H     -20.7302230000     1.3483330000    17.8178620000
   91      H     -17.5013640000     2.9262120000    18.9747840000
   92      H     -18.1273620000     2.8601180000    20.6257460000
   93      H     -18.4462580000     4.2654860000    19.6211810000
   94      H     -20.6203960000     2.5524890000    21.0387620000
   95      H     -21.6699370000     2.1263310000    19.6949080000
   96      H     -21.6161270000     4.4961950000    18.8959240000
   97      H     -20.5624260000     4.9319470000    20.2273210000
   98      H     -22.3180910000     4.3460130000    21.9055320000
   99      H     -23.5186400000     4.9601520000    18.3788240000
  100      H     -24.7306580000     6.0592380000    19.0455590000
  101      H     -25.0994490000     4.3513630000    18.8642630000
  102      H     -25.3337310000     5.9539850000    21.5168220000
  103      H     -24.3449990000     4.9908400000    22.6042550000
  104      H     -25.4470910000     2.9061730000    21.7670420000
  105      H     -26.4318480000     3.8549040000    20.6710670000
  106      H     -27.5396420000     5.0359690000    22.5798340000
  107      H     -25.7778250000     1.7974880000    23.4448090000
  108      H     -27.2945850000     1.2516680000    24.1699310000
  109      H     -26.1304180000     2.1362440000    25.1432190000
  110      H     -28.8025880000     4.7290000000    24.4550630000
  111      H     -27.9305090000     3.9104980000    25.7631450000
  112      H     -29.1185860000     3.0235970000    24.8188010000
 ----------------------------------------------------------------

  147   -1942.4928561649      7.50E-06 Convergence criterion met
 Total energy in the final basis set = -1942.49285616

                    Orbital Energies (a.u.)
 --------------------------------------------------------------

 Alpha MOs
 -- Occupied --
-19.0740 -19.0729 -10.2179 -10.2173 -10.1738 -10.1715 -10.1715 -10.1714
-10.1712 -10.1704 -10.1703 -10.1699 -10.1695 -10.1690 -10.1683 -10.1676
-10.1671 -10.1670 -10.1652 -10.1635 -10.1635 -10.1632 -10.1631 -10.1631
-10.1630 -10.1630 -10.1628 -10.1627 -10.1627 -10.1620 -10.1616 -10.1591
-10.1574 -10.1573 -10.1570 -10.1569 -10.1569 -10.1568 -10.1568 -10.1567
-10.1567 -10.1566 -10.1564 -10.1562 -10.1558 -10.1558 -10.1550 -10.1495
 -0.9991  -0.9963  -0.8554  -0.8284  -0.8265  -0.8238  -0.8202  -0.8153
 -0.8093  -0.8035  -0.8000  -0.7726  -0.7647  -0.7570  -0.7494  -0.7474
 -0.7401  -0.7309  -0.7231  -0.7177  -0.6883  -0.6864  -0.6847  -0.6838
 -0.6822  -0.6792  -0.6740  -0.6667  -0.6572  -0.6472  -0.6361  -0.6225
 -0.6094  -0.5988  -0.5935  -0.5870  -0.5813  -0.5779  -0.5500  -0.5194
 -0.5185  -0.5176  -0.5160  -0.5134  -0.5105  -0.5084  -0.5048  -0.4884
 -0.4753  -0.4749  -0.4736  -0.4729  -0.4691  -0.4641  -0.4629  -0.4603
 -0.4440  -0.4432  -0.4416  -0.4385  -0.4347  -0.4309  -0.4301  -0.4275
 -0.4255  -0.4226  -0.4205  -0.4181  -0.4139  -0.4126  -0.4119  -0.4096
 -0.4091  -0.4060  -0.4058  -0.4005  -0.3993  -0.3987  -0.3954  -0.3950
 -0.3906  -0.3878  -0.3877  -0.3807  -0.3781  -0.3721  -0.3718  -0.3699
 -0.3692  -0.3690  -0.3680  -0.3667  -0.3661  -0.3653  -0.3632  -0.3612
 -0.3611  -0.3585  -0.3581  -0.3569  -0.3540  -0.3519  -0.3501  -0.3464
 -0.3434  -0.3358  -0.3337  -0.3336  -0.3325  -0.3309  -0.3299  -0.3253
 -0.3242  -0.3235  -0.3223  -0.3158  -0.3097  -0.3056  -0.2670  -0.2549
 -0.2498  -0.2476  -0.2456  -0.2440  -0.2396  -0.2370  -0.2337  -0.2285
 -0.2239  -0.2206  -0.1495

 Beta MOs
 -- Occupied --
-19.0680 -19.0671 -10.2160 -10.2154 -10.1738 -10.1715 -10.1715 -10.1714
-10.1712 -10.1703 -10.1701 -10.1696 -10.1690 -10.1685 -10.1682 -10.1670
-10.1669 -10.1662 -10.1639 -10.1635 -10.1635 -10.1632 -10.1631 -10.1631
-10.1630 -10.1630 -10.1628 -10.1627 -10.1627 -10.1620 -10.1616 -10.1592
-10.1574 -10.1573 -10.1570 -10.1569 -10.1569 -10.1568 -10.1568 -10.1567
-10.1567 -10.1566 -10.1564 -10.1562 -10.1558 -10.1557 -10.1550 -10.1496
 -0.9886  -0.9857  -0.8533  -0.8284  -0.8263  -0.8233  -0.8194  -0.8146
 -0.8087  -0.8028  -0.7993  -0.7724  -0.7642  -0.7561  -0.7487  -0.7456
 -0.7396  -0.7302  -0.7224  -0.7174  -0.6883  -0.6847  -0.6844  -0.6838
 -0.6821  -0.6791  -0.6739  -0.6666  -0.6538  -0.6439  -0.6356  -0.6223
 -0.6091  -0.5984  -0.5928  -0.5864  -0.5808  -0.5759  -0.5473  -0.5194
 -0.5184  -0.5171  -0.5157  -0.5132  -0.5104  -0.5083  -0.5037  -0.4862
 -0.4753  -0.4749  -0.4735  -0.4729  -0.4690  -0.4636  -0.4606  -0.4601
 -0.4437  -0.4423  -0.4415  -0.4381  -0.4340  -0.4308  -0.4294  -0.4272
 -0.4249  -0.4218  -0.4178  -0.4148  -0.4136  -0.4125  -0.4095  -0.4086
 -0.4062  -0.4058  -0.4046  -0.3996  -0.3990  -0.3986  -0.3952  -0.3906
 -0.3891  -0.3877  -0.3855  -0.3807  -0.3765  -0.3713  -0.3699  -0.3692
 -0.3690  -0.3680  -0.3667  -0.3662  -0.3656  -0.3634  -0.3620  -0.3610
 -0.3588  -0.3579  -0.3568  -0.3543  -0.3520  -0.3499  -0.3453  -0.3432
 -0.3370  -0.3344  -0.3335  -0.3321  -0.3318  -0.3308  -0.3288  -0.3253
 -0.3242  -0.3235  -0.3220  -0.3155  -0.3095  -0.3055  -0.2498  -0.2483
 -0.2477  -0.2453  -0.2430  -0.2401  -0.2382  -0.2327  -0.2282  -0.2273
 -0.2229  -0.2201

          Ground-State Mulliken Net Atomic Charges

     Atom                 Charge (a.u.)    Spin (a.u.)
  --------------------------------------------------------
      1 C                     0.148158       0.032189
      2 C                    -0.517549       0.024511
      3 C                    -0.451457       0.027317
      4 C                    -0.163307      -0.000814
      5 C                     0.157375       0.013154
      6 C                     0.030855       0.030655
      7 C                    -0.695737       0.114921
      8 C                     0.707600       0.102250
      9 C                     0.790463       0.089455
     10 C                    -0.803426       0.110170
     11 O                    -0.501317       0.222058
     12 O                    -0.480409       0.217364
     13 H                     0.191512      -0.002070
     14 H                     0.196108      -0.002213
     15 C                    -0.502247      -0.001341
     16 H                     0.174759      -0.002543
     17 H                     0.172211      -0.002356
     18 H                     0.185472       0.006442
     19 H                     0.173387      -0.001814
     20 H                     0.173344       0.004686
     21 C                    -0.057218       0.012094
     22 C                    -0.769924       0.003732
     23 C                     0.986073       0.002775
     24 C                    -0.785385      -0.001270
     25 C                    -0.292430       0.000126
     26 C                    -0.412230       0.000296
     27 C                     0.655571      -0.000192
     28 C                    -0.816921      -0.002592
     29 C                    -0.538698       0.000148
     30 C                    -0.261115      -0.000037
     31 C                    -0.349977      -0.000042
     32 C                     0.496178       0.000080
     33 C                    -0.725528      -0.000048
     34 C                    -0.751013      -0.000030
     35 C                    -0.409852      -0.000021
     36 C                    -0.296308       0.000024
     37 C                    -0.327157      -0.000126
     38 C                     0.518205       0.000114
     39 C                    -0.743763      -0.000063
     40 C                    -0.450111       0.000033
     41 C                    -0.274363      -0.000143
     42 C                    -0.422233       0.000371
     43 C                     0.546329      -0.000321
     44 C                    -0.738757       0.000028
     45 C                    -0.396772       0.000024
     46 C                    -0.220491      -0.000007
     47 C                    -0.225420       0.000104
     48 C                     0.463618      -0.000101
     49 C                    -0.776565       0.000012
     50 C                    -0.580886       0.000011
     51 C                    -0.286175      -0.000004
     52 C                     0.022185       0.000005
     53 C                     0.294749      -0.000004
     54 C                    -0.710507       0.000000
     55 C                    -0.644389      -0.000001
     56 H                     0.207631       0.003055
     57 H                     0.198497      -0.000138
     58 H                     0.230815      -0.000343
     59 H                     0.159053       0.000320
     60 H                     0.139023      -0.000440
     61 H                     0.162542       0.000097
     62 H                     0.143995       0.000244
     63 H                     0.195546      -0.000026
     64 H                     0.115787       0.000255
     65 H                     0.177415       0.000118
     66 H                     0.178263      -0.000198
     67 H                     0.143758      -0.000003
     68 H                     0.184457      -0.000002
     69 H                     0.158156       0.000015
     70 H                     0.135666       0.000003
     71 H                     0.203840      -0.000007
     72 H                     0.133568      -0.000039
     73 H                     0.166577       0.000009
     74 H                     0.176609       0.000005
     75 H                     0.139254       0.000000
     76 H                     0.167809       0.000006
     77 H                     0.175235       0.000009
     78 H                     0.145675       0.000007
     79 H                     0.178069       0.000004
     80 H                     0.146451      -0.000004
     81 H                     0.136683      -0.000005
     82 H                     0.202779       0.000019
     83 H                     0.138961       0.000014
     84 H                     0.167681       0.000015
     85 H                     0.175477       0.000016
     86 H                     0.146876      -0.000008
     87 H                     0.174899       0.000001
     88 H                     0.142419       0.000060
     89 H                     0.137311       0.000028
     90 H                     0.197639      -0.000037
     91 H                     0.140687      -0.000001
     92 H                     0.168253      -0.000008
     93 H                     0.175318      -0.000010
     94 H                     0.140963      -0.000012
     95 H                     0.182797      -0.000003
     96 H                     0.149468       0.000002
     97 H                     0.132974       0.000004
     98 H                     0.217044      -0.000009
     99 H                     0.137480      -0.000001
    100 H                     0.169003      -0.000004
    101 H                     0.177350      -0.000004
    102 H                     0.143717      -0.000004
    103 H                     0.169466      -0.000001
    104 H                     0.144346       0.000001
    105 H                     0.134125       0.000001
    106 H                     0.205182      -0.000000
    107 H                     0.149324      -0.000000
    108 H                     0.151957      -0.000000
    109 H                     0.154334      -0.000000
    110 H                     0.157300       0.000000
    111 H                     0.157093       0.000000
    112 H                     0.152885       0.000000
  --------------------------------------------------------
  Sum of atomic charges =    -1.000000

                    Cartesian Multipole Moments
 -----------------------------------------------------------------
    Charge (ESU x 10^10)
                -4.8032
    Dipole Moment (Debye)
         X      22.2127      Y     -15.4082      Z     -20.2083
       Tot      33.7519
    Quadrupole Moments (Debye-Ang)
        XX    -404.9453     XY      83.6845     YY    -359.9138
        XZ      84.6618     YZ     -52.4487     ZZ    -407.3629

 Total job time:  34007.79s(wall), 212949.61s(cpu)
        *  Thank you very much for using Q-Chem.  Have a nice day.  *
