 Q-Chem 5.4, Q-Chem, Inc., Pleasanton, CA (2021)
 Q-Chem 5.4.0 for Intel X86 EM64T Linux

User input:
--------------------------------------------------------------
$molecule
-2 1
C                  7.2407880000      1.1961570000      0.1847870000
C                  8.3663610000      1.0312620000      1.0848680000
C                  8.9766880000     -0.2001620000      1.2654550000
C                  8.5280410000     -1.3895980000      0.5624140000
C                  7.3942580000     -1.2267830000     -0.3326990000
C                  6.7928940000      0.0092290000     -0.5176780000
O                  6.6677460000      2.3264920000      0.0097020000
O                  9.1021150000     -2.5211340000      0.7225750000
C                  5.6299660000      0.2087050000     -1.4771900000
C                  6.9145010000     -2.4665630000     -1.0513340000
C                  8.8464560000      2.2596810000      1.8192660000
C                 10.1450710000     -0.3593620000      2.2084950000
C                  4.2886550000      0.1314870000     -0.7924710000
H                  5.6903770000     -0.4931440000     -2.3122300000
H                  5.7265130000      1.2251060000     -1.8796040000
H                  7.4549790000     -3.3288310000     -0.6575500000
H                  7.1028310000     -2.4180660000     -2.1341520000
H                  5.8379580000     -2.6267190000     -0.9206540000
H                  8.2474470000      3.1163640000      1.5059940000
H                  9.9050810000      2.4737300000      1.6156890000
H                  8.7558890000      2.1501140000      2.9094900000
H                  9.8925620000     -0.0485610000      3.2319030000
H                 11.0076080000      0.2504190000      1.9028620000
H                 10.4486590000     -1.4073190000      2.2226900000
C                  3.2063100000     -0.5925820000     -1.1176670000
C                  3.1359800000     -1.5350370000     -2.2976250000
C                  1.9449470000     -0.5131670000     -0.2783200000
C                  0.7278430000      0.1019620000     -0.9986850000
C                 -0.5283790000      0.1526920000     -0.1181280000
C                 -1.8092740000      0.6620680000     -0.8116890000
C                 -3.0388650000      0.4317620000      0.0915580000
C                 -4.4027900000      0.6928430000     -0.5641270000
C                 -5.5842250000      0.3560730000      0.3569370000
C                 -6.9866470000      0.5230400000     -0.2652110000
C                 -8.0557720000     -0.0759890000      0.6720250000
C                 -9.4758870000     -0.1628170000      0.0940590000
C                 -1.6791540000      2.1330600000     -1.2368610000
C                -10.4615750000     -0.8500690000      1.0491060000
C                -11.8906840000     -1.0461390000      0.5049200000
C                -12.6135230000      0.2827090000      0.2382180000
C                -12.7098970000     -1.9270370000      1.4592940000
H                  4.2242450000      0.7729250000      0.0845370000
H                  4.1101730000     -1.6883810000     -2.7612520000
H                  2.4539900000     -1.1666660000     -3.0749420000
H                  2.7545770000     -2.5169970000     -1.9868140000
H                  2.1536670000      0.0715350000      0.6238340000
H                  1.6685320000     -1.5237380000      0.0617730000
H                  0.5014980000     -0.4767130000     -1.9029670000
H                  1.0025570000      1.1071310000     -1.3350690000
H                 -0.3290930000      0.7767000000      0.7643820000
H                 -0.7223560000     -0.8574550000      0.2657070000
H                 -1.9523800000      0.0592610000     -1.7210070000
H                 -2.9424090000      1.0586030000      0.9892510000
H                 -3.0166400000     -0.6065970000      0.4463090000
H                 -4.4809620000      0.0926510000     -1.4810730000
H                 -4.4665780000      1.7389300000     -0.8770230000
H                 -5.5234290000      0.9726130000      1.2647310000
H                 -5.4770270000     -0.6838630000      0.6917730000
C                 -7.2877760000      1.9881300000     -0.6181290000
H                 -8.0784810000      0.5065850000      1.6037660000
H                 -7.7360510000     -1.0866110000      0.9577210000
H                 -9.4457270000     -0.7172920000     -0.8537090000
H                 -9.8397710000      0.8392460000     -0.1504610000
H                 -0.8208590000      2.2861020000     -1.8948320000
H                 -1.5424820000      2.7757830000     -0.3591410000
H                 -2.5665240000      2.4827500000     -1.7709090000
H                -10.5150550000     -0.2834020000      1.9888890000
H                -10.0580260000     -1.8361660000      1.3161590000
H                -11.8094640000     -1.5805610000     -0.4518040000
H                -12.1006800000      0.8898340000     -0.5149950000
H                -12.6894670000      0.8817090000      1.1533090000
H                -13.6332280000      0.1076600000     -0.1229280000
H                -12.2328670000     -2.9030920000      1.6100700000
H                -13.7189200000     -2.1066020000      1.0730370000
H                -12.8143920000     -1.4520890000      2.4421580000
H                 -7.0042530000     -0.0591150000     -1.1983770000
H                 -7.2917020000      2.6112180000      0.2841220000
H                 -8.2637090000      2.0978870000     -1.0980490000
H                 -6.5437980000      2.4017950000     -1.3044800000
$end
$rem
MAX_SCF_CYCLES=200
BASIS  =  6-311++G(d,p)
GUI  =  2
JOB_TYPE  =  SP
THRESH = 14
SCF_CONVERGENCE  = 6
METHOD  =  B3LYP
SOLVENT_METHOD = COSMO
$end
$solvent
dielectric 37.219
opticaldielectric 1.43
$end

--------------------------------------------------------------

             Standard Nuclear Orientation (Angstroms)
    I     Atom           X                Y                Z
 ----------------------------------------------------------------
    1      C      -7.2333324946     1.2154117825    -0.1855242815
    2      C      -8.3582726952     1.0616204928    -1.0883578931
    3      C      -8.9708011414    -0.1667635368    -1.2817418576
    4      C      -8.5252097563    -1.3639642838    -0.5900284306
    5      C      -7.3920583722    -1.2122198318     0.3078253772
    6      C      -6.7884886242     0.0207260724     0.5056371858
    7      O      -6.6582796445     2.3428391811     0.0013199946
    8      O      -9.1013126995    -2.4927381037    -0.7619623862
    9      C      -5.6261890608     0.2084362334     1.4682794382
   10      C      -6.9154713912    -2.4599769383     1.0146666207
   11      C      -8.8352031119     2.2981736273    -1.8110740159
   12      C     -10.1384947985    -0.3143518801    -2.2275204365
   13      C      -4.2843083125     0.1353683252     0.7842216444
   14      H      -5.6888460560    -0.5015120701     2.2962775159
   15      H      -5.7211851193     1.2209971281     1.8806209555
   16      H      -7.4572082825    -3.3172531025     0.6118178526
   17      H      -7.1048502189    -2.4218162204     2.0977152753
   18      H      -5.8391043281    -2.6209369894     0.8835260660
   19      H      -8.2348611917     3.1505464228    -1.4887277938
   20      H      -9.8936244470     2.5122684636    -1.6064887322
   21      H      -8.7436979321     2.1992102488    -2.9022333677
   22      H      -9.8843014627     0.0060545830    -3.2475436900
   23      H     -11.0001671657     0.2940630330    -1.9167689277
   24      H     -10.4441040956    -1.3615221434    -2.2523889457
   25      C      -3.2037168522    -0.5939930175     1.1033660976
   26      C      -3.1364651259    -1.5481995365     2.2740222136
   27      C      -1.9413161415    -0.5087514046     0.2661534248
   28      C      -0.7237801977     0.0968483620     0.9938255454
   29      C       0.5334672890     0.1538237689     0.1151160162
   30      C       1.8146168203     0.6538161577     0.8150061938
   31      C       3.0447110538     0.4300461214    -0.0891979708
   32      C       4.4084477438     0.6819681988     0.5704496781
   33      C       5.5901979656     0.3520097611    -0.3526729719
   34      C       6.9922840398     0.5100788430     0.2725488969
   35      C       8.0612318334    -0.0817459804    -0.6694539275
   36      C       9.4805641949    -0.1770569279    -0.0909023887
   37      C       1.6869074486     2.1207856636     1.2545635772
   38      C      10.4659225139    -0.8567611930    -1.0516739600
   39      C      11.8940721823    -1.0609923132    -0.5079713249
   40      C      12.6192107816     0.2637398032    -0.2273968864
   41      C      12.7125787865    -1.9340140841    -1.4701567977
   42      H      -4.2177254325     0.7853156635    -0.0863353988
   43      H      -4.1114434477    -1.7042142078     2.7351003773
   44      H      -2.4545816706    -1.1888624261     3.0556494052
   45      H      -2.7566435590    -2.5277831746     1.9539149802
   46      H      -2.1479463207     0.0852450778    -0.6303924216
   47      H      -1.6665070075    -1.5164500241    -0.0836260470
   48      H      -0.4995155936    -0.4911769001     1.8925771400
   49      H      -0.9968949193     1.0991785889     1.3398445633
   50      H       0.3363267442     0.7869116729    -0.7613884649
   51      H       0.7258856445    -0.8528574589    -0.2784845775
   52      H       1.9555904015     0.0417730100     1.7184686813
   53      H       2.9504217989     1.0659159943    -0.9807500795
   54      H       3.0208423841    -0.6047106290    -0.4542190518
   55      H       4.4844845111     0.0725914194     1.4814983135
   56      H       4.4739385364     1.7247850032     0.8937373145
   57      H       5.5315592679     0.9776093032    -1.2543904375
   58      H       5.4813324064    -0.6843546853    -0.6978837284
   59      C       7.2958874476     1.9710180308     0.6402446376
   60      H       8.0860571981     0.5099627798    -1.5953663961
   61      H       7.7398488786    -1.0888682783    -0.9654576817
   62      H       9.4483255416    -0.7408119538     0.8513063318
   63      H       9.8461368903     0.8218274590     0.1638885802
   64      H       0.8282171544     2.2689941945     1.9131250456
   65      H       1.5524120704     2.7724179192     0.3830987842
   66      H       2.5743910040     2.4634456852     1.7929620615
   67      H      10.5214963761    -0.2809392751    -1.9857533737
   68      H      10.0607397474    -1.8393801775    -1.3288801119
   69      H      11.8108031748    -1.6046840928     0.4433382440
   70      H      12.1067537095     0.8643919140     0.5312488297
   71      H      12.6972853611     0.8716051428    -1.1364426049
   72      H      13.6381916201     0.0831376999     0.1330581091
   73      H      12.2338119201    -2.9075971888    -1.6310686119
   74      H      13.7208423533    -2.1193592641    -1.0846477603
   75      H      12.8190347371    -1.4495804189    -2.4481688655
   76      H       7.0077728860    -0.0813038040     1.1999322369
   77      H       7.3019774656     2.6029839804    -0.2557982668
   78      H       8.2715245659     2.0741191282     1.1222377941
   79      H       6.5519905037     2.3793324528     1.3298795857
 ----------------------------------------------------------------

   59   -1284.8128520248      4.06e-07  Convergence criterion met
 Total energy in the final basis set =    -1284.8128520248
    7   -1285.0534400670      9.22e-07  Convergence criterion met
 Total energy in the final basis set =    -1285.0534400670

                    Orbital Energies (a.u.)
 --------------------------------------------------------------

 Alpha MOs
 -- Occupied --
-19.0066 -19.0064 -10.1658 -10.1635 -10.1627 -10.1568 -10.1541 -10.1540
-10.1538 -10.1535 -10.1534 -10.1533 -10.1531 -10.1531 -10.1528 -10.1527
-10.1524 -10.1495 -10.1493 -10.1491 -10.1477 -10.1464 -10.1433 -10.1374
-10.1292 -10.1290 -10.1282 -10.1142 -10.1134 -10.1129 -10.1127  -0.9316
 -0.9285  -0.8183  -0.8120  -0.8029  -0.7943  -0.7800  -0.7624  -0.7526
 -0.7375  -0.7197  -0.7036  -0.6888  -0.6768  -0.6724  -0.6711  -0.6681
 -0.6627  -0.6403  -0.6145  -0.5955  -0.5896  -0.5787  -0.5656  -0.5557
 -0.5511  -0.5438  -0.5049  -0.5015  -0.4913  -0.4743  -0.4694  -0.4643
 -0.4597  -0.4465  -0.4421  -0.4375  -0.4343  -0.4276  -0.4236  -0.4165
 -0.4128  -0.4058  -0.4022  -0.4004  -0.3975  -0.3887  -0.3839  -0.3820
 -0.3795  -0.3776  -0.3739  -0.3734  -0.3715  -0.3677  -0.3660  -0.3604
 -0.3579  -0.3562  -0.3556  -0.3528  -0.3475  -0.3448  -0.3428  -0.3389
 -0.3368  -0.3339  -0.3287  -0.3259  -0.3216  -0.3207  -0.3183  -0.3134
 -0.3123  -0.3115  -0.3101  -0.3075  -0.3056  -0.3023  -0.2996  -0.2985
 -0.2901  -0.2828  -0.2231  -0.2115  -0.1936  -0.1859  -0.1798  -0.1004

          Ground-State Mulliken Net Atomic Charges

     Atom                 Charge (a.u.)
  ----------------------------------------
      1 C                    -1.201645
      2 C                     0.594928
      3 C                     0.317016
      4 C                    -1.201033
      5 C                     0.568417
      6 C                     1.010362
      7 O                    -0.728586
      8 O                    -0.757706
      9 C                    -0.123048
     10 C                    -0.677144
     11 C                    -0.549645
     12 C                    -0.527700
     13 C                    -0.616639
     14 H                     0.161171
     15 H                     0.187952
     16 H                     0.164610
     17 H                     0.148658
     18 H                     0.146088
     19 H                     0.162404
     20 H                     0.129608
     21 H                     0.133534
     22 H                     0.129077
     23 H                     0.132071
     24 H                     0.169141
     25 C                     1.272049
     26 C                    -0.808582
     27 C                    -1.252989
     28 C                    -0.137437
     29 C                    -0.863987
     30 C                     1.343652
     31 C                    -0.961855
     32 C                    -0.060638
     33 C                    -1.033917
     34 C                     1.294444
     35 C                    -0.768238
     36 C                     0.037686
     37 C                    -0.798773
     38 C                    -0.762346
     39 C                     0.532564
     40 C                    -0.713359
     41 C                    -0.682644
     42 H                     0.244318
     43 H                     0.106980
     44 H                     0.169934
     45 H                     0.167760
     46 H                     0.123590
     47 H                     0.168329
     48 H                     0.132862
     49 H                     0.151719
     50 H                     0.143300
     51 H                     0.129435
     52 H                     0.137883
     53 H                     0.156098
     54 H                     0.112385
     55 H                     0.162581
     56 H                     0.095781
     57 H                     0.150706
     58 H                     0.118291
     59 C                    -0.783784
     60 H                     0.147786
     61 H                     0.112897
     62 H                     0.154221
     63 H                     0.098679
     64 H                     0.145793
     65 H                     0.166764
     66 H                     0.147757
     67 H                     0.145824
     68 H                     0.133089
     69 H                     0.145251
     70 H                     0.148368
     71 H                     0.154067
     72 H                     0.152349
     73 H                     0.141970
     74 H                     0.162879
     75 H                     0.146370
     76 H                     0.136663
     77 H                     0.165915
     78 H                     0.150104
     79 H                     0.147567
  ----------------------------------------
  Sum of atomic charges =    -2.000000

                    Cartesian Multipole Moments
 -----------------------------------------------------------------
    Charge (ESU x 10^10)
                -9.6064
    Dipole Moment (Debye)
         X      75.1543      Y       0.6009      Z       4.0499
       Tot      75.2657
    Quadrupole Moments (Debye-Ang)
        XX    -819.3907     XY     -31.4865     YY    -260.0445
        XZ     -33.3810     YZ      -8.9416     ZZ    -215.0752

 Total job time:  2929.90s(wall), 22208.77s(cpu)
        *  Thank you very much for using Q-Chem.  Have a nice day.  *
