 Q-Chem 5.4, Q-Chem, Inc., Pleasanton, CA (2021)
 Q-Chem 5.4.0 for Intel X86 EM64T Linux

User input:
--------------------------------------------------------------
$molecule
0 1
O                  4.3931520000     -1.5011540000     -0.4083460000
C                  3.2740540000     -0.7522710000     -0.3158620000
C                  3.3447320000      0.6231250000     -0.3671650000
C                  2.1857830000      1.4133420000     -0.2719890000
O                  2.2956820000      2.7620530000     -0.3264810000
C                  0.9228080000      0.8149860000     -0.1217140000
C                 -0.3169950000      1.6165580000     -0.0187990000
O                 -0.3342910000      2.8366220000     -0.0559350000
C                 -1.6102900000      0.8672870000      0.1393810000
C                 -2.7974840000      1.5978860000      0.2390210000
C                 -4.0137210000      0.9415040000      0.3862680000
C                 -4.0607780000     -0.4554230000      0.4360150000
C                 -2.8884180000     -1.1917320000      0.3380210000
C                 -1.6600770000     -0.5345240000      0.1895510000
C                 -0.4197450000     -1.3244910000      0.0862350000
O                 -0.4565470000     -2.5659390000      0.1298040000
C                  0.8583870000     -0.6132060000     -0.0692760000
C                  2.0200000000     -1.3855060000     -0.1652140000
O                  2.0544570000     -2.7322960000     -0.1256810000
H                  4.1354120000     -2.4336790000     -0.3520180000
H                  4.3175100000      1.0899810000     -0.4832040000
H                  3.2234270000      3.0019280000     -0.4301370000
H                 -2.7396810000      2.6782940000      0.1982560000
H                 -4.9300740000      1.5159910000      0.4628480000
H                 -5.0115310000     -0.9631580000      0.5509270000
H                 -2.8978960000     -2.2737920000      0.3736800000
H                  1.1121230000     -3.0323860000     -0.0181860000
$end

$rem
BASIS  =  6-311++G(d,p)
GUI  =  2
JOB_TYPE  =  SP
METHOD  =  B3LYP
SCF_CONVERGENCE  = 8
SOLVENT_METHOD = sm12
$end

$smx
solvent dimethylformamide
charges CM5
$end

--------------------------------------------------------------

             Standard Nuclear Orientation (Angstroms)
    I     Atom           X                Y                Z
 ----------------------------------------------------------------
    1      O       4.3931520000    -1.5011540000    -0.4083460000
    2      C       3.2740540000    -0.7522710000    -0.3158620000
    3      C       3.3447320000     0.6231250000    -0.3671650000
    4      C       2.1857830000     1.4133420000    -0.2719890000
    5      O       2.2956820000     2.7620530000    -0.3264810000
    6      C       0.9228080000     0.8149860000    -0.1217140000
    7      C      -0.3169950000     1.6165580000    -0.0187990000
    8      O      -0.3342910000     2.8366220000    -0.0559350000
    9      C      -1.6102900000     0.8672870000     0.1393810000
   10      C      -2.7974840000     1.5978860000     0.2390210000
   11      C      -4.0137210000     0.9415040000     0.3862680000
   12      C      -4.0607780000    -0.4554230000     0.4360150000
   13      C      -2.8884180000    -1.1917320000     0.3380210000
   14      C      -1.6600770000    -0.5345240000     0.1895510000
   15      C      -0.4197450000    -1.3244910000     0.0862350000
   16      O      -0.4565470000    -2.5659390000     0.1298040000
   17      C       0.8583870000    -0.6132060000    -0.0692760000
   18      C       2.0200000000    -1.3855060000    -0.1652140000
   19      O       2.0544570000    -2.7322960000    -0.1256810000
   20      H       4.1354120000    -2.4336790000    -0.3520180000
   21      H       4.3175100000     1.0899810000    -0.4832040000
   22      H       3.2234270000     3.0019280000    -0.4301370000
   23      H      -2.7396810000     2.6782940000     0.1982560000
   24      H      -4.9300740000     1.5159910000     0.4628480000
   25      H      -5.0115310000    -0.9631580000     0.5509270000
   26      H      -2.8978960000    -2.2737920000     0.3736800000
   27      H       1.1121230000    -3.0323860000    -0.0181860000
 ----------------------------------------------------------------

   15    -914.7010957097      7.18e-09  Convergence criterion met
 Total energy in the final basis set =     -914.7318143941

                    Orbital Energies (a.u.)
 --------------------------------------------------------------

 Alpha MOs
 -- Occupied --
-19.1809 -19.1729 -19.1724 -19.1416 -19.1143 -10.2911 -10.2740 -10.2713
-10.2698 -10.2681 -10.2164 -10.2083 -10.2071 -10.2066 -10.2031 -10.1979
-10.1977 -10.1960 -10.1942  -1.1109  -1.0900  -1.0862  -1.0617  -1.0503
 -0.8937  -0.8799  -0.8160  -0.7785  -0.7751  -0.7694  -0.7001  -0.6805
 -0.6613  -0.6351  -0.6130  -0.6009  -0.5667  -0.5592  -0.5385  -0.5245
 -0.5098  -0.4950  -0.4819  -0.4778  -0.4637  -0.4600  -0.4501  -0.4433
 -0.4397  -0.4364  -0.4338  -0.4068  -0.4062  -0.3999  -0.3961  -0.3910
 -0.3808  -0.3745  -0.3672  -0.3297  -0.2955  -0.2849  -0.2769  -0.2688
 -0.2647  -0.2337

          Ground-State Mulliken Net Atomic Charges

     Atom                 Charge (a.u.)
  ----------------------------------------
      1 O                    -0.236690
      2 C                    -0.055547
      3 C                     1.178972
      4 C                     0.134867
      5 O                    -0.189037
      6 C                    -0.198354
      7 C                    -1.301524
      8 O                    -0.299147
      9 C                    -1.006004
     10 C                    -0.009948
     11 C                     0.346130
     12 C                     0.379792
     13 C                     0.358566
     14 C                    -0.017618
     15 C                    -1.036588
     16 O                    -0.273114
     17 C                     0.464175
     18 C                    -0.220383
     19 O                    -0.381707
     20 H                     0.303958
     21 H                     0.342292
     22 H                     0.332944
     23 H                     0.167214
     24 H                     0.315577
     25 H                     0.331031
     26 H                     0.216895
     27 H                     0.353250
  ----------------------------------------
  Sum of atomic charges =     0.000000

                    Cartesian Multipole Moments
 -----------------------------------------------------------------
    Charge (ESU x 10^10)
                 0.0000
    Dipole Moment (Debye)
         X      -0.0355      Y      -0.9191      Z       0.0314
       Tot       0.9203
    Quadrupole Moments (Debye-Ang)
        XX     -79.8326     XY       5.9154     YY    -115.9919
        XZ      -3.3665     YZ      -0.4387     ZZ    -110.1509

 Total job time:  594.87s(wall), 4650.63s(cpu)
        *  Thank you very much for using Q-Chem.  Have a nice day.  *
