 Gaussian 16, Revision A.03,
 Gaussian 16:  ES64L-G16RevA.03 25-Dec-2016

 ----------------------------------------------------------------------
 #P UB3LYP/6-311++G(d,p) nosym opt freq SCRF=(PCM,Solvent=n,n-DiMethylF
 ormamide)
 ----------------------------------------------------------------------

 -------
 Reduced
 -------
 Symbolic Z-matrix:
 Charge = -2 Multiplicity = 1

 SCF Done:  E(UB3LYP) =  -1145.09153610     A.U. after   17 cycles
 SCF Done:  E(UB3LYP) =  -1145.09424944     A.U. after   14 cycles
 SCF Done:  E(UB3LYP) =  -1145.09335853     A.U. after   15 cycles
 SCF Done:  E(UB3LYP) =  -1145.09575130     A.U. after   13 cycles
 SCF Done:  E(UB3LYP) =  -1145.09607829     A.U. after   13 cycles
 SCF Done:  E(UB3LYP) =  -1145.09627093     A.U. after   15 cycles
 SCF Done:  E(UB3LYP) =  -1145.09632871     A.U. after   12 cycles
 SCF Done:  E(UB3LYP) =  -1145.09633731     A.U. after   12 cycles
 SCF Done:  E(UB3LYP) =  -1145.09635506     A.U. after   10 cycles
 SCF Done:  E(UB3LYP) =  -1145.09637447     A.U. after   11 cycles
 SCF Done:  E(UB3LYP) =  -1145.09642109     A.U. after   10 cycles
 SCF Done:  E(UB3LYP) =  -1145.09646033     A.U. after   11 cycles
 SCF Done:  E(UB3LYP) =  -1145.09647441     A.U. after   11 cycles
 SCF Done:  E(UB3LYP) =  -1145.09648552     A.U. after   11 cycles
 SCF Done:  E(UB3LYP) =  -1145.09648853     A.U. after   10 cycles
 SCF Done:  E(UB3LYP) =  -1145.09648970     A.U. after   10 cycles
 SCF Done:  E(UB3LYP) =  -1145.09648979     A.U. after    9 cycles
 SCF Done:  E(UB3LYP) =  -1145.09648981     A.U. after    8 cycles
 SCF Done:  E(UB3LYP) =  -1145.09648982     A.U. after    7 cycles
 Optimization completed.
    -- Stationary point found.
 Normal termination of Gaussian 16 at Sat Feb 10 20:54:00 2024.

 ----------------------------------------------------------------------
 #P Geom=AllCheck Guess=TCheck SCRF=Check GenChk UB3LYP/6-311++G(d,p) F
 req
 ----------------------------------------------------------------------

 Structure from the checkpoint file:  "147-an.chk"
 -------
 Reduced
 -------
 Charge = -2 Multiplicity = 1

                          Input orientation:
 ---------------------------------------------------------------------
 Center     Atomic      Atomic             Coordinates (Angstroms)
 Number     Number       Type             X           Y           Z
 ---------------------------------------------------------------------
      1          6           0       -2.802526    3.974415    0.638681
      2          6           0       -4.083581    3.498539    0.790748
      3          6           0       -4.299197    2.102887    0.679982
      4          6           0       -1.692304    3.122184    0.378374
      5          6           0       -1.938570    1.694878    0.274953
      6          6           0       -3.276991    1.231664    0.436936
      7          6           0       -0.379104    3.690702    0.232021
      8          6           0        0.668275    2.741600   -0.022509
      9          6           0        0.422006    1.314295   -0.125940
     10          6           0       -0.891192    0.745777    0.020427
     11          6           0        2.006696    3.204812   -0.184503
     12          6           0        3.028893    2.333589   -0.427594
     13          6           0        2.813270    0.937942   -0.538382
     14          6           0        1.532218    0.462065   -0.386282
     15          8           0       -0.155526    4.969853    0.323864
     16          8           0       -1.114773   -0.533372   -0.071442
     17          1           0       -3.464821    0.167259    0.363500
     18          1           0        1.333560   -0.600665   -0.464737
     19          1           0       -2.603873    5.037148    0.717120
     20          1           0        2.194527    4.269217   -0.111064
     21          1           0        3.646677    0.274536   -0.740487
     22          8           0       -5.603496    1.596512    0.914547
     23          8           0        4.333198    2.839932   -0.662198
     24          6           0        5.237857    2.821255    0.345990
     25          6           0        6.559350    3.375037   -0.113204
     26          8           0        4.996724    2.412710    1.458987
     27          1           0       -4.916994    4.161950    0.992815
     28          1           0        6.426501    4.393303   -0.485005
     29          1           0        6.947013    2.772070   -0.937406
     30          1           0        7.268500    3.371621    0.711632
     31          6           0       -6.508184    1.615336   -0.093611
     32          6           0       -7.829933    1.062339    0.365792
     33          8           0       -6.266983    2.023724   -1.206652
     34          1           0       -7.697062    0.045962    0.742626
     35          1           0       -8.537753    1.061651   -0.460195
     36          1           0       -8.219423    1.668965    1.186482
 ---------------------------------------------------------------------

 SCF Done:  E(UB3LYP) =  -1145.09648982     A.U. after    1 cycles

 Alpha  occ. eigenvalues --  -19.17171 -19.17171 -19.11903 -19.11903 -19.02025
 Alpha  occ. eigenvalues --  -19.02024 -10.31116 -10.31116 -10.21499 -10.21499
 Alpha  occ. eigenvalues --  -10.17774 -10.17774 -10.17648 -10.17647 -10.15786
 Alpha  occ. eigenvalues --  -10.15786 -10.15528 -10.15528 -10.15397 -10.15397
 Alpha  occ. eigenvalues --  -10.14401 -10.14400 -10.14232 -10.14231  -1.11230
 Alpha  occ. eigenvalues --   -1.11230  -1.02946  -1.02945  -0.93431  -0.92996
 Alpha  occ. eigenvalues --   -0.83796  -0.83375  -0.77652  -0.76502  -0.74825
 Alpha  occ. eigenvalues --   -0.73291  -0.72983  -0.71118  -0.65316  -0.64359
 Alpha  occ. eigenvalues --   -0.61553  -0.60381  -0.57312  -0.55609  -0.52953
 Alpha  occ. eigenvalues --   -0.51377  -0.50157  -0.49701  -0.48952  -0.48599
 Alpha  occ. eigenvalues --   -0.47951  -0.47390  -0.45251  -0.44821  -0.44512
 Alpha  occ. eigenvalues --   -0.42403  -0.41552  -0.41439  -0.41414  -0.40864
 Alpha  occ. eigenvalues --   -0.40158  -0.39379  -0.39006  -0.38664  -0.37718
 Alpha  occ. eigenvalues --   -0.37540  -0.37447  -0.35973  -0.34147  -0.34127
 Alpha  occ. eigenvalues --   -0.33593  -0.32549  -0.31925  -0.31431  -0.30314
 Alpha  occ. eigenvalues --   -0.30195  -0.28924  -0.28919  -0.24211  -0.23082
 Alpha  occ. eigenvalues --   -0.22486  -0.21913  -0.20319  -0.19780  -0.11169
 Alpha virt. eigenvalues --   -0.03326  -0.00531  -0.00530  -0.00292  -0.00082
 Alpha virt. eigenvalues --   -0.00015   0.01130   0.01397   0.01416   0.02479
 Alpha virt. eigenvalues --    0.02789   0.03711   0.03833   0.04072   0.04376

  Beta  occ. eigenvalues --  -19.17171 -19.17171 -19.11903 -19.11903 -19.02025
  Beta  occ. eigenvalues --  -19.02024 -10.31116 -10.31116 -10.21499 -10.21499
  Beta  occ. eigenvalues --  -10.17774 -10.17774 -10.17648 -10.17647 -10.15786
  Beta  occ. eigenvalues --  -10.15786 -10.15528 -10.15528 -10.15397 -10.15397
  Beta  occ. eigenvalues --  -10.14401 -10.14400 -10.14232 -10.14231  -1.11230
  Beta  occ. eigenvalues --   -1.11230  -1.02946  -1.02945  -0.93431  -0.92996
  Beta  occ. eigenvalues --   -0.83796  -0.83375  -0.77652  -0.76502  -0.74825
  Beta  occ. eigenvalues --   -0.73291  -0.72983  -0.71118  -0.65316  -0.64359
  Beta  occ. eigenvalues --   -0.61553  -0.60381  -0.57312  -0.55609  -0.52953
  Beta  occ. eigenvalues --   -0.51377  -0.50157  -0.49701  -0.48952  -0.48599
  Beta  occ. eigenvalues --   -0.47951  -0.47390  -0.45251  -0.44821  -0.44512
  Beta  occ. eigenvalues --   -0.42403  -0.41552  -0.41439  -0.41414  -0.40864
  Beta  occ. eigenvalues --   -0.40158  -0.39379  -0.39006  -0.38664  -0.37718
  Beta  occ. eigenvalues --   -0.37540  -0.37447  -0.35973  -0.34147  -0.34127
  Beta  occ. eigenvalues --   -0.33593  -0.32549  -0.31925  -0.31431  -0.30314
  Beta  occ. eigenvalues --   -0.30195  -0.28924  -0.28919  -0.24211  -0.23082
  Beta  occ. eigenvalues --   -0.22486  -0.21913  -0.20319  -0.19780  -0.11169
  Beta virt. eigenvalues --   -0.03326  -0.00531  -0.00530  -0.00292  -0.00082
  Beta virt. eigenvalues --   -0.00015   0.01130   0.01397   0.01416   0.02479
  Beta virt. eigenvalues --    0.02789   0.03711   0.03833   0.04072   0.04376

 Mulliken charges and spin densities:
               1          2
     1  C    0.067533   0.000000
     2  C    0.209493  -0.000000
     3  C   -1.038414  -0.000000
     4  C    0.198132   0.000000
     5  C    0.524033  -0.000000
     6  C    0.019032  -0.000000
     7  C   -0.647999   0.000000
     8  C    0.524223   0.000000
     9  C    0.197744  -0.000000
    10  C   -0.647849  -0.000000
    11  C    0.018860   0.000000
    12  C   -1.038383  -0.000000
    13  C    0.209624   0.000000
    14  C    0.067405  -0.000000
    15  O   -0.662329   0.000000
    16  O   -0.662340  -0.000000
    17  H    0.165320   0.000000
    18  H    0.161617  -0.000000
    19  H    0.161612  -0.000000
    20  H    0.165340  -0.000000
    21  H    0.189052   0.000000
    22  O   -0.018579   0.000000
    23  O   -0.018610  -0.000000
    24  C    0.128607   0.000000
    25  C   -0.534104  -0.000000
    26  O   -0.304475  -0.000000
    27  H    0.189093  -0.000000
    28  H    0.184978   0.000000
    29  H    0.185557   0.000000
    30  H    0.172620  -0.000000
    31  C    0.128502  -0.000000
    32  C   -0.533946   0.000000
    33  O   -0.304473   0.000000
    34  H    0.184834   0.000000
    35  H    0.172624   0.000000
    36  H    0.185669  -0.000000
 Sum of Mulliken charges =  -2.00000  -0.00000

 Dipole moment (field-independent basis, Debye):
    X=              6.1009    Y=            -21.3074    Z=             -1.2119  Tot=             22.1967
 Quadrupole moment (field-independent basis, Debye-Ang):
   XX=           -157.0594   YY=           -239.6518   ZZ=           -160.6488
   XY=             16.0224   XZ=            -24.4282   YZ=             -4.8685

  Exact polarizability: 635.416  -7.335 415.605 -48.819  16.894 231.170
 Approx polarizability: 668.527  -9.998 493.029 -63.902  17.929 272.120

                      1                      2                      3
                      A                      A                      A
 Frequencies --     22.3664                28.9702                29.6891
 Red. masses --      6.1402                 1.2224                 1.1539
 Frc consts  --      0.0018                 0.0006                 0.0006
 IR Inten    --     13.5664                 7.3943                 0.0181

                      4                      5                      6
                      A                      A                      A
 Frequencies --     39.5138                44.3197                57.2004
 Red. masses --      6.0971                 9.8719                 7.0885
 Frc consts  --      0.0056                 0.0114                 0.0137
 IR Inten    --      0.7677                 0.0000                 0.0000

                      7                      8                      9
                      A                      A                      A
 Frequencies --     72.2425                77.1128                81.5350
 Red. masses --      3.7536                 3.8753                 2.6903
 Frc consts  --      0.0115                 0.0136                 0.0105
 IR Inten    --     10.5830                13.3685                 0.0001

                     10                     11                     12
                      A                      A                      A
 Frequencies --    122.1347               141.4610               163.3123
 Red. masses --      5.1320                 6.0423                10.1985
 Frc consts  --      0.0451                 0.0712                 0.1603
 IR Inten    --      2.3115                 0.0000                19.9426

                     13                     14                     15
                      A                      A                      A
 Frequencies --    183.2162               203.0344               233.1643
 Red. masses --      7.2900                 6.5728                 6.1247
 Frc consts  --      0.1442                 0.1596                 0.1962
 IR Inten    --     10.7324                 0.0000                 0.0000

                     16                     17                     18
                      A                      A                      A
 Frequencies --    258.0930               291.3534               313.1679
 Red. masses --      6.9162                 5.6903                 5.7861
 Frc consts  --      0.2714                 0.2846                 0.3343
 IR Inten    --      0.0000                 5.4816                12.4075

                     19                     20                     21
                      A                      A                      A
 Frequencies --    339.5127               375.0041               390.2155
 Red. masses --      6.2430                 6.6425                 7.4579
 Frc consts  --      0.4240                 0.5504                 0.6691
 IR Inten    --      0.0000                11.1443                 0.0000

                     22                     23                     24
                      A                      A                      A
 Frequencies --    408.7024               411.5192               425.6044
 Red. masses --      5.5302                 4.7316                 3.3315
 Frc consts  --      0.5443                 0.4721                 0.3556
 IR Inten    --     40.5126                 0.0018                12.7987

                     25                     26                     27
                      A                      A                      A
 Frequencies --    448.5414               471.5956               477.6827
 Red. masses --      7.2365                 3.5722                 4.3845
 Frc consts  --      0.8578                 0.4681                 0.5895
 IR Inten    --      0.0000                 0.0000                 0.0000

                     28                     29                     30
                      A                      A                      A
 Frequencies --    498.8066               538.7523               550.1311
 Red. masses --     11.2441                 4.5364                 4.6031
 Frc consts  --      1.6483                 0.7758                 0.8208
 IR Inten    --      0.0000                47.3626                45.5999

                     31                     32                     33
                      A                      A                      A
 Frequencies --    598.8030               605.6472               611.0209
 Red. masses --      4.6019                 2.8844                 2.9873
 Frc consts  --      0.9722                 0.6234                 0.6571
 IR Inten    --      0.0020                35.2691                 0.0012

                     34                     35                     36
                      A                      A                      A
 Frequencies --    636.0941               649.5770               662.6021
 Red. masses --      4.9066                 6.2083                 5.0749
 Frc consts  --      1.1697                 1.5434                 1.3128
 IR Inten    --      0.0000                 6.5783                35.7598

                     37                     38                     39
                      A                      A                      A
 Frequencies --    690.0043               700.2912               706.2397
 Red. masses --      6.3042                 5.2203                 4.6105
 Frc consts  --      1.7684                 1.5084                 1.3549
 IR Inten    --      0.0000                 0.0000                31.6896

                     40                     41                     42
                      A                      A                      A
 Frequencies --    710.0499               760.2659               765.6695
 Red. masses --      4.6278                 5.9394                 1.8682
 Frc consts  --      1.3747                 2.0227                 0.6453
 IR Inten    --     27.8537                24.5051                 0.0000

                     43                     44                     45
                      A                      A                      A
 Frequencies --    799.3793               800.6435               818.7738
 Red. masses --      1.6759                 4.5245                 3.4673
 Frc consts  --      0.6310                 1.7088                 1.3695
 IR Inten    --     56.7560                 0.0000                 0.0000

                     46                     47                     48
                      A                      A                      A
 Frequencies --    866.8182               896.4745               896.8589
 Red. masses --      5.0615                 2.5755                 2.0828
 Frc consts  --      2.2407                 1.2195                 0.9871
 IR Inten    --    129.2151               102.6988                 0.0005

                     49                     50                     51
                      A                      A                      A
 Frequencies --    931.3643               937.4322               970.1939
 Red. masses --      2.5845                 3.1655                 2.4361
 Frc consts  --      1.3209                 1.6390                 1.3510
 IR Inten    --    116.3443                 0.0000               104.8582

                     52                     53                     54
                      A                      A                      A
 Frequencies --    972.9692               974.4775               985.2627
 Red. masses --      1.3011                 1.3513                 3.7308
 Frc consts  --      0.7257                 0.7560                 2.1338
 IR Inten    --      0.0000                19.9954                 0.0000

                     55                     56                     57
                      A                      A                      A
 Frequencies --   1018.9760              1020.1995              1062.2177
 Red. masses --      1.7611                 1.7400                 1.8008
 Frc consts  --      1.0774                 1.0670                 1.1971
 IR Inten    --    349.4124                 0.0015                36.0574

                     58                     59                     60
                      A                      A                      A
 Frequencies --   1062.2460              1078.9539              1106.7516
 Red. masses --      1.7997                 3.2878                 2.0843
 Frc consts  --      1.1965                 2.2551                 1.5042
 IR Inten    --      1.6091               558.4001                 0.0000

                     61                     62                     63
                      A                      A                      A
 Frequencies --   1113.2972              1117.1210              1154.2181
 Red. masses --      2.6519                 1.5425                 1.7557
 Frc consts  --      1.9366                 1.1342                 1.3781
 IR Inten    --   1059.4045                 0.0000               923.3561

                     64                     65                     66
                      A                      A                      A
 Frequencies --   1188.2243              1195.8220              1198.8926
 Red. masses --      1.7542                 4.3353                 7.4471
 Frc consts  --      1.4592                 3.6526                 6.3066
 IR Inten    --      0.0000                54.2618                 0.0000

                     67                     68                     69
                      A                      A                      A
 Frequencies --   1218.6986              1229.5566              1246.0043
 Red. masses --      3.3188                 4.1132                 2.4995
 Frc consts  --      2.9041                 3.6637                 2.2863
 IR Inten    --   1827.8193                 0.0001               291.5344

                     70                     71                     72
                      A                      A                      A
 Frequencies --   1301.6477              1323.9810              1329.5335
 Red. masses --      3.7131                 3.0276                 4.5332
 Frc consts  --      3.7066                 3.1269                 4.7212
 IR Inten    --      0.0000                 0.0000              2643.5442

                     73                     74                     75
                      A                      A                      A
 Frequencies --   1351.9454              1394.0871              1394.1469
 Red. masses --      6.1629                 1.3050                 1.3056
 Frc consts  --      6.6367                 1.4943                 1.4951
 IR Inten    --    824.9544               151.8001                 3.1437

                     76                     77                     78
                      A                      A                      A
 Frequencies --   1419.8610              1454.9451              1459.2923
 Red. masses --      5.1209                 6.8000                 1.0598
 Frc consts  --      6.0826                 8.4811                 1.3297
 IR Inten    --    401.5507                 0.0000                70.1575

                     79                     80                     81
                      A                      A                      A
 Frequencies --   1459.4248              1464.3468              1464.4141
 Red. masses --      1.0701                 1.0499                 1.0524
 Frc consts  --      1.3429                 1.3264                 1.3297
 IR Inten    --      0.0016                 1.0041                31.2941

                     82                     83                     84
                      A                      A                      A
 Frequencies --   1466.6136              1477.1378              1502.4439
 Red. masses --      2.9646                 4.2508                 5.4480
 Frc consts  --      3.7571                 5.4646                 7.2457
 IR Inten    --    160.3007                 0.0000                 0.0000

                     85                     86                     87
                      A                      A                      A
 Frequencies --   1534.5749              1581.3314              1611.9585
 Red. masses --      6.7357                 7.7754                 6.8763
 Frc consts  --      9.3456                11.4556                10.5272
 IR Inten    --     99.0972                 0.0000               238.8977

                     88                     89                     90
                      A                      A                      A
 Frequencies --   1617.8540              1754.7367              1755.1345
 Red. masses --      7.2211                11.2207                11.2126
 Frc consts  --     11.1361                20.3560                20.3507
 IR Inten    --      0.0000               993.1410                 0.0028

                     91                     92                     93
                      A                      A                      A
 Frequencies --   3051.4495              3051.4516              3112.3328
 Red. masses --      1.0366                 1.0366                 1.1002
 Frc consts  --      5.6870                 5.6871                 6.2790
 IR Inten    --      3.6359                 1.1777                 5.2044

                     94                     95                     96
                      A                      A                      A
 Frequencies --   3112.3461              3155.0514              3155.0562
 Red. masses --      1.1002                 1.1034                 1.1034
 Frc consts  --      6.2790                 6.4714                 6.4714
 IR Inten    --      5.3954                22.4584                 5.9383

                     97                     98                     99
                      A                      A                      A
 Frequencies --   3168.0364              3168.2595              3183.5060
 Red. masses --      1.0863                 1.0864                 1.0916
 Frc consts  --      6.4233                 6.4254                 6.5184
 IR Inten    --      3.2608                 0.0000                 0.0001

                    100                    101                    102
                      A                      A                      A
 Frequencies --   3183.7812              3184.5123              3185.3647
 Red. masses --      1.0914                 1.0928                 1.0926
 Frc consts  --      6.5180                 6.5297                 6.5316
 IR Inten    --     20.6505               120.2017                 0.0000

 - Thermochemistry -
 -------------------
 Temperature   298.150 Kelvin.  Pressure   1.00000 Atm.
 Atom     1 has atomic number  6 and mass  12.00000

 Molecular mass:   324.06339 amu.
 Principal axes and moments of inertia in atomic units:
                           1         2         3
     Eigenvalues --  2287.30012********************
           X            0.99667  -0.07750   0.02516
           Y            0.08016   0.98801  -0.13196
           Z           -0.01464   0.13354   0.99093
 This molecule is an asymmetric top.
 Rotational symmetry number  1.
 Warning -- assumption of classical behavior for rotation
           may cause significant error
 Rotational temperatures (Kelvin)      0.03787     0.00451     0.00418
 Rotational constants (GHZ):           0.78903     0.09393     0.08702
 Zero-point vibrational energy     672819.3 (Joules/Mol)
                                  160.80768 (Kcal/Mol)
 Warning -- explicit consideration of  33 degrees of freedom as
           vibrations may cause significant error
 Vibrational temperatures:     32.18    41.68    42.72    56.85    63.77
          (Kelvin)             82.30   103.94   110.95   117.31   175.72
                              203.53   234.97   263.61   292.12   335.47
                              371.34   419.19   450.58   488.48   539.55
                              561.43   588.03   592.08   612.35   645.35
                              678.52   687.28   717.67   775.14   791.52
                              861.54   871.39   879.12   915.20   934.60
                              953.34   992.76  1007.56  1016.12  1021.60
                             1093.85  1101.63  1150.13  1151.95  1178.03
                             1247.16  1289.83  1290.38  1340.03  1348.76
                             1395.89  1399.89  1402.06  1417.57  1466.08
                             1467.84  1528.29  1528.34  1552.37  1592.37
                             1601.79  1607.29  1660.66  1709.59  1720.52
                             1724.94  1753.44  1769.06  1792.72  1872.78
                             1904.91  1912.90  1945.15  2005.78  2005.87
                             2042.86  2093.34  2099.60  2099.79  2106.87
                             2106.97  2110.13  2125.27  2161.68  2207.91
                             2275.18  2319.25  2327.73  2524.67  2525.25
                             4390.36  4390.36  4477.95  4477.97  4539.42
                             4539.42  4558.10  4558.42  4580.36  4580.75
                             4581.80  4583.03

 Zero-point correction=                           0.256263 (Hartree/Particle)
 Thermal correction to Energy=                    0.277447
 Thermal correction to Enthalpy=                  0.278392
 Thermal correction to Gibbs Free Energy=         0.202625
 Sum of electronic and zero-point Energies=          -1144.840226
 Sum of electronic and thermal Energies=             -1144.819042
 Sum of electronic and thermal Enthalpies=           -1144.818098
 Sum of electronic and thermal Free Energies=        -1144.893865

                     E (Thermal)             CV                S
                      KCal/Mol        Cal/Mol-Kelvin    Cal/Mol-Kelvin
 Total                  174.101             78.769            159.463
 Electronic               0.000              0.000              0.000
 Translational            0.889              2.981             43.223
 Rotational               0.889              2.981             35.165
 Vibrational            172.323             72.807             81.076
 Vibration     1          0.593              1.985              6.412
 Vibration     2          0.593              1.984              5.899
 Vibration     3          0.593              1.984              5.850
 Vibration     4          0.594              1.981              5.283
 Vibration     5          0.595              1.980              5.056
 Vibration     6          0.596              1.975              4.552
 Vibration     7          0.598              1.967              4.091
 Vibration     8          0.599              1.964              3.963
 Vibration     9          0.600              1.962              3.854
 Vibration    10          0.610              1.931              3.066
 Vibration    11          0.615              1.912              2.784
 Vibration    12          0.623              1.887              2.511
 Vibration    13          0.631              1.863              2.295
 Vibration    14          0.639              1.836              2.105
 Vibration    15          0.654              1.790              1.854
 Vibration    16          0.667              1.749              1.675
 Vibration    17          0.687              1.690              1.466
 Vibration    18          0.701              1.649              1.346
 Vibration    19          0.719              1.597              1.214
 Vibration    20          0.746              1.523              1.059
 Vibration    21          0.758              1.491              0.999
 Vibration    22          0.773              1.451              0.931
 Vibration    23          0.775              1.445              0.921
 Vibration    24          0.787              1.415              0.873
 Vibration    25          0.808              1.364              0.800
 Vibration    26          0.829              1.313              0.733
 Vibration    27          0.834              1.300              0.716
 Vibration    28          0.854              1.253              0.661
 Vibration    29          0.894              1.164              0.568
 Vibration    30          0.905              1.139              0.544
 Vibration    31          0.957              1.034              0.452
 Vibration    32          0.964              1.020              0.440
 Vibration    33          0.970              1.009              0.431

                           ! Non-Optimized Parameters !
 Normal termination of Gaussian 16 at Sat Feb 10 22:49:17 2024.
