 Q-Chem 5.4, Q-Chem, Inc., Pleasanton, CA (2021)
 Q-Chem 5.4.0 for Intel X86 EM64T Linux

User input:
--------------------------------------------------------------
$molecule
0 1
O                 -4.9304470000      0.9677020000      0.1875110000
C                 -3.7014840000      0.3869110000      0.1179480000
C                 -3.6597330000     -1.0106840000      0.0226490000
C                 -2.4381890000     -1.6575800000     -0.0513740000
C                 -1.2385300000     -0.9341840000     -0.0323890000
C                  0.0559870000     -1.6610290000     -0.1136820000
O                  0.0970790000     -2.8804020000     -0.1971700000
C                  1.2985360000     -0.8447720000     -0.0893020000
C                  2.5440510000     -1.4819380000     -0.1630240000
C                  3.7191430000     -0.7505310000     -0.1426390000
C                  3.6666350000      0.6466620000     -0.0470680000
O                  4.8535630000      1.3126410000     -0.0314750000
C                  2.4378820000      1.2975860000      0.0271990000
C                  1.2559180000      0.5564760000      0.0063510000
C                 -0.0433610000      1.2862180000      0.0877140000
O                 -0.0843960000      2.5035390000      0.1706850000
C                 -1.2904330000      0.4667220000      0.0634410000
C                 -2.5195130000      1.1228340000      0.1382360000
H                 -4.8415040000      1.9252640000      0.2494880000
H                 -4.5918650000     -1.5623120000      0.0085780000
H                 -2.3864880000     -2.7368020000     -0.1254900000
H                  2.5652470000     -2.5622390000     -0.2364340000
H                  4.6862150000     -1.2352410000     -0.1991440000
H                  4.7002880000      2.2616380000      0.0362660000
H                  2.3723610000      2.3781060000      0.1017550000
H                 -2.5269610000      2.2054140000      0.2113700000
$end
$rem
MAX_SCF_CYCLES=200
BASIS  =  6-311++G(d,p)
GUI  =  2
JOB_TYPE  =  SP
METHOD  =  B3LYP
SOLVENT_METHOD = COSMO
$end
$solvent
dielectric 37.219
opticaldielectric 1.43
$end

--------------------------------------------------------------

             Standard Nuclear Orientation (Angstroms)
    I     Atom           X                Y                Z
 ----------------------------------------------------------------
    1      O       4.8962580902    -1.1399504452     0.0000917011
    2      C       3.6872686169    -0.5147691120     0.0001692683
    3      C       3.6926543900     0.8866829275     0.0002312196
    4      C       2.4933063254     1.5778325439     0.0001270642
    5      C       1.2696343285     0.8955783769     0.0000046750
    6      C       0.0000305118     1.6693952730    -0.0001657996
    7      O       0.0000608027     2.8923136192    -0.0003371853
    8      C      -1.2696445989     0.8956233424    -0.0000986818
    9      C      -2.4932788031     1.5778567164     0.0000346196
   10      C      -3.6926560791     0.8866931397     0.0001623708
   11      C      -3.6872739763    -0.5147383490     0.0001330126
   12      O      -4.8962793467    -1.1399385245     0.0001780464
   13      C      -2.4808596249    -1.2101633834     0.0000312710
   14      C      -1.2742848901    -0.5095244132    -0.0000748798
   15      C      -0.0000237066    -1.2863948497    -0.0001472600
   16      O      -0.0000502290    -2.5072299870    -0.0003519973
   17      C       1.2742869565    -0.5095526790    -0.0000013562
   18      C       2.4808570801    -1.2101976871     0.0000662151
   19      H       4.7750475227    -2.0959759617    -0.0003550749
   20      H       4.6430915702     1.4063276815     0.0003014591
   21      H       2.4780094933     2.6607232619     0.0001308991
   22      H      -2.4780434036     2.6607493385     0.0000615996
   23      H      -4.6430751498     1.4063742107     0.0003258565
   24      H      -4.7750522400    -2.0959622440     0.0000726377
   25      H      -2.4517907116    -2.2948430906     0.0000374790
   26      H       2.4517992004    -2.2948815752    -0.0000498074
 ----------------------------------------------------------------

    9    -839.4536626826      4.80e-06  Convergence criterion met
 Total energy in the final basis set =     -839.4536626826
    5    -839.4790871667      3.42e-06  Convergence criterion met
 Total energy in the final basis set =     -839.4790871667

                    Orbital Energies (a.u.)
 --------------------------------------------------------------

 Alpha MOs
 -- Occupied --
-19.1736 -19.1736 -19.1356 -19.1258 -10.2873 -10.2793 -10.2636 -10.2636
-10.2119 -10.2119 -10.2022 -10.2022 -10.1988 -10.1988 -10.1972 -10.1972
-10.1949 -10.1948  -1.0859  -1.0859  -1.0703  -1.0609  -0.8936  -0.8807
 -0.8098  -0.7804  -0.7800  -0.7656  -0.6919  -0.6805  -0.6435  -0.6415
 -0.5902  -0.5813  -0.5807  -0.5436  -0.5244  -0.5121  -0.4938  -0.4751
 -0.4635  -0.4596  -0.4554  -0.4554  -0.4512  -0.4362  -0.4342  -0.4250
 -0.4199  -0.4099  -0.4001  -0.3994  -0.3725  -0.3685  -0.3640  -0.3479
 -0.2905  -0.2848  -0.2825  -0.2764  -0.2612  -0.2491

          Ground-State Mulliken Net Atomic Charges

     Atom                 Charge (a.u.)
  ----------------------------------------
      1 O                    -0.274246
      2 C                    -0.596054
      3 C                    -0.204021
      4 C                     0.190998
      5 C                     0.100335
      6 C                    -0.556708
      7 O                    -0.320895
      8 C                     0.100454
      9 C                     0.190694
     10 C                    -0.203806
     11 C                    -0.596038
     12 O                    -0.274259
     13 C                     0.280833
     14 C                     0.451790
     15 C                    -0.677719
     16 O                    -0.291441
     17 C                     0.451568
     18 C                     0.281197
     19 H                     0.331612
     20 H                     0.249171
     21 H                     0.206299
     22 H                     0.206310
     23 H                     0.249171
     24 H                     0.331604
     25 H                     0.186592
     26 H                     0.186559
  ----------------------------------------
  Sum of atomic charges =     0.000000

                    Cartesian Multipole Moments
 -----------------------------------------------------------------
    Charge (ESU x 10^10)
                 0.0000
    Dipole Moment (Debye)
         X       0.0010      Y      -3.7313      Z      -0.0001
       Tot       3.7313
    Quadrupole Moments (Debye-Ang)
        XX     -86.6889     XY      -0.0007     YY    -104.8326
        XZ      -0.0038     YZ       0.0030     ZZ    -105.1878

 Total job time:  73.65s(wall), 540.60s(cpu)
        *  Thank you very much for using Q-Chem.  Have a nice day.  *
