 Q-Chem 5.4, Q-Chem, Inc., Pleasanton, CA (2021)
 Q-Chem 5.4.0 for Intel X86 EM64T Linux

User input:
--------------------------------------------------------------
$molecule
-2 1
O                  5.0749340000     -0.2739330000     -0.4306260000
C                  3.7328030000      0.1079810000     -0.2537830000
C                  3.4832510000      1.4745540000      0.0207910000
C                  2.1761600000      1.8845290000      0.2022550000
C                  1.0770560000      0.9967920000      0.1291410000
C                 -0.2677590000      1.5124390000      0.3275050000
O                 -0.5000760000      2.7485850000      0.5688280000
C                 -1.3157210000      0.5183380000      0.2271560000
C                 -2.6681220000      0.9153690000      0.4182040000
C                 -3.7008370000      0.0185570000      0.3112290000
O                 -5.0193880000      0.4569320000      0.4751080000
C                 -3.4377010000     -1.3501980000      0.0387620000
C                 -2.1313030000     -1.7677130000     -0.1172160000
C                 -1.0361350000     -0.8740180000     -0.0519190000
C                  0.3056200000     -1.3868330000     -0.2571890000
O                  0.5521640000     -2.6229720000     -0.5067060000
C                  1.3488090000     -0.3950380000     -0.1519810000
C                  2.7023770000     -0.7923190000     -0.3371100000
H                  5.0627080000     -1.2213630000     -0.5995030000
H                  4.3156100000      2.1695070000      0.0827550000
H                  1.9432740000      2.9237190000      0.4128710000
H                 -2.8590180000      1.9575770000      0.6481100000
H                 -5.5500820000     -0.2944200000      0.7807580000
H                 -4.2651760000     -2.0513410000     -0.0561170000
H                 -1.8984410000     -2.8078480000     -0.3217530000
H                  2.8749940000     -1.8468800000     -0.5468160000
$end

$rem
BASIS  =  6-311++G(d,p)
GUI  =  2
JOB_TYPE  =  SP
METHOD  =  B3LYP
SCF_CONVERGENCE  = 8
SOLVENT_METHOD = sm12
$end

$smx
solvent dimethylformamide
charges CM5
$end

--------------------------------------------------------------

             Standard Nuclear Orientation (Angstroms)
    I     Atom           X                Y                Z
 ----------------------------------------------------------------
    1      O       5.0749340000    -0.2739330000    -0.4306260000
    2      C       3.7328030000     0.1079810000    -0.2537830000
    3      C       3.4832510000     1.4745540000     0.0207910000
    4      C       2.1761600000     1.8845290000     0.2022550000
    5      C       1.0770560000     0.9967920000     0.1291410000
    6      C      -0.2677590000     1.5124390000     0.3275050000
    7      O      -0.5000760000     2.7485850000     0.5688280000
    8      C      -1.3157210000     0.5183380000     0.2271560000
    9      C      -2.6681220000     0.9153690000     0.4182040000
   10      C      -3.7008370000     0.0185570000     0.3112290000
   11      O      -5.0193880000     0.4569320000     0.4751080000
   12      C      -3.4377010000    -1.3501980000     0.0387620000
   13      C      -2.1313030000    -1.7677130000    -0.1172160000
   14      C      -1.0361350000    -0.8740180000    -0.0519190000
   15      C       0.3056200000    -1.3868330000    -0.2571890000
   16      O       0.5521640000    -2.6229720000    -0.5067060000
   17      C       1.3488090000    -0.3950380000    -0.1519810000
   18      C       2.7023770000    -0.7923190000    -0.3371100000
   19      H       5.0627080000    -1.2213630000    -0.5995030000
   20      H       4.3156100000     2.1695070000     0.0827550000
   21      H       1.9432740000     2.9237190000     0.4128710000
   22      H      -2.8590180000     1.9575770000     0.6481100000
   23      H      -5.5500820000    -0.2944200000     0.7807580000
   24      H      -4.2651760000    -2.0513410000    -0.0561170000
   25      H      -1.8984410000    -2.8078480000    -0.3217530000
   26      H       2.8749940000    -1.8468800000    -0.5468160000
 ----------------------------------------------------------------

   18    -839.4087909289      3.92e-09  Convergence criterion met
 Total energy in the final basis set =     -839.6983793978

                    Orbital Energies (a.u.)
 --------------------------------------------------------------

 Alpha MOs
 -- Occupied --
-19.1514 -19.1504 -19.0253 -19.0250 -10.2241 -10.2215 -10.1834 -10.1819
-10.1724 -10.1701 -10.1701 -10.1694 -10.1598 -10.1570 -10.1497 -10.1496
-10.1493 -10.1490  -1.0514  -1.0500  -0.9451  -0.9416  -0.8405  -0.8365
 -0.7642  -0.7413  -0.7395  -0.7184  -0.6493  -0.6362  -0.6091  -0.5892
 -0.5584  -0.5421  -0.5259  -0.5096  -0.4778  -0.4586  -0.4541  -0.4297
 -0.4250  -0.4206  -0.4141  -0.4054  -0.3959  -0.3921  -0.3779  -0.3756
 -0.3637  -0.3615  -0.3412  -0.3387  -0.3329  -0.3220  -0.3143  -0.2931
 -0.2463  -0.2387  -0.2232  -0.2149  -0.2056  -0.1992  -0.1107

          Ground-State Mulliken Net Atomic Charges

     Atom                 Charge (a.u.)
  ----------------------------------------
      1 O                    -0.066200
      2 C                     2.685039
      3 C                     1.679558
      4 C                    -0.123857
      5 C                    -1.745316
      6 C                    -3.270182
      7 O                    -0.341572
      8 C                    -1.905364
      9 C                    -0.470371
     10 C                     2.517214
     11 O                    -0.050013
     12 C                     2.652343
     13 C                    -0.115336
     14 C                    -1.477265
     15 C                    -2.959910
     16 O                    -0.322795
     17 C                    -1.342768
     18 C                     0.650562
     19 H                     0.403406
     20 H                     0.367224
     21 H                     0.102363
     22 H                     0.086470
     23 H                     0.390961
     24 H                     0.433986
     25 H                     0.109530
     26 H                     0.112291
  ----------------------------------------
  Sum of atomic charges =    -2.000000

                    Cartesian Multipole Moments
 -----------------------------------------------------------------
    Charge (ESU x 10^10)
                -9.6064
    Dipole Moment (Debye)
         X      -0.9820      Y      -3.2200      Z      -0.1516
       Tot       3.3698
    Quadrupole Moments (Debye-Ang)
        XX    -151.3788     XY       6.3793     YY    -160.1202
        XZ       0.1220     YZ      -8.5430     ZZ    -118.7566

 Total job time:  602.54s(wall), 4714.97s(cpu)
        *  Thank you very much for using Q-Chem.  Have a nice day.  *
