 Gaussian 16, Revision A.03,
 Gaussian 16:  ES64L-G16RevA.03 25-Dec-2016

 ----------------------------------------------------------------------
 #P UB3LYP/6-311++G(d,p) nosym opt freq SCRF=(PCM,Solvent=n,n-DiMethylF
 ormamide)
 ----------------------------------------------------------------------

 --------
 Oxidized
 --------
 Symbolic Z-matrix:
 Charge =  0 Multiplicity = 1

 SCF Done:  E(UB3LYP) =  -693.563967610     A.U. after   14 cycles
 SCF Done:  E(UB3LYP) =  -693.564067384     A.U. after   10 cycles
 SCF Done:  E(UB3LYP) =  -693.564078667     A.U. after    9 cycles
 SCF Done:  E(UB3LYP) =  -693.564079474     A.U. after    8 cycles
 Optimization completed.
    -- Stationary point found.
 Normal termination of Gaussian 16 at Sun Feb 11 15:25:27 2024.

 ----------------------------------------------------------------------
 #P Geom=AllCheck Guess=TCheck SCRF=Check GenChk UB3LYP/6-311++G(d,p) F
 req
 ----------------------------------------------------------------------

 Structure from the checkpoint file:  "341.chk"
 --------
 Oxidized
 --------
 Charge =  0 Multiplicity = 1

                          Input orientation:
 ---------------------------------------------------------------------
 Center     Atomic      Atomic             Coordinates (Angstroms)
 Number     Number       Type             X           Y           Z
 ---------------------------------------------------------------------
      1          6           0       -0.335882   -2.048350    0.922852
      2          6           0       -0.230097   -0.944473   -0.167883
      3          6           0       -0.542513   -1.560070   -1.561712
      4          6           0       -1.270921    0.136011    0.131258
      5          6           0       -2.630692   -0.212885    0.174051
      6          6           0       -3.615204    0.729304    0.442587
      7          6           0       -3.269631    2.063880    0.679402
      8          6           0       -1.935812    2.429317    0.641799
      9          6           0       -0.934316    1.479236    0.370286
     10          6           0        0.473124    1.942282    0.346038
     11          8           0        0.759970    3.120477    0.555071
     12          6           0        1.522630    0.936083    0.059624
     13          6           0        2.861143    1.368773    0.034837
     14          6           0        3.889499    0.481178   -0.227217
     15          6           0        3.582409   -0.861819   -0.469366
     16          6           0        2.262841   -1.294567   -0.445866
     17          6           0        1.203595   -0.410958   -0.181845
     18          1           0        0.370352   -2.856812    0.727259
     19          1           0       -1.337823   -2.480025    0.943283
     20          1           0       -0.119885   -1.636070    1.911359
     21          1           0       -1.548367   -1.982387   -1.583444
     22          1           0       -0.472673   -0.800125   -2.343616
     23          1           0        0.159284   -2.361201   -1.798950
     24          1           0       -2.932056   -1.237343   -0.004924
     25          1           0       -4.655255    0.423886    0.467713
     26          1           0       -4.036315    2.800412    0.889262
     27          1           0       -1.634147    3.453656    0.820679
     28          1           0        3.064283    2.414828    0.226480
     29          1           0        4.918439    0.820737   -0.244873
     30          1           0        4.374707   -1.572343   -0.676787
     31          1           0        2.059314   -2.340631   -0.637356
 ---------------------------------------------------------------------

 SCF Done:  E(UB3LYP) =  -693.564079474     A.U. after    1 cycles

 Alpha  occ. eigenvalues --  -19.11538 -10.26924 -10.21372 -10.20472 -10.20471
 Alpha  occ. eigenvalues --  -10.19412 -10.19410 -10.19105 -10.19103 -10.18769
 Alpha  occ. eigenvalues --  -10.18767 -10.18589 -10.18588 -10.18524 -10.18522
 Alpha  occ. eigenvalues --  -10.16996 -10.16993  -1.04815  -0.89346  -0.87130
 Alpha  occ. eigenvalues --   -0.82781  -0.78766  -0.76651  -0.75935  -0.74123
 Alpha  occ. eigenvalues --   -0.69786  -0.66453  -0.64790  -0.63099  -0.60821
 Alpha  occ. eigenvalues --   -0.57738  -0.55168  -0.54586  -0.50089  -0.47846
 Alpha  occ. eigenvalues --   -0.47582  -0.47417  -0.45398  -0.44953  -0.44743
 Alpha  occ. eigenvalues --   -0.43692  -0.43045  -0.42877  -0.41596  -0.40914
 Alpha  occ. eigenvalues --   -0.39756  -0.38572  -0.37849  -0.37560  -0.36947
 Alpha  occ. eigenvalues --   -0.36532  -0.35211  -0.34229  -0.33092  -0.27352
 Alpha  occ. eigenvalues --   -0.26918  -0.26898  -0.26653  -0.26154
 Alpha virt. eigenvalues --   -0.08719  -0.03007  -0.02932  -0.01963  -0.00883
 Alpha virt. eigenvalues --    0.00196   0.00672   0.01636   0.01692   0.01979
 Alpha virt. eigenvalues --    0.02814   0.03966   0.03994   0.04125   0.04543

  Beta  occ. eigenvalues --  -19.11538 -10.26924 -10.21372 -10.20472 -10.20471
  Beta  occ. eigenvalues --  -10.19412 -10.19410 -10.19105 -10.19103 -10.18769
  Beta  occ. eigenvalues --  -10.18767 -10.18589 -10.18588 -10.18524 -10.18522
  Beta  occ. eigenvalues --  -10.16996 -10.16993  -1.04815  -0.89346  -0.87130
  Beta  occ. eigenvalues --   -0.82781  -0.78766  -0.76651  -0.75935  -0.74123
  Beta  occ. eigenvalues --   -0.69786  -0.66453  -0.64790  -0.63099  -0.60821
  Beta  occ. eigenvalues --   -0.57738  -0.55168  -0.54586  -0.50089  -0.47846
  Beta  occ. eigenvalues --   -0.47582  -0.47417  -0.45398  -0.44953  -0.44743
  Beta  occ. eigenvalues --   -0.43692  -0.43045  -0.42877  -0.41596  -0.40914
  Beta  occ. eigenvalues --   -0.39756  -0.38572  -0.37849  -0.37560  -0.36947
  Beta  occ. eigenvalues --   -0.36532  -0.35211  -0.34229  -0.33092  -0.27352
  Beta  occ. eigenvalues --   -0.26918  -0.26898  -0.26653  -0.26154
  Beta virt. eigenvalues --   -0.08719  -0.03007  -0.02932  -0.01963  -0.00883
  Beta virt. eigenvalues --    0.00196   0.00672   0.01636   0.01692   0.01979
  Beta virt. eigenvalues --    0.02814   0.03966   0.03994   0.04125   0.04543

 Mulliken charges and spin densities:
               1          2
     1  C   -0.794458   0.000000
     2  C    0.252853   0.000000
     3  C   -0.794198  -0.000000
     4  C    0.282808  -0.000000
     5  C   -0.096422   0.000000
     6  C   -0.430851  -0.000000
     7  C   -0.409846  -0.000000
     8  C    0.172660  -0.000000
     9  C    0.315458   0.000000
    10  C   -0.493496   0.000000
    11  O   -0.332423  -0.000000
    12  C    0.315147   0.000000
    13  C    0.172550  -0.000000
    14  C   -0.409714  -0.000000
    15  C   -0.430687  -0.000000
    16  C   -0.096576   0.000000
    17  C    0.282231   0.000000
    18  H    0.157593   0.000000
    19  H    0.157492  -0.000000
    20  H    0.178490   0.000000
    21  H    0.157410   0.000000
    22  H    0.178780  -0.000000
    23  H    0.157228   0.000000
    24  H    0.155702  -0.000000
    25  H    0.202585   0.000000
    26  H    0.192073  -0.000000
    27  H    0.203629   0.000000
    28  H    0.203718   0.000000
    29  H    0.192073   0.000000
    30  H    0.202635  -0.000000
    31  H    0.155554  -0.000000
 Sum of Mulliken charges =  -0.00000   0.00000

 Dipole moment (field-independent basis, Debye):
    X=             -1.3641    Y=             -5.5967    Z=             -0.9942  Tot=              5.8457
 Quadrupole moment (field-independent basis, Debye-Ang):
   XX=            -82.4448   YY=           -107.1740   ZZ=           -104.4347
   XY=             -5.8289   XZ=             -2.9957   YZ=              0.0050

  Exact polarizability: 340.657  -8.559 289.866 -17.345  28.175 158.725
 Approx polarizability: 367.430   0.938 352.951 -15.969  35.785 180.821

                      1                      2                      3
                      A                      A                      A
 Frequencies --     38.1708                95.6886                97.0227
 Red. masses --      5.2021                 3.6963                 3.6513
 Frc consts  --      0.0045                 0.0199                 0.0203
 IR Inten    --      2.8049                 3.7863                 0.0100

                      4                      5                      6
                      A                      A                      A
 Frequencies --    147.7944               185.9051               224.0171
 Red. masses --      5.3760                 1.9235                 3.9182
 Frc consts  --      0.0692                 0.0392                 0.1158
 IR Inten    --      0.1622                 0.0005                 0.7559

                      7                      8                      9
                      A                      A                      A
 Frequencies --    249.3052               264.5690               302.6811
 Red. masses --      1.5010                 1.0547                 3.1613
 Frc consts  --      0.0550                 0.0435                 0.1706
 IR Inten    --      0.0127                 0.2469                 3.7867

                     10                     11                     12
                      A                      A                      A
 Frequencies --    309.2639               338.1522               356.7603
 Red. masses --      3.1702                 2.6536                 3.8929
 Frc consts  --      0.1786                 0.1788                 0.2919
 IR Inten    --      2.9770                 0.0058                 0.2709

                     13                     14                     15
                      A                      A                      A
 Frequencies --    358.7136               364.7529               415.8671
 Red. masses --      5.2852                 5.9357                 3.6670
 Frc consts  --      0.4007                 0.4653                 0.3737
 IR Inten    --     24.7298                 2.9815                 0.3659

                     16                     17                     18
                      A                      A                      A
 Frequencies --    427.9580               462.3771               506.4183
 Red. masses --      8.0087                 3.3897                 4.5353
 Frc consts  --      0.8642                 0.4270                 0.6853
 IR Inten    --      0.4663                 0.0007                 0.9758

                     19                     20                     21
                      A                      A                      A
 Frequencies --    543.1302               575.4899               608.3150
 Red. masses --      3.2944                 3.1738                 5.7173
 Frc consts  --      0.5726                 0.6193                 1.2465
 IR Inten    --      0.0005                27.5627                 0.1167

                     22                     23                     24
                      A                      A                      A
 Frequencies --    624.4683               658.4173               683.0240
 Red. masses --      4.8669                 5.5517                 5.9534
 Frc consts  --      1.1182                 1.4180                 1.6364
 IR Inten    --      0.7766                33.7842                 0.0573

                     25                     26                     27
                      A                      A                      A
 Frequencies --    702.5693               762.0987               777.0977
 Red. masses --      2.8848                 3.7678                 5.7093
 Frc consts  --      0.8390                 1.2893                 2.0313
 IR Inten    --     96.9144                 0.0006                 0.2071

                     28                     29                     30
                      A                      A                      A
 Frequencies --    777.6336               778.5487               826.8728
 Red. masses --      1.7978                 1.2779                 2.7831
 Frc consts  --      0.6405                 0.4564                 1.1211
 IR Inten    --    106.1594                 0.0810                 0.1834

                     31                     32                     33
                      A                      A                      A
 Frequencies --    833.0805               900.7376               903.9013
 Red. masses --      2.7792                 1.4032                 1.5792
 Frc consts  --      1.1364                 0.6707                 0.7602
 IR Inten    --     12.8132                 0.0002                 0.0835

                     34                     35                     36
                      A                      A                      A
 Frequencies --    918.2118               938.1719               942.6746
 Red. masses --      2.7574                 1.5881                 6.8036
 Frc consts  --      1.3698                 0.8235                 3.5621
 IR Inten    --      2.7648                 0.5512                88.4481

                     37                     38                     39
                      A                      A                      A
 Frequencies --    992.0707               993.6367              1013.8641
 Red. masses --      1.3652                 1.3893                 1.3194
 Frc consts  --      0.7917                 0.8082                 0.7990
 IR Inten    --      0.0133                 4.0767                 0.0008

                     40                     41                     42
                      A                      A                      A
 Frequencies --   1014.9867              1037.9576              1053.6079
 Red. masses --      1.3158                 1.2748                 2.4964
 Frc consts  --      0.7986                 0.8092                 1.6328
 IR Inten    --      0.0071                 0.0021                25.3267

                     43                     44                     45
                      A                      A                      A
 Frequencies --   1059.9270              1104.7806              1105.3356
 Red. masses --      2.5247                 1.8911                 2.5638
 Frc consts  --      1.6712                 1.3599                 1.8456
 IR Inten    --      2.4514                 1.1605                17.4796

                     46                     47                     48
                      A                      A                      A
 Frequencies --   1115.2390              1129.6599              1149.4321
 Red. masses --      2.0149                 3.3767                 1.7232
 Frc consts  --      1.4765                 2.5389                 1.3414
 IR Inten    --     17.5399                 2.1213                11.4839

                     49                     50                     51
                      A                      A                      A
 Frequencies --   1181.7122              1186.7923              1193.1623
 Red. masses --      1.1167                 1.1763                 2.2770
 Frc consts  --      0.9188                 0.9761                 1.9099
 IR Inten    --     11.7627                 2.7947                31.0598

                     52                     53                     54
                      A                      A                      A
 Frequencies --   1220.5826              1239.3516              1294.2204
 Red. masses --      2.9951                 1.5828                 1.6477
 Frc consts  --      2.6290                 1.4324                 1.6261
 IR Inten    --      0.2725                 2.7978                 3.6712

                     55                     56                     57
                      A                      A                      A
 Frequencies --   1302.7988              1334.7806              1338.4265
 Red. masses --      3.7993                 4.6772                 3.0632
 Frc consts  --      3.7994                 4.9097                 3.2331
 IR Inten    --    338.5271               159.2991                97.2886

                     58                     59                     60
                      A                      A                      A
 Frequencies --   1350.2159              1398.5149              1421.6684
 Red. masses --      7.6395                 1.1818                 1.1991
 Frc consts  --      8.2058                 1.3618                 1.4279
 IR Inten    --     28.4392                 7.1879                 1.7366

                     61                     62                     63
                      A                      A                      A
 Frequencies --   1472.2425              1475.4548              1477.7534
 Red. masses --      2.2096                 2.0242                 1.0478
 Frc consts  --      2.8218                 2.5963                 1.3481
 IR Inten    --      0.0085                70.0076                 0.3874

                     64                     65                     66
                      A                      A                      A
 Frequencies --   1487.0698              1493.5285              1497.9072
 Red. masses --      1.0512                 1.5235                 1.0595
 Frc consts  --      1.3696                 2.0023                 1.4007
 IR Inten    --      5.0052                10.8335                22.3357

                     67                     68                     69
                      A                      A                      A
 Frequencies --   1511.8933              1513.8440              1598.4071
 Red. masses --      1.6456                 2.3701                 6.1167
 Frc consts  --      2.2162                 3.2002                 9.2074
 IR Inten    --     30.4750                 7.5816                 5.4344

                     70                     71                     72
                      A                      A                      A
 Frequencies --   1614.0377              1629.1494              1636.4263
 Red. masses --      7.2669                 6.0596                 5.5344
 Frc consts  --     11.1540                 9.4757                 8.7321
 IR Inten    --     11.0300               231.2149               126.6760

                     73                     74                     75
                      A                      A                      A
 Frequencies --   1675.2033              3037.6092              3040.6597
 Red. masses --     10.3101                 1.0343                 1.0352
 Frc consts  --     17.0470                 5.6228                 5.6390
 IR Inten    --    512.8916                46.0124                28.5785

                     76                     77                     78
                      A                      A                      A
 Frequencies --   3107.4244              3108.4509              3112.2327
 Red. masses --      1.1025                 1.1021                 1.1026
 Frc consts  --      6.2721                 6.2745                 6.2921
 IR Inten    --     19.7871                51.1483                 1.1686

                     79                     80                     81
                      A                      A                      A
 Frequencies --   3115.3139              3170.7180              3170.7620
 Red. masses --      1.1019                 1.0866                 1.0866
 Frc consts  --      6.3009                 6.4362                 6.4366
 IR Inten    --     85.8636                 1.7944                 2.0551

                     82                     83                     84
                      A                      A                      A
 Frequencies --   3183.6425              3183.8113              3193.1237
 Red. masses --      1.0900                 1.0900                 1.0934
 Frc consts  --      6.5091                 6.5099                 6.5682
 IR Inten    --     19.4110                12.6622                13.7348

                     85                     86                     87
                      A                      A                      A
 Frequencies --   3193.6246              3201.0226              3201.5390
 Red. masses --      1.0933                 1.0948                 1.0950
 Frc consts  --      6.5698                 6.6092                 6.6127
 IR Inten    --     34.7698                36.6288                 1.2164

 - Thermochemistry -
 -------------------
 Temperature   298.150 Kelvin.  Pressure   1.00000 Atm.
 Atom     1 has atomic number  6 and mass  12.00000

 Molecular mass:   222.10447 amu.
 Principal axes and moments of inertia in atomic units:
                           1         2         3
     Eigenvalues --  2077.934534307.910505993.10231
           X            0.96904   0.23325   0.08096
           Y           -0.21424   0.95735  -0.19386
           Z           -0.12273   0.17051   0.97768
 This molecule is an asymmetric top.
 Rotational symmetry number  1.
 Warning -- assumption of classical behavior for rotation
           may cause significant error
 Rotational temperatures (Kelvin)      0.04168     0.02011     0.01445
 Rotational constants (GHZ):           0.86853     0.41894     0.30114
 Zero-point vibrational energy     665335.7 (Joules/Mol)
                                  159.01904 (Kcal/Mol)
 Warning -- explicit consideration of  21 degrees of freedom as
           vibrations may cause significant error
 Vibrational temperatures:     54.92   137.67   139.59   212.64   267.48
          (Kelvin)            322.31   358.69   380.66   435.49   444.96
                              486.53   513.30   516.11   524.80   598.34
                              615.74   665.26   728.62   781.44   828.00
                              875.23   898.47   947.32   982.72  1010.84
                             1096.49  1118.07  1118.84  1120.16  1189.69
                             1198.62  1295.96  1300.51  1321.10  1349.82
                             1356.30  1427.37  1429.62  1458.72  1460.34
                             1493.39  1515.91  1525.00  1589.53  1590.33
                             1604.58  1625.33  1653.78  1700.22  1707.53
                             1716.69  1756.15  1783.15  1862.09  1874.44
                             1920.45  1925.70  1942.66  2012.15  2045.46
                             2118.23  2122.85  2126.16  2139.56  2148.85
                             2155.15  2175.28  2178.08  2299.75  2322.24
                             2343.98  2354.45  2410.24  4370.44  4374.83
                             4470.89  4472.37  4477.81  4482.24  4561.96
                             4562.02  4580.55  4580.79  4594.19  4594.91
                             4605.56  4606.30

 Zero-point correction=                           0.253413 (Hartree/Particle)
 Thermal correction to Energy=                    0.266921
 Thermal correction to Enthalpy=                  0.267865
 Thermal correction to Gibbs Free Energy=         0.213776
 Sum of electronic and zero-point Energies=           -693.310667
 Sum of electronic and thermal Energies=              -693.297159
 Sum of electronic and thermal Enthalpies=            -693.296215
 Sum of electronic and thermal Free Energies=         -693.350304

                     E (Thermal)             CV                S
                      KCal/Mol        Cal/Mol-Kelvin    Cal/Mol-Kelvin
 Total                  167.495             55.641            113.840
 Electronic               0.000              0.000              0.000
 Translational            0.889              2.981             42.097
 Rotational               0.889              2.981             32.351
 Vibrational            165.718             49.679             39.393
 Vibration     1          0.594              1.982              5.352
 Vibration     2          0.603              1.952              3.540
 Vibration     3          0.603              1.951              3.513
 Vibration     4          0.617              1.905              2.700
 Vibration     5          0.632              1.859              2.268
 Vibration     6          0.649              1.804              1.926
 Vibration     7          0.662              1.764              1.735
 Vibration     8          0.671              1.738              1.631
 Vibration     9          0.694              1.669              1.402
 Vibration    10          0.699              1.656              1.366
 Vibration    11          0.718              1.599              1.221
 Vibration    12          0.732              1.561              1.136
 Vibration    13          0.734              1.557              1.128
 Vibration    14          0.738              1.545              1.102
 Vibration    15          0.779              1.436              0.906
 Vibration    16          0.789              1.409              0.865
 Vibration    17          0.820              1.334              0.759
 Vibration    18          0.862              1.236              0.642
 Vibration    19          0.898              1.155              0.559
 Vibration    20          0.932              1.084              0.494
 Vibration    21          0.967              1.014              0.436

 Optimization completed.
    -- Stationary point found.
 Normal termination of Gaussian 16 at Sun Feb 11 16:57:56 2024.
