 Gaussian 16, Revision A.03,
 Gaussian 16:  ES64L-G16RevA.03 25-Dec-2016

 ----------------------------------------------------------------------
 #P UB3LYP/6-311++G(d,p) nosym opt freq SCRF=(PCM,Solvent=n,n-DiMethylF
 ormamide)
 ----------------------------------------------------------------------

 -------
 Radical
 -------
 Symbolic Z-matrix:
 Charge = -1 Multiplicity = 2

 SCF Done:  E(UB3LYP) =  -765.528679892     A.U. after   19 cycles
 SCF Done:  E(UB3LYP) =  -765.528596845     A.U. after   19 cycles
 SCF Done:  E(UB3LYP) =  -765.529360844     A.U. after   16 cycles
 SCF Done:  E(UB3LYP) =  -765.529046720     A.U. after   16 cycles
 SCF Done:  E(UB3LYP) =  -765.529476961     A.U. after   16 cycles
 SCF Done:  E(UB3LYP) =  -765.529500283     A.U. after   15 cycles
 SCF Done:  E(UB3LYP) =  -765.529516360     A.U. after   14 cycles
 SCF Done:  E(UB3LYP) =  -765.529518168     A.U. after   13 cycles
 SCF Done:  E(UB3LYP) =  -765.529518739     A.U. after   12 cycles
 Optimization completed.
    -- Stationary point found.
 Normal termination of Gaussian 16 at Sat Feb 10 12:07:59 2024.

 ----------------------------------------------------------------------
 #P Geom=AllCheck Guess=TCheck SCRF=Check GenChk UB3LYP/6-311++G(d,p) F
 req
 ----------------------------------------------------------------------

 Structure from the checkpoint file:  "080-rad.chk"
 -------
 Radical
 -------
 Charge = -1 Multiplicity = 2

                          Input orientation:
 ---------------------------------------------------------------------
 Center     Atomic      Atomic             Coordinates (Angstroms)
 Number     Number       Type             X           Y           Z
 ---------------------------------------------------------------------
      1          6           0        1.396155    1.248603   -2.584426
      2          6           0       -0.004859    1.553348   -2.806427
      3          6           0       -1.035514    0.957060   -2.135235
      4          6           0       -0.748645   -0.055856   -1.119444
      5          6           0        0.635098   -0.373651   -0.899557
      6          8           0        2.304983    1.898258   -3.174673
      7          8           0       -1.676966   -0.627852   -0.468446
      8          1           0       -0.208574    2.323069   -3.546012
      9          6           0        1.672363    0.203500   -1.606682
     10          6           0        3.062214   -0.226203   -1.288967
     11          6           0        4.034085   -0.510964   -2.392910
     12          6           0        5.407846   -0.432434   -2.126882
     13          6           0        3.607084   -0.936768   -3.657066
     14          6           0        6.337273   -0.753766   -3.111642
     15          6           0        5.902948   -1.184105   -4.367128
     16          6           0        4.536712   -1.281830   -4.634972
     17          8           0        3.407354   -0.413388   -0.121756
     18          1           0        5.735419   -0.110558   -1.145706
     19          1           0        2.547578   -1.010007   -3.870225
     20          1           0        7.397935   -0.674014   -2.901603
     21          1           0        6.626031   -1.443222   -5.132422
     22          1           0        4.196735   -1.623861   -5.605920
     23          6           0       -2.471295    1.316220   -2.398676
     24          1           0        0.852166   -1.129062   -0.151201
     25          1           0       -2.549876    2.077596   -3.176859
     26          1           0       -2.954633    1.692879   -1.491883
     27          1           0       -3.043972    0.437280   -2.710791
 ---------------------------------------------------------------------

 SCF Done:  E(UB3LYP) =  -765.529518739     A.U. after    1 cycles

 Alpha  occ. eigenvalues --  -19.11321 -19.08232 -19.08196 -10.26449 -10.23036
 Alpha  occ. eigenvalues --  -10.22266 -10.18873 -10.18470 -10.18458 -10.18313
 Alpha  occ. eigenvalues --  -10.18159 -10.18139 -10.18055 -10.17560 -10.17220
 Alpha  occ. eigenvalues --  -10.16435 -10.16093  -1.04331  -1.00418  -1.00003
 Alpha  occ. eigenvalues --   -0.86707  -0.83349  -0.78350  -0.76407  -0.75600
 Alpha  occ. eigenvalues --   -0.70336  -0.68947  -0.63778  -0.61487  -0.59766
 Alpha  occ. eigenvalues --   -0.58317  -0.54851  -0.51131  -0.48995  -0.47979
 Alpha  occ. eigenvalues --   -0.46352  -0.45413  -0.44472  -0.43908  -0.43163
 Alpha  occ. eigenvalues --   -0.42605  -0.42286  -0.40789  -0.40619  -0.39263
 Alpha  occ. eigenvalues --   -0.38788  -0.37392  -0.37229  -0.36771  -0.36302
 Alpha  occ. eigenvalues --   -0.35856  -0.35068  -0.28773  -0.27448  -0.26615
 Alpha  occ. eigenvalues --   -0.26231  -0.25424  -0.24635  -0.23799  -0.16943
 Alpha virt. eigenvalues --   -0.06897  -0.02134  -0.01837  -0.00358   0.00329
 Alpha virt. eigenvalues --    0.01173   0.01418   0.01859   0.02062   0.03290
 Alpha virt. eigenvalues --    0.03803   0.03902   0.04329   0.04736   0.05056

  Beta  occ. eigenvalues --  -19.11269 -19.07564 -19.07481 -10.26444 -10.22940
  Beta  occ. eigenvalues --  -10.22136 -10.18873 -10.18469 -10.18454 -10.18311
  Beta  occ. eigenvalues --  -10.18160 -10.18139 -10.18000 -10.17444 -10.17010
  Beta  occ. eigenvalues --  -10.16354 -10.16098  -1.04231  -0.99319  -0.98687
  Beta  occ. eigenvalues --   -0.86697  -0.82767  -0.78156  -0.76317  -0.75589
  Beta  occ. eigenvalues --   -0.70011  -0.68175  -0.63585  -0.61460  -0.59442
  Beta  occ. eigenvalues --   -0.58057  -0.54721  -0.50952  -0.48810  -0.47770
  Beta  occ. eigenvalues --   -0.46272  -0.45191  -0.44270  -0.43698  -0.43080
  Beta  occ. eigenvalues --   -0.42147  -0.41983  -0.40470  -0.40115  -0.38688
  Beta  occ. eigenvalues --   -0.38051  -0.37032  -0.36617  -0.36202  -0.35639
  Beta  occ. eigenvalues --   -0.35082  -0.34462  -0.27576  -0.26656  -0.26175
  Beta  occ. eigenvalues --   -0.24970  -0.24780  -0.23994  -0.23256
  Beta virt. eigenvalues --   -0.09894  -0.06368  -0.02045  -0.00979  -0.00310
  Beta virt. eigenvalues --    0.00342   0.01402   0.01710   0.02057   0.02385
  Beta virt. eigenvalues --    0.03499   0.03895   0.04049   0.04632   0.05050

 Mulliken charges and spin densities:
               1          2
     1  C   -1.163274   0.055428
     2  C   -0.424183   0.059527
     3  C    0.900627   0.046006
     4  C   -0.844249   0.100917
     5  C    0.425324   0.125368
     6  O   -0.434470   0.227679
     7  O   -0.475637   0.270479
     8  H    0.178402  -0.006089
     9  C    1.471059   0.074476
    10  C   -1.315812   0.026523
    11  C    1.366894   0.001813
    12  C    0.479467  -0.007800
    13  C   -0.974867   0.008662
    14  C   -0.469214   0.001647
    15  C   -0.303104   0.002264
    16  C   -0.399934  -0.003680
    17  O   -0.291209   0.016157
    18  H    0.211768  -0.000496
    19  H    0.177563   0.002409
    20  H    0.198257   0.000106
    21  H    0.182710  -0.000063
    22  H    0.205105  -0.000094
    23  C   -0.414000   0.006976
    24  H    0.220948  -0.012035
    25  H    0.148678  -0.000375
    26  H    0.171142   0.001902
    27  H    0.172006   0.002295
 Sum of Mulliken charges =  -1.00000   1.00000

 Dipole moment (field-independent basis, Debye):
    X=             -4.2548    Y=             -2.0280    Z=              4.3207  Tot=              6.3941
 Quadrupole moment (field-independent basis, Debye-Ang):
   XX=           -121.0945   YY=           -112.6117   ZZ=           -111.6672
   XY=            -14.7771   XZ=              7.7029   YZ=             16.2617

  Exact polarizability: 384.718   0.618 195.212 -46.607 -30.645 261.755
 Approx polarizability: 396.679  22.001 220.929 -47.424 -36.228 310.213

                      1                      2                      3
                      A                      A                      A
 Frequencies --     32.2912                51.9888                56.3241
 Red. masses --      7.2825                 4.5121                 4.3590
 Frc consts  --      0.0045                 0.0072                 0.0081
 IR Inten    --      3.7025                 1.7288                 5.1463

                      4                      5                      6
                      A                      A                      A
 Frequencies --    102.9971               132.9808               146.7599
 Red. masses --      6.4316                 4.8396                 1.2487
 Frc consts  --      0.0402                 0.0504                 0.0158
 IR Inten    --      2.4051                22.6751                 5.5285

                      7                      8                      9
                      A                      A                      A
 Frequencies --    180.2041               190.6312               217.1785
 Red. masses --      4.2735                 5.3613                 4.5145
 Frc consts  --      0.0818                 0.1148                 0.1255
 IR Inten    --      3.2452                 4.2543                 3.5798

                     10                     11                     12
                      A                      A                      A
 Frequencies --    251.0349               288.9629               326.6572
 Red. masses --      5.9021                 3.2906                 8.8369
 Frc consts  --      0.2191                 0.1619                 0.5556
 IR Inten    --      4.8821                 3.1612                 4.0836

                     13                     14                     15
                      A                      A                      A
 Frequencies --    382.7312               391.8699               415.1328
 Red. masses --      6.7130                 7.2500                 2.9515
 Frc consts  --      0.5794                 0.6559                 0.2997
 IR Inten    --      7.8448                18.0371                 0.4635

                     16                     17                     18
                      A                      A                      A
 Frequencies --    420.7232               428.5543               488.0650
 Red. masses --      4.2890                 3.4511                 9.6990
 Frc consts  --      0.4473                 0.3734                 1.3612
 IR Inten    --      5.5958                 1.7133                 1.8203

                     19                     20                     21
                      A                      A                      A
 Frequencies --    527.4048               597.2848               613.7281
 Red. masses --      5.0872                 6.5236                 4.4037
 Frc consts  --      0.8337                 1.3712                 0.9773
 IR Inten    --      9.0019                33.4913                 3.4036

                     22                     23                     24
                      A                      A                      A
 Frequencies --    630.5031               672.7770               696.0078
 Red. masses --      6.3707                 4.4905                 5.1278
 Frc consts  --      1.4921                 1.1975                 1.4636
 IR Inten    --      1.1439                 4.3884                47.5290

                     25                     26                     27
                      A                      A                      A
 Frequencies --    706.1981               714.5241               730.9713
 Red. masses --      1.9169                 5.7575                 3.0547
 Frc consts  --      0.5633                 1.7319                 0.9616
 IR Inten    --     57.8515                15.6291                73.7462

                     28                     29                     30
                      A                      A                      A
 Frequencies --    758.7739               797.4899               835.2547
 Red. masses --      2.9154                 3.1458                 3.4642
 Frc consts  --      0.9889                 1.1788                 1.4239
 IR Inten    --     26.2444                14.4317               112.6593

                     31                     32                     33
                      A                      A                      A
 Frequencies --    860.6571               872.7090               899.1226
 Red. masses --      1.2496                 1.6997                 1.6048
 Frc consts  --      0.5454                 0.7627                 0.7644
 IR Inten    --      2.2428                 9.9814                64.7710

                     34                     35                     36
                      A                      A                      A
 Frequencies --    936.6204               952.7564               997.9996
 Red. masses --      3.5706                 1.4825                 1.3788
 Frc consts  --      1.8455                 0.7929                 0.8091
 IR Inten    --     63.5834                12.1866                 2.5316

                     37                     38                     39
                      A                      A                      A
 Frequencies --   1013.1018              1014.1718              1014.6410
 Red. masses --      1.5338                 2.2304                 2.1457
 Frc consts  --      0.9275                 1.3517                 1.3015
 IR Inten    --      9.6562                26.4745                36.2986

                     40                     41                     42
                      A                      A                      A
 Frequencies --   1043.2786              1050.4824              1092.2777
 Red. masses --      2.2751                 1.5305                 2.3099
 Frc consts  --      1.4590                 0.9951                 1.6237
 IR Inten    --     15.6964                 3.7623                76.4455

                     43                     44                     45
                      A                      A                      A
 Frequencies --   1106.2008              1155.3702              1176.3790
 Red. masses --      2.4288                 2.6719                 1.1107
 Frc consts  --      1.7511                 2.1014                 0.9056
 IR Inten    --     29.1219                41.8252                 1.7399

                     46                     47                     48
                      A                      A                      A
 Frequencies --   1188.7858              1204.6506              1241.1664
 Red. masses --      1.2550                 3.3619                 1.4303
 Frc consts  --      1.0449                 2.8744                 1.2981
 IR Inten    --     72.9280                52.4391                45.6058

                     49                     50                     51
                      A                      A                      A
 Frequencies --   1272.0104              1320.4025              1331.4424
 Red. masses --      4.5276                 2.6222                 3.8184
 Frc consts  --      4.3161                 2.6936                 3.9882
 IR Inten    --    324.2330                27.3455                23.6063

                     52                     53                     54
                      A                      A                      A
 Frequencies --   1346.4183              1398.7655              1427.7447
 Red. masses --      1.6971                 1.3270                 4.8405
 Frc consts  --      1.8126                 1.5297                 5.8135
 IR Inten    --      0.9832                21.1484                57.5558

                     55                     56                     57
                      A                      A                      A
 Frequencies --   1454.3520              1460.2352              1471.0430
 Red. masses --      7.8118                 1.0454                 1.2689
 Frc consts  --      9.7351                 1.3133                 1.6178
 IR Inten    --    404.5291                 9.9197                20.8575

                     58                     59                     60
                      A                      A                      A
 Frequencies --   1472.8839              1504.6279              1516.2458
 Red. masses --      2.0501                 5.3498                 2.2144
 Frc consts  --      2.6204                 7.1359                 2.9995
 IR Inten    --     27.9625              1294.9713                16.0456

                     61                     62                     63
                      A                      A                      A
 Frequencies --   1534.9710              1609.5335              1628.6444
 Red. masses --      5.5916                 5.9117                 6.0887
 Frc consts  --      7.7623                 9.0233                 9.5154
 IR Inten    --    125.3267               106.1137               122.1078

                     64                     65                     66
                      A                      A                      A
 Frequencies --   1641.4449              1650.5766              3022.5872
 Red. masses --      6.9313                 9.2815                 1.0363
 Frc consts  --     11.0031                14.8983                 5.5782
 IR Inten    --     94.2869               352.9017                55.3763

                     67                     68                     69
                      A                      A                      A
 Frequencies --   3068.0297              3103.8030              3146.3101
 Red. masses --      1.0991                 1.1018                 1.0899
 Frc consts  --      6.0955                 6.2539                 6.3568
 IR Inten    --     28.4144                30.4618                39.1886

                     70                     71                     72
                      A                      A                      A
 Frequencies --   3165.0728              3165.3168              3174.1405
 Red. masses --      1.0894                 1.0860                 1.0888
 Frc consts  --      6.4300                 6.4106                 6.4630
 IR Inten    --     16.3355                 0.4774                10.0753

                     73                     74                     75
                      A                      A                      A
 Frequencies --   3183.6022              3191.8113              3195.1430
 Red. masses --      1.0923                 1.0934                 1.0966
 Frc consts  --      6.5226                 6.5630                 6.5962
 IR Inten    --     26.8744                28.0225                12.4113

 - Thermochemistry -
 -------------------
 Temperature   298.150 Kelvin.  Pressure   1.00000 Atm.
 Atom     1 has atomic number  6 and mass  12.00000

 Molecular mass:   226.06299 amu.
 Principal axes and moments of inertia in atomic units:
                           1         2         3
     Eigenvalues --  1611.744376860.169247547.87802
           X            0.94956   0.14334   0.27892
           Y           -0.20371  -0.39428   0.89613
           Z           -0.23842   0.90774   0.34519
 This molecule is an asymmetric top.
 Rotational symmetry number  1.
 Warning -- assumption of classical behavior for rotation
           may cause significant error
 Rotational temperatures (Kelvin)      0.05374     0.01263     0.01148
 Rotational constants (GHZ):           1.11974     0.26308     0.23911
 Zero-point vibrational energy     526736.9 (Joules/Mol)
                                  125.89314 (Kcal/Mol)
 Warning -- explicit consideration of  21 degrees of freedom as
           vibrations may cause significant error
 Vibrational temperatures:     46.46    74.80    81.04   148.19   191.33
          (Kelvin)            211.15   259.27   274.28   312.47   361.18
                              415.75   469.99   550.66   563.81   597.28
                              605.33   616.59   702.22   758.82   859.36
                              883.02   907.15   967.98  1001.40  1016.06
                             1028.04  1051.70  1091.71  1147.41  1201.75
                             1238.29  1255.63  1293.64  1347.59  1370.80
                             1435.90  1457.63  1459.17  1459.84  1501.05
                             1511.41  1571.54  1591.58  1662.32  1692.55
                             1710.40  1733.22  1785.76  1830.14  1899.76
                             1915.65  1937.20  2012.51  2054.21  2092.49
                             2100.95  2116.50  2119.15  2164.82  2181.54
                             2208.48  2315.76  2343.26  2361.67  2374.81
                             4348.83  4414.21  4465.68  4526.84  4553.83
                             4554.18  4566.88  4580.49  4592.30  4597.10

 Zero-point correction=                           0.200623 (Hartree/Particle)
 Thermal correction to Energy=                    0.214955
 Thermal correction to Enthalpy=                  0.215899
 Thermal correction to Gibbs Free Energy=         0.157681
 Sum of electronic and zero-point Energies=           -765.328895
 Sum of electronic and thermal Energies=              -765.314563
 Sum of electronic and thermal Enthalpies=            -765.313619
 Sum of electronic and thermal Free Energies=         -765.371838

                     E (Thermal)             CV                S
                      KCal/Mol        Cal/Mol-Kelvin    Cal/Mol-Kelvin
 Total                  134.886             54.817            122.532
 Electronic               0.000              0.000              1.377
 Translational            0.889              2.981             42.149
 Rotational               0.889              2.981             32.790
 Vibrational            133.109             48.855             46.215
 Vibration     1          0.594              1.983              5.683
 Vibration     2          0.596              1.977              4.740
 Vibration     3          0.596              1.975              4.582
 Vibration     4          0.605              1.947              3.397
 Vibration     5          0.613              1.920              2.902
 Vibration     6          0.617              1.906              2.714
 Vibration     7          0.629              1.867              2.326
 Vibration     8          0.634              1.853              2.222
 Vibration     9          0.646              1.815              1.982
 Vibration    10          0.663              1.761              1.723
 Vibration    11          0.686              1.694              1.480
 Vibration    12          0.710              1.622              1.277
 Vibration    13          0.752              1.507              1.028
 Vibration    14          0.759              1.488              0.993
 Vibration    15          0.779              1.437              0.909
 Vibration    16          0.783              1.425              0.890
 Vibration    17          0.790              1.408              0.863
 Vibration    18          0.844              1.277              0.689
 Vibration    19          0.882              1.189              0.593
 Vibration    20          0.955              1.038              0.454
 Vibration    21          0.973              1.003              0.427

                           ! Non-Optimized Parameters !
 Normal termination of Gaussian 16 at Sat Feb 10 13:16:03 2024.
