 Q-Chem 5.4, Q-Chem, Inc., Pleasanton, CA (2021)
 Q-Chem 5.4.0 for Intel X86 EM64T Linux

User input:
--------------------------------------------------------------
$molecule
-2 1
C                 -2.5704430000     -2.4799210000      0.4090040000
O                 -2.4173600000     -1.2850260000     -0.3373630000
C                 -1.1574240000     -0.6928210000     -0.2046810000
C                 -1.1212990000      0.6198800000      0.3310660000
O                 -2.3251420000      1.1329110000      0.8242190000
C                 -2.7615280000      2.3073150000      0.1618890000
C                  0.0635590000      1.3977960000      0.4503840000
O                  0.0913410000      2.5943200000      0.9476100000
C                  1.2563380000      0.7147110000     -0.0228390000
C                  2.5072140000      1.3727180000      0.0496200000
C                  3.6815050000      0.7769690000     -0.3744460000
C                  3.6465460000     -0.5407540000     -0.9034290000
C                  2.4399030000     -1.2129500000     -0.9797820000
C                  1.2231400000     -0.6342060000     -0.5468620000
C                 -0.0097200000     -1.3953070000     -0.6657680000
O                 -0.0499790000     -2.5919300000     -1.1618060000
H                 -1.7978800000     -3.2040280000      0.1303680000
H                 -2.5239430000     -2.2736460000      1.4915060000
H                 -3.5663910000     -2.8769580000      0.1712960000
H                 -1.9891920000      3.0817240000      0.2124480000
H                 -3.6704900000      2.6435930000      0.6783630000
H                 -3.0144750000      2.0921530000     -0.8898580000
H                  2.4976300000      2.3790400000      0.4584720000
H                  4.6264410000      1.3148360000     -0.3061700000
H                  4.5644580000     -1.0188160000     -1.2436860000
H                  2.3771900000     -2.2216040000     -1.3780550000
$end
$rem
MAX_SCF_CYCLES=200
BASIS  =  6-311++G(d,p)
GUI  =  2
JOB_TYPE  =  SP
METHOD  =  B3LYP
SOLVENT_METHOD = COSMO
$end
$solvent
dielectric 37.219
opticaldielectric 1.43
$end

--------------------------------------------------------------

             Standard Nuclear Orientation (Angstroms)
    I     Atom           X                Y                Z
 ----------------------------------------------------------------
    1      C      -2.7227467779    -2.2871876913     0.7241285312
    2      O      -2.4253547852    -1.3153087420    -0.2634348720
    3      C      -1.1795466801    -0.7022443133    -0.0965092272
    4      C      -1.1793050366     0.7027380342     0.0972388666
    5      O      -2.4247645597     1.3163048233     0.2645858974
    6      C      -2.7231488853     2.2862543448    -0.7246073320
    7      C       0.0001128803     1.4919295875     0.1943400387
    8      O      -0.0060410657     2.7747584863     0.3786966567
    9      C       1.2263201632     0.7185914180     0.0864945805
   10      C       2.4739704385     1.3803197142     0.1781392121
   11      C       3.6775799488     0.7037182508     0.0930345552
   12      C       3.6773538238    -0.7044352610    -0.0928220741
   13      C       2.4735591331    -1.3806473648    -0.1781456092
   14      C       1.2261228736    -0.7185252666    -0.0866379713
   15      C      -0.0002911953    -1.4915773975    -0.1946013122
   16      O      -0.0066517088    -2.7742702590    -0.3796409174
   17      H      -1.9415540158    -3.0539070521     0.7506209286
   18      H      -2.8265730343    -1.8173295578     1.7165879250
   19      H      -3.6860660198    -2.7360713189     0.4474058930
   20      H      -1.9418895351     3.0527843878    -0.7534851710
   21      H      -3.6859873364     2.7359831100    -0.4476121008
   22      H      -2.8282244010     1.8143938130    -1.7159475348
   23      H       2.4375563073     2.4567308683     0.3193794929
   24      H       4.6194258021     1.2464830236     0.1651411143
   25      H       4.6190559070    -1.2474941858    -0.1646881472
   26      H       2.4368691647    -2.4570518860    -0.3193700674
 ----------------------------------------------------------------

   13    -764.3421903015      4.47e-06  Convergence criterion met
 Total energy in the final basis set =     -764.3421903015
    6    -764.6270062412      2.61e-06  Convergence criterion met
 Total energy in the final basis set =     -764.6270062412

                    Orbital Energies (a.u.)
 --------------------------------------------------------------

 Alpha MOs
 -- Occupied --
-19.1143 -19.1143 -19.0234 -19.0234 -10.1892 -10.1891 -10.1793 -10.1789
-10.1758 -10.1758 -10.1507 -10.1503 -10.1473 -10.1473 -10.1420 -10.1417
 -1.0339  -1.0161  -0.9365  -0.9338  -0.8275  -0.7692  -0.7251  -0.7148
 -0.6819  -0.6522  -0.6350  -0.5776  -0.5740  -0.5336  -0.4969  -0.4944
 -0.4713  -0.4441  -0.4372  -0.4369  -0.4264  -0.4144  -0.4143  -0.3979
 -0.3919  -0.3720  -0.3700  -0.3609  -0.3405  -0.3281  -0.3275  -0.3235
 -0.3112  -0.3092  -0.2663  -0.2603  -0.2319  -0.2285  -0.2026  -0.2020
 -0.1994  -0.1188

          Ground-State Mulliken Net Atomic Charges

     Atom                 Charge (a.u.)
  ----------------------------------------
      1 C                    -0.262301
      2 O                    -0.224461
      3 C                     0.016149
      4 C                     0.013310
      5 O                    -0.224059
      6 C                    -0.262202
      7 C                    -0.609705
      8 O                    -0.726175
      9 C                     0.459749
     10 C                     0.036596
     11 C                    -0.476791
     12 C                    -0.475832
     13 C                     0.036117
     14 C                     0.461163
     15 C                    -0.607393
     16 O                    -0.726163
     17 H                     0.170073
     18 H                     0.126548
     19 H                     0.151641
     20 H                     0.170100
     21 H                     0.151628
     22 H                     0.126506
     23 H                     0.155040
     24 H                     0.182645
     25 H                     0.182737
     26 H                     0.155080
  ----------------------------------------
  Sum of atomic charges =    -2.000000

                    Cartesian Multipole Moments
 -----------------------------------------------------------------
    Charge (ESU x 10^10)
                -9.6064
    Dipole Moment (Debye)
         X       0.0048      Y      -0.0060      Z       0.0013
       Tot       0.0077
    Quadrupole Moments (Debye-Ang)
        XX    -116.5558     XY       0.0052     YY    -154.2696
        XZ       0.0105     YZ     -12.6161     ZZ    -105.7410

 Total job time:  65.72s(wall), 460.61s(cpu)
        *  Thank you very much for using Q-Chem.  Have a nice day.  *
