 Q-Chem 5.4, Q-Chem, Inc., Pleasanton, CA (2021)
 Q-Chem 5.4.0 for Intel X86 EM64T Linux

User input:
--------------------------------------------------------------
$molecule
-2 1
N                 -2.5823290000     -2.2747500000      0.6046910000
C                 -2.3465170000     -0.9339700000      0.2205480000
C                 -3.4190290000     -0.0934260000     -0.0011980000
C                 -3.2152830000      1.2725310000     -0.3104360000
C                 -1.9425690000      1.8027910000     -0.3636380000
O                 -1.8156540000      3.1638910000     -0.6220860000
C                 -0.7781180000      0.9886580000     -0.1796180000
C                  0.5604110000      1.5556710000     -0.2901910000
O                  0.8098900000      2.7752190000     -0.5525500000
C                  1.6538800000      0.6119000000     -0.0828640000
C                  2.9848020000      1.0853130000     -0.1503570000
C                  4.0738430000      0.2502780000      0.0122680000
C                  3.8594350000     -1.1354370000      0.2510120000
C                  2.5729680000     -1.6267250000      0.3197680000
C                  1.4365400000     -0.7868930000      0.1629050000
C                  0.1180830000     -1.3556240000      0.2522770000
O                 -0.0167750000     -2.6413930000      0.4432840000
C                 -0.9899830000     -0.4389670000      0.1112550000
H                 -3.3416470000     -2.6913370000      0.0818930000
H                 -1.6867270000     -2.7948470000      0.5437030000
H                 -4.4301810000     -0.4784150000      0.1136840000
H                 -4.0725780000      1.9171560000     -0.5080100000
H                 -2.7100320000      3.5177010000     -0.5515690000
H                  3.1067080000      2.1469320000     -0.3415830000
H                  5.0861680000      0.6470050000     -0.0427830000
H                  4.7088340000     -1.8049630000      0.3795000000
H                  2.3758610000     -2.6782990000      0.5000960000
$end

$rem
BASIS  =  6-311++G(d,p)
GUI  =  2
JOB_TYPE  =  SP
METHOD  =  B3LYP
SCF_CONVERGENCE  = 8
SOLVENT_METHOD = sm12
$end

$smx
solvent dimethylformamide
charges CM5
$end

--------------------------------------------------------------

             Standard Nuclear Orientation (Angstroms)
    I     Atom           X                Y                Z
 ----------------------------------------------------------------
    1      N      -2.5823290000    -2.2747500000     0.6046910000
    2      C      -2.3465170000    -0.9339700000     0.2205480000
    3      C      -3.4190290000    -0.0934260000    -0.0011980000
    4      C      -3.2152830000     1.2725310000    -0.3104360000
    5      C      -1.9425690000     1.8027910000    -0.3636380000
    6      O      -1.8156540000     3.1638910000    -0.6220860000
    7      C      -0.7781180000     0.9886580000    -0.1796180000
    8      C       0.5604110000     1.5556710000    -0.2901910000
    9      O       0.8098900000     2.7752190000    -0.5525500000
   10      C       1.6538800000     0.6119000000    -0.0828640000
   11      C       2.9848020000     1.0853130000    -0.1503570000
   12      C       4.0738430000     0.2502780000     0.0122680000
   13      C       3.8594350000    -1.1354370000     0.2510120000
   14      C       2.5729680000    -1.6267250000     0.3197680000
   15      C       1.4365400000    -0.7868930000     0.1629050000
   16      C       0.1180830000    -1.3556240000     0.2522770000
   17      O      -0.0167750000    -2.6413930000     0.4432840000
   18      C      -0.9899830000    -0.4389670000     0.1112550000
   19      H      -3.3416470000    -2.6913370000     0.0818930000
   20      H      -1.6867270000    -2.7948470000     0.5437030000
   21      H      -4.4301810000    -0.4784150000     0.1136840000
   22      H      -4.0725780000     1.9171560000    -0.5080100000
   23      H      -2.7100320000     3.5177010000    -0.5515690000
   24      H       3.1067080000     2.1469320000    -0.3415830000
   25      H       5.0861680000     0.6470050000    -0.0427830000
   26      H       4.7088340000    -1.8049630000     0.3795000000
   27      H       2.3758610000    -2.6782990000     0.5000960000
 ----------------------------------------------------------------

   18    -819.5264106068      4.74e-09  Convergence criterion met
 Total energy in the final basis set =     -819.8145416191

                    Orbital Energies (a.u.)
 --------------------------------------------------------------

 Alpha MOs
 -- Occupied --
-19.1354 -19.0322 -19.0247 -14.2897 -10.2197 -10.1980 -10.1934 -10.1893
-10.1743 -10.1722 -10.1681 -10.1678 -10.1612 -10.1603 -10.1585 -10.1574
-10.1536 -10.1520  -1.0422  -0.9517  -0.9485  -0.8910  -0.8444  -0.8177
 -0.7683  -0.7422  -0.7261  -0.7096  -0.6514  -0.6279  -0.6161  -0.5763
 -0.5520  -0.5361  -0.5253  -0.4954  -0.4789  -0.4580  -0.4533  -0.4452
 -0.4317  -0.4194  -0.4139  -0.4066  -0.3921  -0.3793  -0.3763  -0.3689
 -0.3648  -0.3538  -0.3505  -0.3352  -0.3275  -0.3223  -0.3175  -0.2751
 -0.2473  -0.2368  -0.2346  -0.2119  -0.1967  -0.1917  -0.1145

          Ground-State Mulliken Net Atomic Charges

     Atom                 Charge (a.u.)
  ----------------------------------------
      1 N                    -0.287700
      2 C                    -0.784269
      3 C                     2.210026
      4 C                     2.529327
      5 C                     0.368094
      6 O                    -0.068205
      7 C                    -1.316919
      8 C                    -2.681596
      9 O                    -0.274822
     10 C                    -1.445666
     11 C                    -0.091541
     12 C                     1.601502
     13 C                     1.611682
     14 C                     0.104045
     15 C                    -1.655651
     16 C                    -2.535794
     17 O                    -0.291818
     18 C                    -1.718364
     19 H                     0.355715
     20 H                     0.264830
     21 H                     0.281028
     22 H                     0.386008
     23 H                     0.390260
     24 H                     0.106907
     25 H                     0.390961
     26 H                     0.408856
     27 H                     0.143103
  ----------------------------------------
  Sum of atomic charges =    -2.000000

                    Cartesian Multipole Moments
 -----------------------------------------------------------------
    Charge (ESU x 10^10)
                -9.6064
    Dipole Moment (Debye)
         X      -3.4878      Y      -0.6747      Z      -0.6438
       Tot       3.6103
    Quadrupole Moments (Debye-Ang)
        XX    -144.9270     XY      -8.0872     YY    -159.9923
        XZ       4.5972     YZ      11.5583     ZZ    -122.9372

 Total job time:  700.49s(wall), 5293.35s(cpu)
        *  Thank you very much for using Q-Chem.  Have a nice day.  *
