 Gaussian 16, Revision A.03,
 Gaussian 16:  ES64L-G16RevA.03 25-Dec-2016

 ----------------------------------------------------------------
 #P UB3LYP/6-311++G(d,p) SCRF=(PCM,Solvent=n,n-DiMethylFormamide)
 ----------------------------------------------------------------

 -------
 Reduced
 -------
 Symbolic Z-matrix:
 Charge = -2 Multiplicity = 1

                         Standard orientation:
 ---------------------------------------------------------------------
 Center     Atomic      Atomic             Coordinates (Angstroms)
 Number     Number       Type             X           Y           Z
 ---------------------------------------------------------------------
      1          6           0       -2.509523   -0.953144    0.025829
      2          6           0       -2.414557   -2.328887   -0.064019
      3          6           0       -1.135698   -2.933598   -0.203198
      4          6           0       -1.374715   -0.104718    0.005895
      5          6           0       -0.066106   -0.730386   -0.079398
      6          6           0       -0.002015   -2.141839   -0.208237
      7          6           0       -1.574773    1.340415    0.062859
      8          6           0       -0.345334    2.186507    0.020564
      9          6           0        0.912174    1.490942   -0.035216
     10          6           0        1.082089    0.108514   -0.073886
     11          8           0       -2.732141    1.847507    0.141194
     12          8           0       -0.398854    3.455331    0.046076
     13          1           0       -3.473771   -0.460906    0.110084
     14          1           0       -3.311910   -2.945068   -0.045794
     15          1           0       -1.045553   -4.013555   -0.305048
     16          1           0        0.975662   -2.597904   -0.331181
     17          1           0        1.782874    2.142176   -0.028121
     18          7           0        2.391076   -0.508196   -0.141133
     19          6           0        3.422011    0.252705   -0.820759
     20          6           0        2.879109   -1.006533    1.145318
     21          1           0        3.038772    0.622625   -1.774017
     22          1           0        4.286807   -0.391758   -1.012580
     23          1           0        3.789656    1.125293   -0.242091
     24          1           0        2.094691   -1.579406    1.639850
     25          1           0        3.186157   -0.185139    1.826645
     26          1           0        3.751067   -1.661553    0.997522
 ---------------------------------------------------------------------

 SCF Done:  E(UB3LYP) =  -669.502475311     A.U. after   18 cycles

 The electronic state is 1-A.
 Alpha  occ. eigenvalues --  -19.01483 -19.01469 -14.29253 -10.17480 -10.17396
 Alpha  occ. eigenvalues --  -10.16204 -10.16101 -10.15418 -10.14351 -10.14204
 Alpha  occ. eigenvalues --  -10.14160 -10.13807 -10.13555 -10.12684 -10.11793
 Alpha  occ. eigenvalues --   -0.94879  -0.92161  -0.90733  -0.82004  -0.75809
 Alpha  occ. eigenvalues --   -0.71932  -0.69582  -0.68295  -0.65440  -0.60019
 Alpha  occ. eigenvalues --   -0.57906  -0.55328  -0.52390  -0.47911  -0.46541
 Alpha  occ. eigenvalues --   -0.45757  -0.44035  -0.42804  -0.41319  -0.39976
 Alpha  occ. eigenvalues --   -0.39154  -0.38055  -0.37341  -0.36771  -0.36399
 Alpha  occ. eigenvalues --   -0.35481  -0.35313  -0.34074  -0.32608  -0.31735
 Alpha  occ. eigenvalues --   -0.29904  -0.28833  -0.26527  -0.22371  -0.21338
 Alpha  occ. eigenvalues --   -0.20244  -0.18161  -0.17671  -0.10458
 Alpha virt. eigenvalues --   -0.00521  -0.00134   0.00851   0.01671   0.02192
 Alpha virt. eigenvalues --    0.02892   0.02966   0.03107   0.04161   0.05027
 Alpha virt. eigenvalues --    0.05092   0.05473   0.05821   0.06830   0.07431

  Beta  occ. eigenvalues --  -19.01483 -19.01469 -14.29253 -10.17480 -10.17396
  Beta  occ. eigenvalues --  -10.16204 -10.16101 -10.15418 -10.14351 -10.14204
  Beta  occ. eigenvalues --  -10.14160 -10.13807 -10.13555 -10.12684 -10.11793
  Beta  occ. eigenvalues --   -0.94879  -0.92161  -0.90733  -0.82004  -0.75809
  Beta  occ. eigenvalues --   -0.71932  -0.69582  -0.68295  -0.65440  -0.60019
  Beta  occ. eigenvalues --   -0.57906  -0.55328  -0.52390  -0.47911  -0.46541
  Beta  occ. eigenvalues --   -0.45757  -0.44035  -0.42804  -0.41319  -0.39976
  Beta  occ. eigenvalues --   -0.39154  -0.38055  -0.37341  -0.36771  -0.36399
  Beta  occ. eigenvalues --   -0.35481  -0.35313  -0.34074  -0.32608  -0.31735
  Beta  occ. eigenvalues --   -0.29904  -0.28833  -0.26527  -0.22371  -0.21338
  Beta  occ. eigenvalues --   -0.20244  -0.18161  -0.17671  -0.10458
  Beta virt. eigenvalues --   -0.00521  -0.00134   0.00851   0.01671   0.02192
  Beta virt. eigenvalues --    0.02892   0.02966   0.03107   0.04161   0.05027
  Beta virt. eigenvalues --    0.05092   0.05473   0.05821   0.06830   0.07431

 Mulliken charges and spin densities:
               1          2
     1  C   -0.028193  -0.000000
     2  C   -0.514610   0.000000
     3  C   -0.485604  -0.000000
     4  C    0.367398  -0.000000
     5  C    0.194346   0.000000
     6  C   -0.126879  -0.000000
     7  C   -0.456228   0.000000
     8  C   -0.201174   0.000000
     9  C   -0.137256   0.000000
    10  C   -0.271703   0.000000
    11  O   -0.682554  -0.000000
    12  O   -0.697630  -0.000000
    13  H    0.145706  -0.000000
    14  H    0.147127   0.000000
    15  H    0.153036  -0.000000
    16  H    0.145599  -0.000000
    17  H    0.122565   0.000000
    18  N    0.115163   0.000000
    19  C   -0.243643   0.000000
    20  C   -0.335309   0.000000
    21  H    0.149427  -0.000000
    22  H    0.137752  -0.000000
    23  H    0.104716   0.000000
    24  H    0.125975   0.000000
    25  H    0.119174  -0.000000
    26  H    0.152800   0.000000
 Sum of Mulliken charges =  -2.00000  -0.00000

 Dipole moment (field-independent basis, Debye):
    X=             12.3147    Y=            -15.5000    Z=             -0.0590  Tot=             19.7966
 Quadrupole moment (field-independent basis, Debye-Ang):
   XX=           -127.2167   YY=           -160.8688   ZZ=           -100.6071
   XY=             19.4774   XZ=              1.5755   YZ=             -2.9820

 Normal termination of Gaussian 16 at Sat Jan 13 19:19:00 2024.
