 Q-Chem 5.4, Q-Chem, Inc., Pleasanton, CA (2021)
 Q-Chem 5.4.0 for Intel X86 EM64T Linux

User input:
--------------------------------------------------------------
$molecule
0 1
C                  5.9364520000     -5.2256650000      1.1044700000
C                  6.8357590000     -5.0816330000      0.0532440000
C                  6.6254680000     -4.1035550000     -0.9212780000
C                  4.8198240000     -4.3900000000      1.1858480000
C                  4.6088380000     -3.4085990000      0.2080310000
C                  5.5156770000     -3.2685770000     -0.8454620000
C                  3.8703930000     -4.5627760000      2.3203710000
C                  2.6820700000     -3.6398460000      2.3639000000
C                  2.4787200000     -2.6938060000      1.4214200000
C                  3.4276450000     -2.5033010000      0.2685530000
O                  4.0406810000     -5.4065030000      3.1746070000
O                  3.2327790000     -1.6485370000     -0.5693020000
H                  6.0804330000     -5.9771750000      1.8705740000
H                  5.3335930000     -2.5037960000     -1.5900170000
Br                 1.5205200000     -3.9161260000      3.8276390000
Br                 1.0041210000     -1.5133560000      1.4340630000
H                  7.7014530000     -5.7309030000     -0.0083090000
H                  7.3279150000     -3.9935380000     -1.7393430000
$end
$rem
MAX_SCF_CYCLES=200
BASIS  =  6-311++G(d,p)
GUI  =  2
JOB_TYPE  =  SP
METHOD  =  B3LYP
SOLVENT_METHOD = PCM
$end
$pcm
theory = CPCM
$end
$solvent
dielectric 37.219
opticaldielectric 1.43
$end

--------------------------------------------------------------

             Standard Nuclear Orientation (Angstroms)
    I     Atom           X                Y                Z
 ----------------------------------------------------------------
    1      C       5.9364520000    -5.2256650000     1.1044700000
    2      C       6.8357590000    -5.0816330000     0.0532440000
    3      C       6.6254680000    -4.1035550000    -0.9212780000
    4      C       4.8198240000    -4.3900000000     1.1858480000
    5      C       4.6088380000    -3.4085990000     0.2080310000
    6      C       5.5156770000    -3.2685770000    -0.8454620000
    7      C       3.8703930000    -4.5627760000     2.3203710000
    8      C       2.6820700000    -3.6398460000     2.3639000000
    9      C       2.4787200000    -2.6938060000     1.4214200000
   10      C       3.4276450000    -2.5033010000     0.2685530000
   11      O       4.0406810000    -5.4065030000     3.1746070000
   12      O       3.2327790000    -1.6485370000    -0.5693020000
   13      H       6.0804330000    -5.9771750000     1.8705740000
   14      H       5.3335930000    -2.5037960000    -1.5900170000
   15      Br      1.5205200000    -3.9161260000     3.8276390000
   16      Br      1.0041210000    -1.5133560000     1.4340630000
   17      H       7.7014530000    -5.7309030000    -0.0083090000
   18      H       7.3279150000    -3.9935380000    -1.7393430000
 ----------------------------------------------------------------

    8   -5682.3417650056      7.86e-06  Convergence criterion met
 Total energy in the final basis set =    -5682.3417650056

                    Orbital Energies (a.u.)
 --------------------------------------------------------------

 Alpha MOs
 -- Occupied --
********-482.8564 -62.5092 -62.5091 -56.3298 -56.3298 -56.3259 -56.3259
-56.3254 -56.3254 -19.1498 -19.1498 -10.3049 -10.3049 -10.2770 -10.2763
-10.2179 -10.2174 -10.2034 -10.2034 -10.2018 -10.2013  -8.7180  -8.7180
 -6.5499  -6.5499  -6.5368  -6.5368  -6.5353  -6.5353  -2.6607  -2.6607
 -2.6573  -2.6573  -2.6562  -2.6561  -2.6457  -2.6457  -2.6456  -2.6456
 -1.0883  -1.0865  -0.9062  -0.8862  -0.8250  -0.8108  -0.7857  -0.7576
 -0.7024  -0.6537  -0.6383  -0.6005  -0.5655  -0.5323  -0.5112  -0.4845
 -0.4771  -0.4726  -0.4651  -0.4565  -0.4409  -0.4373  -0.4313  -0.3964
 -0.3895  -0.3761  -0.3708  -0.3286  -0.3284  -0.3068  -0.3056  -0.2959
 -0.2883  -0.2843  -0.2747

          Ground-State Mulliken Net Atomic Charges

     Atom                 Charge (a.u.)
  ----------------------------------------
      1 C                     0.215505
      2 C                    -0.369923
      3 C                    -0.369051
      4 C                     0.511607
      5 C                     0.511104
      6 C                     0.214470
      7 C                    -1.099901
      8 C                     0.598920
      9 C                     0.590351
     10 C                    -1.090892
     11 O                    -0.206722
     12 O                    -0.207100
     13 H                     0.198646
     14 H                     0.198642
     15 Br                   -0.083024
     16 Br                   -0.081992
     17 H                     0.234594
     18 H                     0.234766
  ----------------------------------------
  Sum of atomic charges =     0.000000

                    Cartesian Multipole Moments
 -----------------------------------------------------------------
    Charge (ESU x 10^10)
                 0.0000
    Dipole Moment (Debye)
         X       3.6664      Y      -1.2662      Z      -2.0626
       Tot       4.3932
    Quadrupole Moments (Debye-Ang)
        XX     -63.1745     XY     -21.4209     YY    -101.2400
        XZ     -12.9494     YZ      15.5050     ZZ    -112.4281

 Total job time:  36.74s(wall), 195.43s(cpu)
        *  Thank you very much for using Q-Chem.  Have a nice day.  *
