 Gaussian 16, Revision A.03,
 Gaussian 16:  ES64L-G16RevA.03 25-Dec-2016

 --------------------------------------
 #P UB3LYP/6-311++G(d,p) nosym opt freq
 --------------------------------------

 --------
 Oxidized
 --------
 Symbolic Z-matrix:
 Charge =  0 Multiplicity = 1

 SCF Done:  E(UB3LYP) =  -5682.33324754     A.U. after   16 cycles
 Optimization completed.
    -- Stationary point found.
 Normal termination of Gaussian 16 at Sun Jan  7 20:13:49 2024.

 ----------------------------------------------------------------------
 #P Geom=AllCheck Guess=TCheck SCRF=Check GenChk UB3LYP/6-311++G(d,p) F
 req
 ----------------------------------------------------------------------

 Structure from the checkpoint file:  "233.chk"
 --------
 Oxidized
 --------
 Charge =  0 Multiplicity = 1

                          Input orientation:
 ---------------------------------------------------------------------
 Center     Atomic      Atomic             Coordinates (Angstroms)
 Number     Number       Type             X           Y           Z
 ---------------------------------------------------------------------
      1          6           0        5.936452   -5.225665    1.104470
      2          6           0        6.835759   -5.081633    0.053244
      3          6           0        6.625468   -4.103555   -0.921278
      4          6           0        4.819824   -4.390000    1.185848
      5          6           0        4.608838   -3.408599    0.208031
      6          6           0        5.515677   -3.268577   -0.845462
      7          6           0        3.870393   -4.562776    2.320371
      8          6           0        2.682070   -3.639846    2.363900
      9          6           0        2.478720   -2.693806    1.421420
     10          6           0        3.427645   -2.503301    0.268553
     11          8           0        4.040681   -5.406503    3.174607
     12          8           0        3.232779   -1.648537   -0.569302
     13          1           0        6.080433   -5.977175    1.870574
     14          1           0        5.333593   -2.503796   -1.590017
     15         35           0        1.520520   -3.916126    3.827639
     16         35           0        1.004121   -1.513356    1.434063
     17          1           0        7.701453   -5.730903   -0.008309
     18          1           0        7.327915   -3.993538   -1.739343
 ---------------------------------------------------------------------

 SCF Done:  E(UB3LYP) =  -5682.33324754     A.U. after    1 cycles

 Alpha  occ. eigenvalues -- -482.85420-482.85420 -62.50686 -62.50686 -56.32741
 Alpha  occ. eigenvalues --  -56.32741 -56.32351 -56.32351 -56.32289 -56.32289
 Alpha  occ. eigenvalues --  -19.14899 -19.14899 -10.30422 -10.30421 -10.27795
 Alpha  occ. eigenvalues --  -10.27722 -10.22626 -10.22574 -10.21570 -10.21519
 Alpha  occ. eigenvalues --  -10.21403 -10.21402  -8.71656  -8.71656  -6.54858
 Alpha  occ. eigenvalues --   -6.54857  -6.53548  -6.53548  -6.53365  -6.53365
 Alpha  occ. eigenvalues --   -2.65946  -2.65946  -2.65602  -2.65602  -2.65463
 Alpha  occ. eigenvalues --   -2.65462  -2.64419  -2.64419  -2.64416  -2.64415
 Alpha  occ. eigenvalues --   -1.08675  -1.08479  -0.91184  -0.89116  -0.82329
 Alpha  occ. eigenvalues --   -0.81778  -0.79542  -0.76142  -0.70683  -0.66195
 Alpha  occ. eigenvalues --   -0.64448  -0.60723  -0.56993  -0.54008  -0.51487
 Alpha  occ. eigenvalues --   -0.49313  -0.47533  -0.47302  -0.46972  -0.46740
 Alpha  occ. eigenvalues --   -0.44275  -0.43660  -0.43321  -0.40421  -0.40028
 Alpha  occ. eigenvalues --   -0.38762  -0.37110  -0.32625  -0.32485  -0.30442
 Alpha  occ. eigenvalues --   -0.30312  -0.30257  -0.29388  -0.28550  -0.27649
 Alpha virt. eigenvalues --   -0.14104  -0.07206  -0.05340  -0.05268  -0.01539
 Alpha virt. eigenvalues --   -0.00336   0.00175   0.00701   0.00888   0.02406
 Alpha virt. eigenvalues --    0.03339   0.03558   0.03614   0.04191   0.05102

  Beta  occ. eigenvalues -- -482.85420-482.85420 -62.50686 -62.50686 -56.32741
  Beta  occ. eigenvalues --  -56.32741 -56.32351 -56.32351 -56.32289 -56.32289
  Beta  occ. eigenvalues --  -19.14899 -19.14899 -10.30422 -10.30421 -10.27795
  Beta  occ. eigenvalues --  -10.27722 -10.22626 -10.22574 -10.21570 -10.21519
  Beta  occ. eigenvalues --  -10.21403 -10.21402  -8.71656  -8.71656  -6.54858
  Beta  occ. eigenvalues --   -6.54857  -6.53548  -6.53548  -6.53365  -6.53365
  Beta  occ. eigenvalues --   -2.65946  -2.65946  -2.65602  -2.65602  -2.65463
  Beta  occ. eigenvalues --   -2.65462  -2.64419  -2.64419  -2.64416  -2.64415
  Beta  occ. eigenvalues --   -1.08675  -1.08479  -0.91184  -0.89116  -0.82329
  Beta  occ. eigenvalues --   -0.81778  -0.79542  -0.76142  -0.70683  -0.66195
  Beta  occ. eigenvalues --   -0.64448  -0.60723  -0.56993  -0.54008  -0.51487
  Beta  occ. eigenvalues --   -0.49313  -0.47533  -0.47302  -0.46972  -0.46740
  Beta  occ. eigenvalues --   -0.44275  -0.43660  -0.43321  -0.40421  -0.40028
  Beta  occ. eigenvalues --   -0.38762  -0.37110  -0.32625  -0.32485  -0.30442
  Beta  occ. eigenvalues --   -0.30312  -0.30257  -0.29388  -0.28550  -0.27649
  Beta virt. eigenvalues --   -0.14104  -0.07206  -0.05340  -0.05268  -0.01539
  Beta virt. eigenvalues --   -0.00336   0.00175   0.00701   0.00888   0.02406
  Beta virt. eigenvalues --    0.03339   0.03558   0.03614   0.04191   0.05102

 Mulliken charges and spin densities:
               1          2
     1  C    0.231923  -0.000000
     2  C   -0.294128   0.000000
     3  C   -0.294181  -0.000000
     4  C    0.441179   0.000000
     5  C    0.441655  -0.000000
     6  C    0.231984   0.000000
     7  C   -1.031205  -0.000000
     8  C    0.433999   0.000000
     9  C    0.434275   0.000000
    10  C   -1.031479  -0.000000
    11  O   -0.142383   0.000000
    12  O   -0.142386  -0.000000
    13  H    0.185645  -0.000000
    14  H    0.185644   0.000000
    15  Br  -0.012392   0.000000
    16  Br  -0.012450   0.000000
    17  H    0.187149   0.000000
    18  H    0.187152  -0.000000
 Sum of Mulliken charges =  -0.00000  -0.00000

 Dipole moment (field-independent basis, Debye):
    X=              2.6597    Y=             -0.9179    Z=             -1.4954  Tot=              3.1863
 Quadrupole moment (field-independent basis, Debye-Ang):
   XX=            -73.5877   YY=           -102.3509   ZZ=           -110.2307
   XY=            -15.9151   XZ=            -10.0772   YZ=             11.5930

  Exact polarizability: 180.128 -44.908 147.757 -42.164 -36.358 166.233
 Approx polarizability: 264.366 -71.061 273.372 -44.123-102.174 297.402

                      1                      2                      3
                      A                      A                      A
 Frequencies --     37.6568                49.3059               114.2264
 Red. masses --     10.4161                14.5100                 4.8840
 Frc consts  --      0.0087                 0.0208                 0.0375
 IR Inten    --      4.1323                 0.0000                 0.0000

                      4                      5                      6
                      A                      A                      A
 Frequencies --    134.1744               156.7759               167.4821
 Red. masses --     56.3049                 8.2547                12.9813
 Frc consts  --      0.5972                 0.1195                 0.2145
 IR Inten    --      0.1805                 1.4449                 1.1691

                      7                      8                      9
                      A                      A                      A
 Frequencies --    245.6459               254.9227               261.3783
 Red. masses --      9.3110                 7.5526                15.0460
 Frc consts  --      0.3310                 0.2892                 0.6056
 IR Inten    --      0.3191                 0.6056                 0.2171

                     10                     11                     12
                      A                      A                      A
 Frequencies --    315.5338               391.2814               412.7137
 Red. masses --     11.6802                11.2887                 7.5285
 Frc consts  --      0.6852                 1.0183                 0.7555
 IR Inten    --      0.0741                13.8584                 0.0001

                     13                     14                     15
                      A                      A                      A
 Frequencies --    429.0016               473.4995               505.5477
 Red. masses --      3.3716                13.5916                 5.5074
 Frc consts  --      0.3656                 1.7954                 0.8293
 IR Inten    --      0.6438                13.8372                 0.0000

                     16                     17                     18
                      A                      A                      A
 Frequencies --    525.8528               636.9666               692.8161
 Red. masses --      8.3342                 7.7216                 5.1614
 Frc consts  --      1.3578                 1.8458                 1.4597
 IR Inten    --      0.0592                36.0571                 0.0002

                     19                     20                     21
                      A                      A                      A
 Frequencies --    698.8473               722.1787               773.0560
 Red. masses --      8.6308                 2.7779                 8.3808
 Frc consts  --      2.4835                 0.8536                 2.9509
 IR Inten    --      0.1370                60.3746                69.1122

                     22                     23                     24
                      A                      A                      A
 Frequencies --    780.8186               807.0299               824.8799
 Red. masses --      6.7228                 1.7150                10.7861
 Frc consts  --      2.4149                 0.6581                 4.3241
 IR Inten    --      0.0002                21.3700                21.8650

                     25                     26                     27
                      A                      A                      A
 Frequencies --    854.6383               916.1756              1003.5054
 Red. masses --      7.4125                 1.3515                 1.3795
 Frc consts  --      3.1899                 0.6684                 0.8185
 IR Inten    --     14.6050                 0.0000                 1.7059

                     28                     29                     30
                      A                      A                      A
 Frequencies --   1021.3600              1042.1488              1086.7905
 Red. masses --      1.3326                 3.9160                 2.4871
 Frc consts  --      0.8191                 2.5058                 1.7308
 IR Inten    --      0.0000                17.9482                17.5567

                     31                     32                     33
                      A                      A                      A
 Frequencies --   1094.7052              1129.1282              1185.4015
 Red. masses --      6.6249                 2.0999                 1.1215
 Frc consts  --      4.6776                 1.5774                 0.9285
 IR Inten    --     93.5940               105.8263                 7.1930

                     34                     35                     36
                      A                      A                      A
 Frequencies --   1240.2491              1269.0569              1301.5496
 Red. masses --      2.3882                 5.0847                 1.9642
 Frc consts  --      2.1644                 4.8248                 1.9605
 IR Inten    --     27.8127               387.2506                 4.0720

                     37                     38                     39
                      A                      A                      A
 Frequencies --   1361.3329              1480.7657              1508.0637
 Red. masses --      7.6153                 2.3170                 2.6007
 Frc consts  --      8.3151                 2.9933                 3.4849
 IR Inten    --      2.1076                 0.7606                 6.4267

                     40                     41                     42
                      A                      A                      A
 Frequencies --   1573.8207              1623.7986              1627.1666
 Red. masses --     10.4313                 7.2871                 5.7431
 Frc consts  --     15.2229                11.3206                 8.9590
 IR Inten    --    168.9659                14.2318                52.1590

                     43                     44                     45
                      A                      A                      A
 Frequencies --   1733.3172              1739.6234              3174.4074
 Red. masses --     13.0608                12.7805                 1.0873
 Frc consts  --     23.1194                22.7881                 6.4553
 IR Inten    --      1.3240               360.8275                 2.8729

                     46                     47                     48
                      A                      A                      A
 Frequencies --   3188.2558              3202.9938              3205.5152
 Red. masses --      1.0919                 1.0927                 1.0952
 Frc consts  --      6.5396                 6.6050                 6.6305
 IR Inten    --      7.0533                 0.0055                 8.7790

 - Thermochemistry -
 -------------------
 Temperature   298.150 Kelvin.  Pressure   1.00000 Atm.
 Atom     1 has atomic number  6 and mass  12.00000

 Molecular mass:   313.85780 amu.
 Principal axes and moments of inertia in atomic units:
                           1         2         3
     Eigenvalues --  3011.605875819.357118830.96106
           X            0.83571  -0.15055   0.52813
           Y           -0.28687   0.70037   0.65359
           Z           -0.46829  -0.69772   0.54212
 This molecule is an asymmetric top.
 Rotational symmetry number  1.
 Warning -- assumption of classical behavior for rotation
           may cause significant error
 Rotational temperatures (Kelvin)      0.02876     0.01488     0.00981
 Rotational constants (GHZ):           0.59926     0.31013     0.20437
 Zero-point vibrational energy     292937.7 (Joules/Mol)
                                   70.01380 (Kcal/Mol)
 Warning -- explicit consideration of  16 degrees of freedom as
           vibrations may cause significant error
 Vibrational temperatures:     54.18    70.94   164.35   193.05   225.57
          (Kelvin)            240.97   353.43   366.78   376.07   453.98
                              562.97   593.80   617.24   681.26   727.37
                              756.58   916.45   996.81  1005.49  1039.05
                             1112.26  1123.42  1161.14  1186.82  1229.63
                             1318.17  1443.82  1469.51  1499.42  1563.65
                             1575.04  1624.56  1705.53  1784.44  1825.89
                             1872.64  1958.65  2130.49  2169.77  2264.38
                             2336.28  2341.13  2493.86  2502.93  4567.26
                             4587.19  4608.39  4612.02

 Zero-point correction=                           0.111574 (Hartree/Particle)
 Thermal correction to Energy=                    0.123310
 Thermal correction to Enthalpy=                  0.124254
 Thermal correction to Gibbs Free Energy=         0.070961
 Sum of electronic and zero-point Energies=          -5682.221673
 Sum of electronic and thermal Energies=             -5682.209938
 Sum of electronic and thermal Enthalpies=           -5682.208994
 Sum of electronic and thermal Free Energies=        -5682.262286

                     E (Thermal)             CV                S
                      KCal/Mol        Cal/Mol-Kelvin    Cal/Mol-Kelvin
 Total                   77.378             42.724            112.164
 Electronic               0.000              0.000              0.000
 Translational            0.889              2.981             43.127
 Rotational               0.889              2.981             33.403
 Vibrational             75.601             36.763             35.633
 Vibration     1          0.594              1.982              5.379
 Vibration     2          0.595              1.978              4.845
 Vibration     3          0.607              1.938              3.196
 Vibration     4          0.613              1.919              2.885
 Vibration     5          0.620              1.895              2.588
 Vibration     6          0.624              1.882              2.464
 Vibration     7          0.660              1.770              1.762
 Vibration     8          0.665              1.754              1.696
 Vibration     9          0.669              1.743              1.653
 Vibration    10          0.703              1.644              1.333
 Vibration    11          0.759              1.489              0.995
 Vibration    12          0.776              1.443              0.917
 Vibration    13          0.790              1.407              0.862
 Vibration    14          0.830              1.309              0.728
 Vibration    15          0.861              1.238              0.644
 Vibration    16          0.881              1.193              0.597

                           ! Non-Optimized Parameters !
 Normal termination of Gaussian 16 at Sun Jan  7 20:28:18 2024.
