 Gaussian 16, Revision A.03,
 Gaussian 16:  ES64L-G16RevA.03 25-Dec-2016

 ----------------------------------------------------------------
 #P UB3LYP/6-311++G(d,p) SCRF=(PCM,Solvent=n,n-DiMethylFormamide)
 ----------------------------------------------------------------

 ------------------
 Radical PCM in DMF
 ------------------
 Symbolic Z-matrix:
 Charge = -1 Multiplicity = 2

                         Standard orientation:
 ---------------------------------------------------------------------
 Center     Atomic      Atomic             Coordinates (Angstroms)
 Number     Number       Type             X           Y           Z
 ---------------------------------------------------------------------
      1          6           0        0.330271   -0.826163   -0.000059
      2          6           0       -0.654130    0.250154   -0.000006
      3          6           0       -0.361070    1.582417    0.000041
      4          6           0        1.010591    2.054362    0.000037
      5          6           0        2.024811    1.019969   -0.000035
      6          6           0        1.694870   -0.303760   -0.000051
      7          8           0        1.298362    3.280856   -0.000001
      8          1           0       -1.141864    2.332768    0.000094
      9          8           0        0.049162   -2.041064    0.000066
     10         17           0        2.989525   -1.512303    0.000007
     11         35           0       -2.508367   -0.301179   -0.000008
     12          1           0        3.060530    1.337443   -0.000031
 ---------------------------------------------------------------------

 SCF Done:  E(UB3LYP) =  -3414.89496437     A.U. after   20 cycles

 The electronic state is 2-A.
 Alpha  occ. eigenvalues -- -482.82898-101.55392 -62.48174 -56.30200 -56.29836
 Alpha  occ. eigenvalues --  -56.29810 -19.09584 -19.09166 -10.24900 -10.23812
 Alpha  occ. eigenvalues --  -10.23696 -10.23112 -10.18212 -10.18130  -9.46835
 Alpha  occ. eigenvalues --   -8.69132  -7.23271  -7.22352  -7.22283  -6.52237
 Alpha  occ. eigenvalues --   -6.51023  -6.50950  -2.63336  -2.63000  -2.62946
 Alpha  occ. eigenvalues --   -2.61980  -2.61979  -1.02601  -1.01364  -0.87883
 Alpha  occ. eigenvalues --   -0.84273  -0.78838  -0.73134  -0.69807  -0.60081
 Alpha  occ. eigenvalues --   -0.58100  -0.50365  -0.48663  -0.45174  -0.43595
 Alpha  occ. eigenvalues --   -0.42773  -0.42154  -0.40049  -0.39366  -0.37788
 Alpha  occ. eigenvalues --   -0.35678  -0.32765  -0.31827  -0.29325  -0.28327
 Alpha  occ. eigenvalues --   -0.26358  -0.25532  -0.25395  -0.17832
 Alpha virt. eigenvalues --   -0.02738  -0.02222   0.00190   0.01457   0.01566
 Alpha virt. eigenvalues --    0.01791   0.02448   0.04264   0.04513   0.05471
 Alpha virt. eigenvalues --    0.06351   0.06869   0.07734   0.08156   0.08325

  Beta  occ. eigenvalues -- -482.82898-101.55390 -62.48174 -56.30201 -56.29833
  Beta  occ. eigenvalues --  -56.29810 -19.08897 -19.08435 -10.24760 -10.23712
  Beta  occ. eigenvalues --  -10.23593 -10.23014 -10.18075 -10.18006  -9.46833
  Beta  occ. eigenvalues --   -8.69132  -7.23276  -7.22339  -7.22283  -6.52240
  Beta  occ. eigenvalues --   -6.51018  -6.50950  -2.63338  -2.62999  -2.62948
  Beta  occ. eigenvalues --   -2.61977  -2.61977  -1.01424  -1.00089  -0.87578
  Beta  occ. eigenvalues --   -0.83967  -0.78585  -0.72895  -0.68767  -0.59664
  Beta  occ. eigenvalues --   -0.57668  -0.50141  -0.48226  -0.44869  -0.42480
  Beta  occ. eigenvalues --   -0.41894  -0.41650  -0.39598  -0.37587  -0.36582
  Beta  occ. eigenvalues --   -0.35164  -0.31784  -0.31430  -0.29282  -0.25827
  Beta  occ. eigenvalues --   -0.25713  -0.24881  -0.24745
  Beta virt. eigenvalues --   -0.10604  -0.02092  -0.01277   0.00223   0.01598
  Beta virt. eigenvalues --    0.01823   0.02500   0.03698   0.04550   0.04556
  Beta virt. eigenvalues --    0.05519   0.06393   0.06981   0.07748   0.08193

 Mulliken charges and spin densities:
               1          2
     1  C   -1.462060   0.038340
     2  C    0.663628   0.098116
     3  C   -0.034496   0.085474
     4  C   -0.598604   0.117457
     5  C   -0.447506   0.079588
     6  C    1.240454   0.084334
     7  O   -0.473969   0.255218
     8  H    0.239497  -0.008442
     9  O   -0.372981   0.251150
    10  Cl   0.204814   0.002141
    11  Br  -0.159630   0.003899
    12  H    0.200854  -0.007274
 Sum of Mulliken charges =  -1.00000   1.00000

 Dipole moment (field-independent basis, Debye):
    X=             -2.6252    Y=             -0.8319    Z=             -0.0001  Tot=              2.7539
 Quadrupole moment (field-independent basis, Debye-Ang):
   XX=            -89.2938   YY=           -117.1899   ZZ=            -79.9313
   XY=             -7.4470   XZ=              0.0000   YZ=              0.0006

 Normal termination of Gaussian 16 at Sun Jan 21 07:06:38 2024.
