 Gaussian 16, Revision A.03,
 Gaussian 16:  ES64L-G16RevA.03 25-Dec-2016

 --------------------------------------
 #P UB3LYP/6-311++G(d,p) nosym opt freq
 --------------------------------------

 -------
 Reduced
 -------
 Symbolic Z-matrix:
 Charge = -2 Multiplicity = 1

 SCF Done:  E(UB3LYP) =  -538.809945432     A.U. after   50 cycles
 SCF Done:  E(UB3LYP) =  -538.830474643     A.U. after   35 cycles
 SCF Done:  E(UB3LYP) =  -538.833977693     A.U. after   36 cycles
 SCF Done:  E(UB3LYP) =  -538.833945615     A.U. after   33 cycles
 SCF Done:  E(UB3LYP) =  -538.834503286     A.U. after   25 cycles
 SCF Done:  E(UB3LYP) =  -538.834528152     A.U. after   30 cycles
 SCF Done:  E(UB3LYP) =  -538.834537893     A.U. after   29 cycles
 SCF Done:  E(UB3LYP) =  -538.834548164     A.U. after   31 cycles
 SCF Done:  E(UB3LYP) =  -538.834563640     A.U. after   31 cycles
 SCF Done:  E(UB3LYP) =  -538.834710099     A.U. after   33 cycles
 SCF Done:  E(UB3LYP) =  -538.834184439     A.U. after   29 cycles
 SCF Done:  E(UB3LYP) =  -538.835442478     A.U. after   30 cycles
 SCF Done:  E(UB3LYP) =  -538.835557090     A.U. after   29 cycles
 SCF Done:  E(UB3LYP) =  -538.835557471     A.U. after   31 cycles
 SCF Done:  E(UB3LYP) =  -538.835623232     A.U. after   27 cycles
 SCF Done:  E(UB3LYP) =  -538.835633111     A.U. after   29 cycles
 SCF Done:  E(UB3LYP) =  -538.835638046     A.U. after   30 cycles
 SCF Done:  E(UB3LYP) =  -538.835645395     A.U. after   25 cycles
 SCF Done:  E(UB3LYP) =  -538.835646888     A.U. after   27 cycles
 Optimization completed.
    -- Stationary point found.
 Normal termination of Gaussian 16 at Sun Dec 17 23:03:34 2023.

 ----------------------------------------------------------------------
 #P Geom=AllCheck Guess=TCheck SCRF=Check GenChk UB3LYP/6-311++G(d,p) F
 req
 ----------------------------------------------------------------------

 Structure from the checkpoint file:  "053-an.chk"
 -------
 Reduced
 -------
 Charge = -2 Multiplicity = 1

                          Input orientation:
 ---------------------------------------------------------------------
 Center     Atomic      Atomic             Coordinates (Angstroms)
 Number     Number       Type             X           Y           Z
 ---------------------------------------------------------------------
      1          6           0        0.256367    1.487196   -0.780033
      2          6           0       -0.932592    0.676178   -0.777955
      3          6           0       -0.887451   -0.724369   -0.866300
      4          6           0        0.352039   -1.452985   -0.930404
      5          6           0        1.540989   -0.641970   -0.932526
      6          6           0        1.495846    0.758581   -0.844183
      7          8           0        0.212765    2.791411   -0.753588
      8          8           0        0.395654   -2.757204   -0.956598
      9          6           0        2.767982    1.575479   -0.856338
     10          6           0        2.864222   -1.370859   -0.990907
     11          6           0       -2.255832    1.405067   -0.719563
     12          6           0       -2.159578   -1.541269   -0.854144
     13          1           0        3.522757    1.188337   -0.159093
     14          1           0        2.518202    2.606490   -0.593480
     15          1           0        3.252592    1.598573   -1.852838
     16          1           0        2.670921   -2.416696   -1.242620
     17          1           0        3.402167   -1.360335   -0.021870
     18          1           0        3.552612   -0.934169   -1.726470
     19          1           0       -2.062460    2.451017   -0.468376
     20          1           0       -2.943997    0.968724    0.016427
     21          1           0       -2.794069    1.394038   -1.688424
     22          1           0       -2.914609   -1.153722   -1.550878
     23          1           0       -2.643806   -1.564946    0.142535
     24          1           0       -1.909919   -2.572147   -1.117633
 ---------------------------------------------------------------------

 SCF Done:  E(UB3LYP) =  -538.835646888     A.U. after    3 cycles

 Alpha  occ. eigenvalues --  -18.74769 -18.74768  -9.90219  -9.90217  -9.89530
 Alpha  occ. eigenvalues --   -9.89530  -9.89529  -9.89529  -9.86803  -9.86800
 Alpha  occ. eigenvalues --   -9.86751  -9.86751  -0.65876  -0.65458  -0.53117
 Alpha  occ. eigenvalues --   -0.50647  -0.44838  -0.44837  -0.42040  -0.35090
 Alpha  occ. eigenvalues --   -0.34709  -0.25882  -0.24700  -0.21042  -0.16271
 Alpha  occ. eigenvalues --   -0.16012  -0.15439  -0.13503  -0.13081  -0.12982
 Alpha  occ. eigenvalues --   -0.12883  -0.11888  -0.11311  -0.09663  -0.08575
 Alpha  occ. eigenvalues --   -0.08111  -0.06317  -0.04545  -0.04079  -0.03242
 Alpha  occ. eigenvalues --    0.05204   0.06552   0.06983   0.07958   0.15478
 Alpha virt. eigenvalues --    0.17744   0.17799   0.19389   0.19804   0.20521
 Alpha virt. eigenvalues --    0.20801   0.22374   0.22920   0.23024   0.23281
 Alpha virt. eigenvalues --    0.24430   0.25871   0.26136   0.26652   0.28118

  Beta  occ. eigenvalues --  -18.74769 -18.74768  -9.90219  -9.90217  -9.89530
  Beta  occ. eigenvalues --   -9.89530  -9.89529  -9.89529  -9.86803  -9.86800
  Beta  occ. eigenvalues --   -9.86751  -9.86751  -0.65876  -0.65458  -0.53117
  Beta  occ. eigenvalues --   -0.50647  -0.44838  -0.44837  -0.42040  -0.35090
  Beta  occ. eigenvalues --   -0.34709  -0.25882  -0.24700  -0.21042  -0.16271
  Beta  occ. eigenvalues --   -0.16012  -0.15439  -0.13503  -0.13081  -0.12982
  Beta  occ. eigenvalues --   -0.12883  -0.11888  -0.11311  -0.09663  -0.08575
  Beta  occ. eigenvalues --   -0.08111  -0.06317  -0.04545  -0.04079  -0.03242
  Beta  occ. eigenvalues --    0.05204   0.06552   0.06983   0.07958   0.15478
  Beta virt. eigenvalues --    0.17744   0.17799   0.19389   0.19804   0.20521
  Beta virt. eigenvalues --    0.20801   0.22374   0.22920   0.23024   0.23281
  Beta virt. eigenvalues --    0.24430   0.25871   0.26136   0.26652   0.28118

 Mulliken charges and spin densities:
               1          2
     1  C   -1.509098  -0.000000
     2  C    0.626853  -0.000000
     3  C    0.627033  -0.000000
     4  C   -1.508752   0.000000
     5  C    0.626473  -0.000000
     6  C    0.627507   0.000000
     7  O   -0.550378   0.000000
     8  O   -0.550380   0.000000
     9  C   -0.218669   0.000000
    10  C   -0.218099  -0.000000
    11  C   -0.217993   0.000000
    12  C   -0.218472   0.000000
    13  H    0.056834  -0.000000
    14  H    0.154259  -0.000000
    15  H   -0.089993  -0.000000
    16  H    0.154305  -0.000000
    17  H   -0.090105  -0.000000
    18  H    0.056740  -0.000000
    19  H    0.154262  -0.000000
    20  H    0.056770  -0.000000
    21  H   -0.090067  -0.000000
    22  H    0.056752  -0.000000
    23  H   -0.090084  -0.000000
    24  H    0.154299  -0.000000
 Sum of Mulliken charges =  -2.00000   0.00000

 Dipole moment (field-independent basis, Debye):
    X=             -2.9219    Y=             -0.1640    Z=              8.2148  Tot=              8.7205
 Quadrupole moment (field-independent basis, Debye-Ang):
   XX=           -121.1318   YY=           -145.7892   ZZ=            -96.1949
   XY=              0.8735   XZ=              3.2772   YZ=              2.0922

  Exact polarizability:4501.449 127.142 586.528-101.773-240.334 438.108
 Approx polarizability:1396.178  27.449 500.025 -24.955-107.600 347.947

                      1                      2                      3
                      A                      A                      A
 Frequencies --     77.6681                83.6015                98.7337
 Red. masses --      1.1212                 1.1404                 5.1204
 Frc consts  --      0.0040                 0.0047                 0.0294
 IR Inten    --    332.5041                 0.0006                 7.9636

                      4                      5                      6
                      A                      A                      A
 Frequencies --    113.7298               120.8769               122.2906
 Red. masses --      1.0669                 1.0233                 2.2420
 Frc consts  --      0.0081                 0.0088                 0.0198
 IR Inten    --      7.5034                 0.0125                71.9219

                      7                      8                      9
                      A                      A                      A
 Frequencies --    155.7356               192.2964               295.9636
 Red. masses --      2.7067                 3.6193                 2.6404
 Frc consts  --      0.0387                 0.0789                 0.1363
 IR Inten    --      0.0000                 2.5431                 6.9752

                     10                     11                     12
                      A                      A                      A
 Frequencies --    307.5266               309.4762               313.6013
 Red. masses --      2.3728                 3.5666                 2.4363
 Frc consts  --      0.1322                 0.2013                 0.1412
 IR Inten    --      0.0000                 0.0099               538.7802

                     13                     14                     15
                      A                      A                      A
 Frequencies --    348.7002               355.5538               385.2873
 Red. masses --      4.2467                 6.8540                 9.1735
 Frc consts  --      0.3042                 0.5105                 0.8023
 IR Inten    --      0.0001                 0.0000               671.7786

                     16                     17                     18
                      A                      A                      A
 Frequencies --    428.5956               441.9614               514.5369
 Red. masses --      7.2553                 4.8499                 4.0930
 Frc consts  --      0.7852                 0.5581                 0.6384
 IR Inten    --      0.0000                 0.0000               157.4349

                     19                     20                     21
                      A                      A                      A
 Frequencies --    549.8915               606.9293               670.4876
 Red. masses --      5.4494                 4.6541                 3.0340
 Frc consts  --      0.9709                 1.0101                 0.8036
 IR Inten    --      0.0000                 2.7448                 0.0000

                     22                     23                     24
                      A                      A                      A
 Frequencies --    712.5318               755.3676               849.4757
 Red. masses --      6.5058                 6.2962                 2.2067
 Frc consts  --      1.9461                 2.1166                 0.9382
 IR Inten    --      6.5384                 0.0000                37.6025

                     25                     26                     27
                      A                      A                      A
 Frequencies --    864.2341               976.0477               991.7918
 Red. masses --      3.1880                 1.4070                 1.8401
 Frc consts  --      1.4029                 0.7897                 1.0664
 IR Inten    --    141.3785                 0.0000               867.8933

                     28                     29                     30
                      A                      A                      A
 Frequencies --   1015.0195              1020.0576              1030.5243
 Red. masses --      2.2363                 1.4213                 1.7629
 Frc consts  --      1.3574                 0.8714                 1.1031
 IR Inten    --      0.0005                35.3961                 0.0003

                     31                     32                     33
                      A                      A                      A
 Frequencies --   1033.5028              1038.0191              1088.3131
 Red. masses --      1.4667                 1.4622                 2.2924
 Frc consts  --      0.9231                 0.9282                 1.5997
 IR Inten    --      0.0000                50.8298                 0.0000

                     34                     35                     36
                      A                      A                      A
 Frequencies --   1096.0816              1150.6867              1206.6383
 Red. masses --      2.7910                 5.0992                 5.1419
 Frc consts  --      1.9756                 3.9780                 4.4109
 IR Inten    --    104.8838                 0.0000                 3.4434

                     37                     38                     39
                      A                      A                      A
 Frequencies --   1289.8766              1296.0296              1339.0190
 Red. masses --      2.7833                 5.1033                 2.0213
 Frc consts  --      2.7284                 5.0505                 2.1353
 IR Inten    --      4.3936                 0.0001               268.4082

                     40                     41                     42
                      A                      A                      A
 Frequencies --   1346.7105              1355.1737              1380.4043
 Red. masses --      1.2498                 1.2787                 1.4457
 Frc consts  --      1.3355                 1.3836                 1.6231
 IR Inten    --      0.0068              2020.9273                 0.0000

                     43                     44                     45
                      A                      A                      A
 Frequencies --   1420.9599              1434.0082              1437.2062
 Red. masses --      4.1853                 1.5660                 4.3448
 Frc consts  --      4.9790                 1.8974                 5.2876
 IR Inten    --    631.4154                 0.0005               629.8584

                     46                     47                     48
                      A                      A                      A
 Frequencies --   1463.6323              1465.8390              1467.7932
 Red. masses --      1.0751                 1.0867                 1.1086
 Frc consts  --      1.3569                 1.3757                 1.4071
 IR Inten    --    122.9849              3739.9806                 0.0001

                     49                     50                     51
                      A                      A                      A
 Frequencies --   1480.5136              1486.5020              1492.6428
 Red. masses --      1.0869                 1.1463                 1.3250
 Frc consts  --      1.4036                 1.4924                 1.7393
 IR Inten    --      0.0002               326.0533                 0.0029

                     52                     53                     54
                      A                      A                      A
 Frequencies --   1497.5826              1501.9677              1537.2309
 Red. masses --      1.0566                 1.6169                 5.4774
 Frc consts  --      1.3962                 2.1491                 7.6261
 IR Inten    --     13.8669                 0.0005                 0.0001

                     55                     56                     57
                      A                      A                      A
 Frequencies --   2847.1277              2865.4302              2867.9831
 Red. masses --      1.0785                 1.0671                 1.0670
 Frc consts  --      5.1510                 5.1621                 5.1709
 IR Inten    --  32259.6101              1924.9150                 0.0930

                     58                     59                     60
                      A                      A                      A
 Frequencies --   2875.3934              2955.8503              2973.1699
 Red. masses --      1.0674                 1.0564                 1.0686
 Frc consts  --      5.1996                 5.4379                 5.5655
 IR Inten    --      0.0201             18360.2875                 0.0041

                     61                     62                     63
                      A                      A                      A
 Frequencies --   2980.0026              2980.2153              3072.2529
 Red. masses --      1.0695                 1.0695                 1.0929
 Frc consts  --      5.5958                 5.5965                 6.0778
 IR Inten    --      0.0568                74.0764                26.8146

                     64                     65                     66
                      A                      A                      A
 Frequencies --   3072.4358              3072.6746              3073.1262
 Red. masses --      1.0925                 1.0924                 1.0933
 Frc consts  --      6.0760                 6.0767                 6.0833
 IR Inten    --      0.0042                46.8757                 0.0002

 - Thermochemistry -
 -------------------
 Temperature   298.150 Kelvin.  Pressure   1.00000 Atm.
 Atom     1 has atomic number  6 and mass  12.00000

 Molecular mass:   164.08373 amu.
 Principal axes and moments of inertia in atomic units:
                           1         2         3
     Eigenvalues --  1686.079071717.447733358.77452
           X            0.99909  -0.03171   0.02857
           Y            0.03286   0.99863  -0.04063
           Z           -0.02724   0.04154   0.99877
 This molecule is an asymmetric top.
 Rotational symmetry number  1.
 Warning -- assumption of classical behavior for rotation
           may cause significant error
 Rotational temperatures (Kelvin)      0.05137     0.05043     0.02579
 Rotational constants (GHZ):           1.07038     1.05083     0.53732
 Zero-point vibrational energy     494359.7 (Joules/Mol)
                                  118.15481 (Kcal/Mol)
 Warning -- explicit consideration of  20 degrees of freedom as
           vibrations may cause significant error
 Vibrational temperatures:    111.75   120.28   142.06   163.63   173.91
          (Kelvin)            175.95   224.07   276.67   425.83   442.46
                              445.27   451.20   501.70   511.56   554.34
                              616.65   635.88   740.30   791.17   873.24
                              964.68  1025.17  1086.81  1222.21  1243.44
                             1404.31  1426.97  1460.39  1467.64  1482.69
                             1486.98  1493.48  1565.84  1577.02  1655.58
                             1736.08  1855.84  1864.70  1926.55  1937.62
                             1949.79  1986.09  2044.44  2063.22  2067.82
                             2105.84  2109.02  2111.83  2130.13  2138.74
                             2147.58  2154.69  2161.00  2211.73  4096.38
                             4122.71  4126.39  4137.05  4252.81  4277.73
                             4287.56  4287.87  4420.29  4420.55  4420.89
                             4421.54

 Zero-point correction=                           0.188292 (Hartree/Particle)
 Thermal correction to Energy=                    0.201422
 Thermal correction to Enthalpy=                  0.202366
 Thermal correction to Gibbs Free Energy=         0.149275
 Sum of electronic and zero-point Energies=           -538.647355
 Sum of electronic and thermal Energies=              -538.634225
 Sum of electronic and thermal Enthalpies=            -538.633281
 Sum of electronic and thermal Free Energies=         -538.686372

                     E (Thermal)             CV                S
                      KCal/Mol        Cal/Mol-Kelvin    Cal/Mol-Kelvin
 Total                  126.394             47.709            111.740
 Electronic               0.000              0.000              0.000
 Translational            0.889              2.981             41.194
 Rotational               0.889              2.981             30.654
 Vibrational            124.616             41.748             39.892
 Vibration     1          0.599              1.964              3.949
 Vibration     2          0.600              1.960              3.804
 Vibration     3          0.604              1.950              3.479
 Vibration     4          0.607              1.938              3.204
 Vibration     5          0.609              1.932              3.086
 Vibration     6          0.610              1.931              3.064
 Vibration     7          0.620              1.896              2.601
 Vibration     8          0.634              1.851              2.206
 Vibration     9          0.690              1.681              1.440
 Vibration    10          0.697              1.659              1.376
 Vibration    11          0.699              1.656              1.365
 Vibration    12          0.701              1.648              1.343
 Vibration    13          0.726              1.578              1.172
 Vibration    14          0.731              1.564              1.141
 Vibration    15          0.754              1.502              1.018
 Vibration    16          0.790              1.408              0.863
 Vibration    17          0.802              1.379              0.820
 Vibration    18          0.870              1.218              0.623
 Vibration    19          0.905              1.140              0.544
 Vibration    20          0.966              1.017              0.438

 Optimization completed.
    -- Stationary point found.
 Normal termination of Gaussian 16 at Sun Dec 17 23:22:07 2023.
