 Gaussian 16, Revision A.03,
 Gaussian 16:  ES64L-G16RevA.03 25-Dec-2016

 ----------------------------------------------------------------
 #P UB3LYP/6-311++G(d,p) SCRF=(PCM,Solvent=n,n-DiMethylFormamide)
 ----------------------------------------------------------------

 ------------------
 Radical PCM in DMF
 ------------------
 Symbolic Z-matrix:
 Charge = -1 Multiplicity = 2

                         Standard orientation:
 ---------------------------------------------------------------------
 Center     Atomic      Atomic             Coordinates (Angstroms)
 Number     Number       Type             X           Y           Z
 ---------------------------------------------------------------------
      1          6           0        2.043554   -1.528110    0.025870
      2          6           0        0.645456   -1.413843    0.358066
      3          6           0       -0.020351   -0.215473    0.453185
      4          6           0        0.676200    1.039277    0.206118
      5          6           0        2.094645    0.938470   -0.142366
      6          6           0        2.745603   -0.273095   -0.226865
      7          6           0        4.208623   -0.360785   -0.583516
      8          6           0        2.821969    2.234475   -0.405822
      9          8           0        2.617932   -2.654858   -0.043152
     10          8           0        0.095664    2.160390    0.286075
     11          1           0        0.122868   -2.350322    0.537878
     12          1           0        4.834599    0.184883    0.133742
     13          1           0        4.411871    0.072246   -1.571082
     14          1           0        4.515125   -1.407363   -0.590624
     15          1           0        2.129770    3.068287   -0.287059
     16          1           0        3.239336    2.264776   -1.420204
     17          1           0        3.663615    2.374000    0.284401
     18          6           0       -1.479539   -0.229468    0.830440
     19          6           0       -1.870151    0.646487    2.017825
     20          8           0       -2.259000    0.208765   -0.354856
     21          6           0       -3.471490   -0.301470   -0.548042
     22          6           0       -4.065761    0.213172   -1.843668
     23          8           0       -4.035446   -1.087277    0.187747
     24          1           0       -1.783876   -1.259194    1.022561
     25          1           0       -2.936168    0.537213    2.235473
     26          1           0       -1.624638    1.685881    1.805194
     27          1           0       -1.304895    0.324256    2.897499
     28          1           0       -3.879671    1.282696   -1.952394
     29          1           0       -5.134085    0.001736   -1.866798
     30          1           0       -3.579597   -0.293069   -2.682449
 ---------------------------------------------------------------------

 SCF Done:  E(UB3LYP) =  -766.978513756     A.U. after   19 cycles

 The electronic state is 2-A.
 Alpha  occ. eigenvalues --  -19.16500 -19.11398 -19.07351 -19.07205 -10.30612
 Alpha  occ. eigenvalues --  -10.23268 -10.21724 -10.21429 -10.17492 -10.16936
 Alpha  occ. eigenvalues --  -10.16566 -10.16497 -10.16045 -10.15501 -10.15210
 Alpha  occ. eigenvalues --  -10.15142  -1.10702  -1.02236  -0.99616  -0.99345
 Alpha  occ. eigenvalues --   -0.83160  -0.80168  -0.75837  -0.73153  -0.72114
 Alpha  occ. eigenvalues --   -0.67070  -0.66101  -0.63158  -0.57142  -0.56568
 Alpha  occ. eigenvalues --   -0.53360  -0.50000  -0.48581  -0.48076  -0.47507
 Alpha  occ. eigenvalues --   -0.44923  -0.43702  -0.43108  -0.42057  -0.41179
 Alpha  occ. eigenvalues --   -0.41043  -0.39839  -0.39379  -0.39150  -0.38677
 Alpha  occ. eigenvalues --   -0.38368  -0.38122  -0.37431  -0.36535  -0.36089
 Alpha  occ. eigenvalues --   -0.34771  -0.34296  -0.33778  -0.30838  -0.28587
 Alpha  occ. eigenvalues --   -0.27515  -0.24103  -0.23957  -0.23102  -0.15830
 Alpha virt. eigenvalues --   -0.00876  -0.00604   0.00119   0.00212   0.01249
 Alpha virt. eigenvalues --    0.01513   0.02556   0.02759   0.03015   0.03585
 Alpha virt. eigenvalues --    0.03830   0.04621   0.04926   0.05103   0.05517

  Beta  occ. eigenvalues --  -19.16489 -19.11397 -19.06653 -19.06531 -10.30611
  Beta  occ. eigenvalues --  -10.23275 -10.21580 -10.21281 -10.17491 -10.16801
  Beta  occ. eigenvalues --  -10.16484 -10.16421 -10.15901 -10.15497 -10.15217
  Beta  occ. eigenvalues --  -10.15150  -1.10689  -1.02219  -0.98438  -0.98112
  Beta  occ. eigenvalues --   -0.82653  -0.80029  -0.75663  -0.73077  -0.71837
  Beta  occ. eigenvalues --   -0.66832  -0.65489  -0.62888  -0.56980  -0.56211
  Beta  occ. eigenvalues --   -0.53108  -0.49948  -0.48472  -0.47893  -0.47478
  Beta  occ. eigenvalues --   -0.44651  -0.43400  -0.42611  -0.41948  -0.41010
  Beta  occ. eigenvalues --   -0.40832  -0.39629  -0.38961  -0.38873  -0.38485
  Beta  occ. eigenvalues --   -0.38079  -0.37710  -0.36441  -0.36327  -0.34626
  Beta  occ. eigenvalues --   -0.34143  -0.33700  -0.33537  -0.30804  -0.28512
  Beta  occ. eigenvalues --   -0.24599  -0.23468  -0.22964  -0.22499
  Beta virt. eigenvalues --   -0.08626  -0.00589  -0.00146   0.00220   0.00773
  Beta virt. eigenvalues --    0.01288   0.01558   0.02597   0.03033   0.03305
  Beta virt. eigenvalues --    0.03820   0.04491   0.04762   0.05052   0.05427

 Mulliken charges and spin densities:
               1          2
     1  C   -0.759388   0.107820
     2  C   -0.324122   0.073496
     3  C    1.107142   0.097214
     4  C   -0.765527   0.085951
     5  C    0.330190   0.052553
     6  C    0.657525   0.082264
     7  C   -0.423730   0.008443
     8  C   -0.560057  -0.009398
     9  O   -0.501596   0.247407
    10  O   -0.461159   0.246641
    11  H    0.174625  -0.010475
    12  H    0.151059   0.002389
    13  H    0.151222   0.002414
    14  H    0.181327  -0.001892
    15  H    0.182922  -0.001290
    16  H    0.148253   0.002782
    17  H    0.150090   0.002912
    18  C   -0.587612  -0.001413
    19  C   -0.571356   0.009300
    20  O    0.111329   0.001479
    21  C    0.298685   0.001733
    22  C   -0.575886   0.000610
    23  O   -0.362057   0.000371
    24  H    0.206669  -0.000870
    25  H    0.162182   0.000729
    26  H    0.202025  -0.001700
    27  H    0.141113   0.000515
    28  H    0.174824  -0.000051
    29  H    0.169903   0.000087
    30  H    0.191404  -0.000021
 Sum of Mulliken charges =  -1.00000   1.00000

 Dipole moment (field-independent basis, Debye):
    X=             -3.2255    Y=              3.4857    Z=             -1.4877  Tot=              4.9766
 Quadrupole moment (field-independent basis, Debye-Ang):
   XX=           -125.2695   YY=           -131.8270   ZZ=            -95.0730
   XY=             10.9640   XZ=              6.3095   YZ=             -0.9673

 Normal termination of Gaussian 16 at Sun Jan 21 07:24:51 2024.
