 Q-Chem 5.4, Q-Chem, Inc., Pleasanton, CA (2021)
 Q-Chem 5.4.0 for Intel X86 EM64T Linux

User input:
--------------------------------------------------------------
$molecule
-2 1
C                 -2.5664980000     -0.6614920000     -0.2165140000
C                 -1.2106610000     -0.0270950000     -0.0366200000
C                 -1.0955330000      1.3357850000      0.2785570000
C                  0.1512760000      2.0158630000      0.4659640000
O                  0.2464610000      3.2840870000      0.7590060000
C                  1.2823020000      1.1531580000      0.2966410000
C                  1.1927480000     -0.2116590000     -0.0184580000
C                  2.4383670000     -1.0459060000     -0.1782800000
C                 -0.0654980000     -0.8727370000     -0.2014020000
O                 -0.1610410000     -2.1460750000     -0.4952450000
H                 -2.7235170000     -1.4906040000      0.4915540000
H                 -3.3691940000      0.0754670000     -0.0771370000
H                 -2.6720920000     -1.1131890000     -1.2154050000
H                 -2.0024180000      1.9351940000      0.3928050000
H                  2.2682430000      1.6071880000      0.4253470000
H                  3.3417560000     -0.4417730000     -0.0177480000
H                  2.4937410000     -1.5032680000     -1.1787550000
H                  2.4515590000     -1.8929410000      0.5256920000
$end
$rem
MAX_SCF_CYCLES=200
BASIS  =  6-311++G(d,p)
GUI  =  2
JOB_TYPE  =  SP
METHOD  =  B3LYP
SOLVENT_METHOD = COSMO
$end
$solvent
dielectric 37.219
opticaldielectric 1.43
$end

--------------------------------------------------------------

             Standard Nuclear Orientation (Angstroms)
    I     Atom           X                Y                Z
 ----------------------------------------------------------------
    1      C       1.1129352051    -2.5098766112    -0.0003227690
    2      C       0.3572034729    -1.2052752104     0.0000080520
    3      C      -1.0463166463    -1.1924624460    -0.0000057149
    4      C      -1.8401742059    -0.0000068661     0.0001254152
    5      O      -3.1452894921     0.0000025571     0.0001673972
    6      C      -1.0463160176     1.1924440382    -0.0000354883
    7      C       0.3572038472     1.2052783623    -0.0001416303
    8      C       1.1129184435     2.5098753367    -0.0002143327
    9      C       1.1324304273    -0.0000014017     0.0001148514
   10      O       2.4427211308     0.0000177767     0.0004430030
   11      H       1.7711054150    -2.5975599566     0.8786343251
   12      H       0.4240487611    -3.3655691130    -0.0093335381
   13      H       1.7838213011    -2.5881536041    -0.8702354435
   14      H      -1.5883005269    -2.1416924395    -0.0002306213
   15      H      -1.5883109441     2.1416698256    -0.0002225101
   16      H       0.4239374437     3.3655409458    -0.0008755625
   17      H       1.7779263362     2.5925107994    -0.8743609952
   18      H       1.7770119473     2.5932396611     0.8745708435
 ----------------------------------------------------------------

   12    -460.1837776081      5.77e-06  Convergence criterion met
 Total energy in the final basis set =     -460.1837776081
    5    -460.4923355707      9.06e-06  Convergence criterion met
 Total energy in the final basis set =     -460.4923355707

                    Orbital Energies (a.u.)
 --------------------------------------------------------------

 Alpha MOs
 -- Occupied --
-19.0192 -19.0144 -10.1672 -10.1587 -10.1378 -10.1378 -10.1277 -10.1277
-10.1163 -10.1163  -0.9267  -0.9206  -0.7819  -0.7393  -0.6849  -0.6368
 -0.6226  -0.5299  -0.5125  -0.4415  -0.4220  -0.3958  -0.3894  -0.3813
 -0.3735  -0.3599  -0.3549  -0.3409  -0.3345  -0.3145  -0.3069  -0.3013
 -0.2238  -0.2012  -0.1998  -0.1925  -0.1188

          Ground-State Mulliken Net Atomic Charges

     Atom                 Charge (a.u.)
  ----------------------------------------
      1 C                    -0.437891
      2 C                     1.175729
      3 C                    -0.581548
      4 C                    -0.299504
      5 O                    -0.807900
      6 C                    -0.582261
      7 C                     1.174516
      8 C                    -0.437810
      9 C                    -1.492348
     10 O                    -0.772696
     11 H                     0.143669
     12 H                     0.134821
     13 H                     0.143681
     14 H                     0.108859
     15 H                     0.108689
     16 H                     0.134774
     17 H                     0.143545
     18 H                     0.143674
  ----------------------------------------
  Sum of atomic charges =    -2.000000

                    Cartesian Multipole Moments
 -----------------------------------------------------------------
    Charge (ESU x 10^10)
                -9.6064
    Dipole Moment (Debye)
         X       4.1332      Y      -0.0022      Z      -0.0008
       Tot       4.1332
    Quadrupole Moments (Debye-Ang)
        XX    -137.0400     XY       0.0063     YY     -70.1242
        XZ      -0.0004     YZ      -0.0033     ZZ     -69.2929

 Total job time:  19.51s(wall), 139.21s(cpu)
        *  Thank you very much for using Q-Chem.  Have a nice day.  *
