 Q-Chem 5.4, Q-Chem, Inc., Pleasanton, CA (2021)
 Q-Chem 5.4.0 for Intel X86 EM64T Linux

User input:
--------------------------------------------------------------
$molecule
-1 2
C                  3.7130260000      2.2247790000     -0.4577410000
O                  2.3683140000      1.8137190000     -0.3760710000
C                  2.0892050000      0.4831960000     -0.2391580000
C                  3.1006510000     -0.4670170000     -0.1792070000
C                  2.7859640000     -1.8340770000     -0.0376500000
C                  1.4756660000     -2.2362420000      0.0422640000
C                  0.4231840000     -1.2937850000     -0.0155060000
C                 -0.9405730000     -1.8197440000      0.0785510000
O                 -1.1683690000     -3.0515540000      0.2049300000
C                 -2.0214020000     -0.8425150000      0.0186520000
C                 -3.3628170000     -1.2795730000      0.1040550000
C                 -4.4094200000     -0.3816910000      0.0506300000
C                 -4.1445930000      0.9979970000     -0.0916660000
C                 -2.8395280000      1.4431250000     -0.1766970000
C                 -1.7531010000      0.5437610000     -0.1242780000
C                 -0.3841370000      1.0875930000     -0.2207860000
O                 -0.2160200000      2.3208220000     -0.3464570000
C                  0.7076650000      0.1052920000     -0.1596420000
H                  4.2243630000      1.7942820000     -1.3294060000
H                  4.2798730000      1.9655930000      0.4467370000
H                  3.6822210000      3.3101350000     -0.5614720000
H                  4.1384420000     -0.1692400000     -0.2401760000
H                  3.5910680000     -2.5617160000      0.0071110000
H                  1.1999150000     -3.2775680000      0.1514190000
H                 -3.5324830000     -2.3446140000      0.2127460000
H                 -5.4348990000     -0.7337640000      0.1176860000
H                 -4.9662860000      1.7071120000     -0.1340690000
H                 -2.6059310000      2.4956910000     -0.2863140000
$end

$rem
BASIS  =  6-311++G(d,p)
GUI  =  2
JOB_TYPE  =  SP
METHOD  =  B3LYP
SCF_CONVERGENCE  = 8
SOLVENT_METHOD = sm12
$end

$smx
solvent dimethylformamide
charges CM5
$end

--------------------------------------------------------------

             Standard Nuclear Orientation (Angstroms)
    I     Atom           X                Y                Z
 ----------------------------------------------------------------
    1      C       3.7130260000     2.2247790000    -0.4577410000
    2      O       2.3683140000     1.8137190000    -0.3760710000
    3      C       2.0892050000     0.4831960000    -0.2391580000
    4      C       3.1006510000    -0.4670170000    -0.1792070000
    5      C       2.7859640000    -1.8340770000    -0.0376500000
    6      C       1.4756660000    -2.2362420000     0.0422640000
    7      C       0.4231840000    -1.2937850000    -0.0155060000
    8      C      -0.9405730000    -1.8197440000     0.0785510000
    9      O      -1.1683690000    -3.0515540000     0.2049300000
   10      C      -2.0214020000    -0.8425150000     0.0186520000
   11      C      -3.3628170000    -1.2795730000     0.1040550000
   12      C      -4.4094200000    -0.3816910000     0.0506300000
   13      C      -4.1445930000     0.9979970000    -0.0916660000
   14      C      -2.8395280000     1.4431250000    -0.1766970000
   15      C      -1.7531010000     0.5437610000    -0.1242780000
   16      C      -0.3841370000     1.0875930000    -0.2207860000
   17      O      -0.2160200000     2.3208220000    -0.3464570000
   18      C       0.7076650000     0.1052920000    -0.1596420000
   19      H       4.2243630000     1.7942820000    -1.3294060000
   20      H       4.2798730000     1.9655930000     0.4467370000
   21      H       3.6822210000     3.3101350000    -0.5614720000
   22      H       4.1384420000    -0.1692400000    -0.2401760000
   23      H       3.5910680000    -2.5617160000     0.0071110000
   24      H       1.1999150000    -3.2775680000     0.1514190000
   25      H      -3.5324830000    -2.3446140000     0.2127460000
   26      H      -5.4348990000    -0.7337640000     0.1176860000
   27      H      -4.9662860000     1.7071120000    -0.1340690000
   28      H      -2.6059310000     2.4956910000    -0.2863140000
 ----------------------------------------------------------------

   18    -803.5548711927      4.78e-09  Convergence criterion met
 Total energy in the final basis set =     -803.6471922996

                    Orbital Energies (a.u.)
 --------------------------------------------------------------

 Alpha MOs
 -- Occupied --
-19.1498 -19.0743 -19.0721 -10.2435 -10.2292 -10.2229 -10.2168 -10.1825
-10.1824 -10.1816 -10.1811 -10.1798 -10.1783 -10.1781 -10.1776 -10.1774
-10.1745 -10.1680  -1.0692  -1.0018  -0.9993  -0.8651  -0.8555  -0.7907
 -0.7620  -0.7566  -0.7464  -0.6991  -0.6711  -0.6399  -0.6251  -0.5883
 -0.5628  -0.5437  -0.5370  -0.4932  -0.4850  -0.4736  -0.4671  -0.4658
 -0.4583  -0.4317  -0.4295  -0.4240  -0.4149  -0.4103  -0.3991  -0.3864
 -0.3809  -0.3768  -0.3660  -0.3545  -0.3476  -0.3422  -0.3320  -0.3208
 -0.2710  -0.2629  -0.2571  -0.2426  -0.2340  -0.2297  -0.1426

 Beta MOs
 -- Occupied --
-19.1499 -19.0682 -19.0664 -10.2437 -10.2283 -10.2212 -10.2168 -10.1821
-10.1817 -10.1810 -10.1807 -10.1788 -10.1780 -10.1779 -10.1771 -10.1767
-10.1736 -10.1679  -1.0692  -0.9919  -0.9887  -0.8626  -0.8542  -0.7867
 -0.7605  -0.7549  -0.7444  -0.6981  -0.6639  -0.6383  -0.6226  -0.5875
 -0.5611  -0.5415  -0.5359  -0.4915  -0.4839  -0.4717  -0.4666  -0.4645
 -0.4574  -0.4314  -0.4281  -0.4136  -0.4127  -0.4047  -0.3971  -0.3844
 -0.3751  -0.3652  -0.3581  -0.3533  -0.3405  -0.3374  -0.3315  -0.3156
 -0.2568  -0.2513  -0.2480  -0.2370  -0.2272  -0.2245

          Ground-State Mulliken Net Atomic Charges

     Atom                 Charge (a.u.)    Spin (a.u.)
  --------------------------------------------------------
      1 C                     0.117785      -0.000491
      2 O                    -0.094472      -0.001476
      3 C                    -0.028833       0.005190
      4 C                     2.246488       0.073673
      5 C                     0.777000       0.036474
      6 C                    -0.274610       0.041430
      7 C                    -1.194729       0.043703
      8 C                    -2.712668       0.089141
      9 O                    -0.302707       0.229194
     10 C                    -1.675421       0.009384
     11 C                    -0.029693       0.040163
     12 C                     1.165717       0.018068
     13 C                     0.945332       0.055446
     14 C                     0.015508       0.011598
     15 C                    -0.448267       0.067149
     16 C                    -1.636800       0.032307
     17 O                    -0.279202       0.219617
     18 C                    -0.206902       0.047616
     19 H                     0.225411       0.000255
     20 H                     0.225164       0.000245
     21 H                     0.272615      -0.000101
     22 H                     0.400593      -0.004539
     23 H                     0.355466      -0.002641
     24 H                     0.111472      -0.002752
     25 H                     0.153883      -0.002480
     26 H                     0.365027      -0.001707
     27 H                     0.354293      -0.004012
     28 H                     0.152551      -0.000452
  --------------------------------------------------------
  Sum of atomic charges =    -1.000000

                    Cartesian Multipole Moments
 -----------------------------------------------------------------
    Charge (ESU x 10^10)
                -4.8032
    Dipole Moment (Debye)
         X       5.3395      Y       2.8172      Z       0.1728
       Tot       6.0396
    Quadrupole Moments (Debye-Ang)
        XX    -104.0722     XY      -1.9189     YY    -137.8925
        XZ      -0.7443     YZ       2.1996     ZZ    -112.3817

 Total job time:  800.90s(wall), 5980.83s(cpu)
        *  Thank you very much for using Q-Chem.  Have a nice day.  *
