 Gaussian 16, Revision A.03,
 Gaussian 16:  ES64L-G16RevA.03 25-Dec-2016

 ----------------------------------------------------------------------
 #P UB3LYP/6-311++G(d,p) nosym opt freq SCRF=(PCM,Solvent=n,n-DiMethylF
 ormamide)
 ----------------------------------------------------------------------

 -------
 Reduced
 -------
 Symbolic Z-matrix:
 Charge = -4 Multiplicity = 1

 SCF Done:  E(UB3LYP) =  -1936.12593587     A.U. after   16 cycles
 SCF Done:  E(UB3LYP) =  -1936.12789297     A.U. after   13 cycles
 SCF Done:  E(UB3LYP) =  -1936.12810238     A.U. after   12 cycles
 SCF Done:  E(UB3LYP) =  -1936.12816193     A.U. after   12 cycles
 SCF Done:  E(UB3LYP) =  -1936.12810665     A.U. after   12 cycles
 SCF Done:  E(UB3LYP) =  -1936.12817374     A.U. after   12 cycles
 SCF Done:  E(UB3LYP) =  -1936.12817295     A.U. after   11 cycles
 SCF Done:  E(UB3LYP) =  -1936.12817445     A.U. after   10 cycles
 SCF Done:  E(UB3LYP) =  -1936.12817433     A.U. after    9 cycles
 SCF Done:  E(UB3LYP) =  -1936.12817451     A.U. after    9 cycles
 SCF Done:  E(UB3LYP) =  -1936.12817456     A.U. after    8 cycles
 Optimization completed.
    -- Stationary point found.
 Normal termination of Gaussian 16 at Sun Feb 11 01:46:54 2024.

 ----------------------------------------------------------------------
 #P Geom=AllCheck Guess=TCheck SCRF=Check GenChk UB3LYP/6-311++G(d,p) F
 req
 ----------------------------------------------------------------------

 Structure from the checkpoint file:  "225-an.chk"
 -------
 Reduced
 -------
 Charge = -4 Multiplicity = 1

                          Input orientation:
 ---------------------------------------------------------------------
 Center     Atomic      Atomic             Coordinates (Angstroms)
 Number     Number       Type             X           Y           Z
 ---------------------------------------------------------------------
      1          8           0        5.880844   -1.554185    1.236699
      2         16           0        5.390936   -0.878184   -0.007597
      3          8           0        6.145860    0.387741   -0.281128
      4          8           0        5.373150   -1.795697   -1.186559
      5          6           0        3.688555   -0.396030    0.314416
      6          6           0        3.411258    0.424998    1.447561
      7          6           0        2.116602    0.811744    1.688150
      8          6           0        1.029410    0.426932    0.850664
      9          6           0       -0.302263    0.868738    1.161896
     10          8           0       -0.568565    1.619494    2.188745
     11          6           0       -1.321963    0.414048    0.251584
     12          6           0       -2.674890    0.787990    0.481810
     13          6           0       -3.690036    0.385745   -0.350529
     14          6           0       -3.410994   -0.425554   -1.490199
     15          6           0       -2.115178   -0.804648   -1.736276
     16          6           0       -1.027859   -0.419179   -0.899222
     17          6           0        0.303897   -0.860520   -1.210791
     18          8           0        0.570519   -1.610109   -2.238437
     19          6           0        1.323007   -0.409088   -0.298198
     20          6           0        2.674402   -0.792076   -0.522035
     21         16           0       -5.392372    0.872421   -0.033412
     22          8           0       -5.824387    1.698232   -1.207440
     23          8           0       -6.181729   -0.397241    0.067974
     24          8           0       -5.397603    1.649810    1.242105
     25          1           0        4.213366    0.734167    2.107971
     26          1           0        1.885683    1.434767    2.544819
     27          1           0       -2.888649    1.404162    1.344886
     28          1           0       -4.214738   -0.740228   -2.145832
     29          1           0       -1.883828   -1.424573   -2.595074
     30          1           0        2.887562   -1.413677   -1.381258
 ---------------------------------------------------------------------

 SCF Done:  E(UB3LYP) =  -1936.12817456     A.U. after    1 cycles

 Alpha  occ. eigenvalues --  -89.02750 -89.02749 -19.07418 -19.07416 -19.07290
 Alpha  occ. eigenvalues --  -19.07288 -19.07284 -19.07282 -19.01809 -19.01808
 Alpha  occ. eigenvalues --  -10.17496 -10.17495 -10.17086 -10.17085 -10.15403
 Alpha  occ. eigenvalues --  -10.15401 -10.15301 -10.15298 -10.14944 -10.14943
 Alpha  occ. eigenvalues --  -10.14033 -10.14032 -10.13867 -10.13866  -8.08665
 Alpha  occ. eigenvalues --   -8.08664  -6.04953  -6.04952  -6.04937  -6.04936
 Alpha  occ. eigenvalues --   -6.04800  -6.04799  -1.08848  -1.08843  -0.95291
 Alpha  occ. eigenvalues --   -0.95287  -0.94957  -0.94955  -0.93284  -0.92863
 Alpha  occ. eigenvalues --   -0.83401  -0.82938  -0.76347  -0.73289  -0.73028
 Alpha  occ. eigenvalues --   -0.71841  -0.64915  -0.64240  -0.60371  -0.59478
 Alpha  occ. eigenvalues --   -0.56043  -0.55128  -0.52718  -0.50662  -0.49671
 Alpha  occ. eigenvalues --   -0.47236  -0.45002  -0.44365  -0.44062  -0.43640
 Alpha  occ. eigenvalues --   -0.43637  -0.43054  -0.42471  -0.40754  -0.40502
 Alpha  occ. eigenvalues --   -0.39746  -0.38289  -0.37523  -0.37430  -0.35820
 Alpha  occ. eigenvalues --   -0.34945  -0.33633  -0.32912  -0.32342  -0.32136
 Alpha  occ. eigenvalues --   -0.31760  -0.31721  -0.31717  -0.31371  -0.30210
 Alpha  occ. eigenvalues --   -0.28201  -0.27801  -0.27724  -0.27492  -0.27304
 Alpha  occ. eigenvalues --   -0.27291  -0.23881  -0.23880  -0.23815  -0.22760
 Alpha  occ. eigenvalues --   -0.22153  -0.21496  -0.20040  -0.19481  -0.11010
 Alpha virt. eigenvalues --   -0.03077  -0.00744   0.00479   0.01339   0.01694
 Alpha virt. eigenvalues --    0.01984   0.02959   0.03278   0.04843   0.04921
 Alpha virt. eigenvalues --    0.05231   0.05241   0.05305   0.05822   0.06838

  Beta  occ. eigenvalues --  -89.02750 -89.02749 -19.07418 -19.07416 -19.07290
  Beta  occ. eigenvalues --  -19.07288 -19.07284 -19.07282 -19.01809 -19.01808
  Beta  occ. eigenvalues --  -10.17496 -10.17495 -10.17086 -10.17085 -10.15403
  Beta  occ. eigenvalues --  -10.15401 -10.15301 -10.15298 -10.14944 -10.14943
  Beta  occ. eigenvalues --  -10.14033 -10.14032 -10.13867 -10.13866  -8.08665
  Beta  occ. eigenvalues --   -8.08664  -6.04953  -6.04952  -6.04937  -6.04936
  Beta  occ. eigenvalues --   -6.04800  -6.04799  -1.08848  -1.08843  -0.95291
  Beta  occ. eigenvalues --   -0.95287  -0.94957  -0.94955  -0.93284  -0.92863
  Beta  occ. eigenvalues --   -0.83401  -0.82938  -0.76347  -0.73289  -0.73028
  Beta  occ. eigenvalues --   -0.71841  -0.64915  -0.64240  -0.60371  -0.59478
  Beta  occ. eigenvalues --   -0.56043  -0.55128  -0.52718  -0.50662  -0.49671
  Beta  occ. eigenvalues --   -0.47236  -0.45002  -0.44365  -0.44062  -0.43640
  Beta  occ. eigenvalues --   -0.43637  -0.43054  -0.42471  -0.40754  -0.40502
  Beta  occ. eigenvalues --   -0.39746  -0.38289  -0.37523  -0.37430  -0.35820
  Beta  occ. eigenvalues --   -0.34945  -0.33633  -0.32912  -0.32342  -0.32136
  Beta  occ. eigenvalues --   -0.31760  -0.31721  -0.31717  -0.31371  -0.30210
  Beta  occ. eigenvalues --   -0.28201  -0.27801  -0.27724  -0.27492  -0.27304
  Beta  occ. eigenvalues --   -0.27291  -0.23881  -0.23880  -0.23815  -0.22760
  Beta  occ. eigenvalues --   -0.22153  -0.21496  -0.20040  -0.19481  -0.11010
  Beta virt. eigenvalues --   -0.03077  -0.00744   0.00479   0.01339   0.01694
  Beta virt. eigenvalues --    0.01984   0.02959   0.03278   0.04843   0.04921
  Beta virt. eigenvalues --    0.05231   0.05241   0.05305   0.05822   0.06838

 Mulliken charges and spin densities:
               1          2
     1  O   -0.408141   0.000000
     2  S    0.814319   0.000000
     3  O   -0.393134   0.000000
     4  O   -0.449295  -0.000000
     5  C   -0.923533  -0.000000
     6  C   -0.597891   0.000000
     7  C   -0.241644   0.000000
     8  C    0.477456  -0.000000
     9  C   -0.621926   0.000000
    10  O   -0.654646  -0.000000
    11  C    0.276685   0.000000
    12  C    0.181635  -0.000000
    13  C   -0.928413  -0.000000
    14  C   -0.599805   0.000000
    15  C   -0.243144  -0.000000
    16  C    0.476366  -0.000000
    17  C   -0.620863   0.000000
    18  O   -0.654759  -0.000000
    19  C    0.275771  -0.000000
    20  C    0.179402  -0.000000
    21  S    0.816747  -0.000000
    22  O   -0.392541   0.000000
    23  O   -0.405499   0.000000
    24  O   -0.449062   0.000000
    25  H    0.198367  -0.000000
    26  H    0.144512   0.000000
    27  H    0.200166  -0.000000
    28  H    0.198644   0.000000
    29  H    0.144491   0.000000
    30  H    0.199734  -0.000000
 Sum of Mulliken charges =  -4.00000  -0.00000

 Dipole moment (field-independent basis, Debye):
    X=             -0.0055    Y=             -0.0370    Z=              0.4575  Tot=              0.4591
 Quadrupole moment (field-independent basis, Debye-Ang):
   XX=           -578.8152   YY=           -211.4135   ZZ=           -214.1861
   XY=             70.8597   XZ=              9.3356   YZ=            -21.8109

  Exact polarizability: 724.785 -32.622 296.091  74.447  94.895 383.000
 Approx polarizability: 741.800 -22.545 343.625  86.239 119.713 454.354

                      1                      2                      3
                      A                      A                      A
 Frequencies --     32.6639                38.9768                54.9522
 Red. masses --     14.5469                13.5989                13.9264
 Frc consts  --      0.0091                 0.0122                 0.0248
 IR Inten    --      0.6921                 0.0115                 0.0112

                      4                      5                      6
                      A                      A                      A
 Frequencies --     74.5310                79.2714                85.1410
 Red. masses --      9.8814                 9.6958                 7.3252
 Frc consts  --      0.0323                 0.0359                 0.0313
 IR Inten    --      0.8276                10.7336                19.0048

                      7                      8                      9
                      A                      A                      A
 Frequencies --    127.4819               140.2556               159.4091
 Red. masses --     12.0785                 5.9040                 5.8010
 Frc consts  --      0.1157                 0.0684                 0.0869
 IR Inten    --      0.1018                 6.4916                 0.0203

                     10                     11                     12
                      A                      A                      A
 Frequencies --    173.8626               183.9569               229.2290
 Red. masses --     11.6443                15.2642                 9.6913
 Frc consts  --      0.2074                 0.3043                 0.3000
 IR Inten    --      5.3651                 0.0154                15.4207

                     13                     14                     15
                      A                      A                      A
 Frequencies --    233.8103               257.9384               267.6418
 Red. masses --      7.5640                14.2372                12.9090
 Frc consts  --      0.2436                 0.5581                 0.5448
 IR Inten    --      0.0242                 9.1394                 0.0042

                     16                     17                     18
                      A                      A                      A
 Frequencies --    332.6056               339.2977               375.3901
 Red. masses --      8.2004                 7.4399                 7.8915
 Frc consts  --      0.5345                 0.5046                 0.6552
 IR Inten    --      1.1606                 0.1353                 0.9002

                     19                     20                     21
                      A                      A                      A
 Frequencies --    377.2214               379.8218               416.0040
 Red. masses --      7.3435                10.4011                 6.9572
 Frc consts  --      0.6157                 0.8841                 0.7094
 IR Inten    --     46.1797                 9.1487                 0.0040

                     22                     23                     24
                      A                      A                      A
 Frequencies --    419.6426               431.7307               479.4173
 Red. masses --      3.4049                 8.3640                 3.5135
 Frc consts  --      0.3533                 0.9185                 0.4758
 IR Inten    --      5.3951                 0.5504                 0.0698

                     25                     26                     27
                      A                      A                      A
 Frequencies --    482.2398               486.7605               507.7265
 Red. masses --      8.9083                10.1481                12.5650
 Frc consts  --      1.2206                 1.4167                 1.9084
 IR Inten    --      0.1325                48.4547                 0.1220

                     28                     29                     30
                      A                      A                      A
 Frequencies --    513.7764               515.8973               529.2318
 Red. masses --     15.0991                13.3723                10.3790
 Frc consts  --      2.3483                 2.0969                 1.7128
 IR Inten    --     98.7486                 0.6133                 0.4946

                     31                     32                     33
                      A                      A                      A
 Frequencies --    568.4275               585.4827               618.9508
 Red. masses --      5.2840                14.1635                11.5742
 Frc consts  --      1.0059                 2.8606                 2.6125
 IR Inten    --    118.6804              1041.0833                 0.0381

                     34                     35                     36
                      A                      A                      A
 Frequencies --    640.4219               642.0981               678.2470
 Red. masses --      7.3081                 5.3027                 7.9869
 Frc consts  --      1.7660                 1.2881                 2.1647
 IR Inten    --     63.3635                 0.7263               200.3592

                     37                     38                     39
                      A                      A                      A
 Frequencies --    691.2343               710.7714               716.2424
 Red. masses --      6.6831                 3.8091                 5.0975
 Frc consts  --      1.8814                 1.1338                 1.5407
 IR Inten    --      0.0185                32.1984                21.2575

                     40                     41                     42
                      A                      A                      A
 Frequencies --    720.7887               765.5506               797.6441
 Red. masses --      8.4213                 1.6172                 1.7741
 Frc consts  --      2.5778                 0.5584                 0.6650
 IR Inten    --      0.2296                 0.4536                50.9626

                     43                     44                     45
                      A                      A                      A
 Frequencies --    820.8613               842.6222               933.0194
 Red. masses --      3.9767                 7.2488                 1.4738
 Frc consts  --      1.5787                 3.0324                 0.7559
 IR Inten    --      0.1398                12.9006                31.8972

                     46                     47                     48
                      A                      A                      A
 Frequencies --    934.3177               939.8594               941.2880
 Red. masses --      3.1935                 1.5446                12.0204
 Frc consts  --      1.6425                 0.8039                 6.2750
 IR Inten    --    108.9984                51.3698                 0.0320

                     49                     50                     51
                      A                      A                      A
 Frequencies --    964.6839               966.5528               968.5471
 Red. masses --      7.0595                 1.3233                 1.3438
 Frc consts  --      3.8707                 0.7284                 0.7427
 IR Inten    --   1312.9419                 2.5736                14.1159

                     52                     53                     54
                      A                      A                      A
 Frequencies --    989.3191              1046.9009              1061.4268
 Red. masses --      5.9598                 2.3546                 2.2793
 Frc consts  --      3.4368                 1.5205                 1.5130
 IR Inten    --      0.0338               810.9468                 1.4823

                     55                     56                     57
                      A                      A                      A
 Frequencies --   1081.7519              1082.1285              1094.6171
 Red. masses --     20.2520                20.2476                 4.7887
 Frc consts  --     13.9628                13.9695                 3.3806
 IR Inten    --    411.8564               803.2518              1674.5941

                     58                     59                     60
                      A                      A                      A
 Frequencies --   1101.8026              1106.4301              1124.7702
 Red. masses --     11.3637                 6.6967                 1.5963
 Frc consts  --      8.1279                 4.8302                 1.1898
 IR Inten    --      2.8928               240.3830                 0.7677

                     61                     62                     63
                      A                      A                      A
 Frequencies --   1137.2510              1173.4496              1191.0434
 Red. masses --      2.3935                 6.1545                 2.0991
 Frc consts  --      1.8238                 4.9931                 1.7545
 IR Inten    --    721.4036                 0.0261               513.6349

                     64                     65                     66
                      A                      A                      A
 Frequencies --   1194.1082              1244.5246              1301.9031
 Red. masses --      1.6340                 2.2323                 2.8783
 Frc consts  --      1.3727                 2.0371                 2.8744
 IR Inten    --      3.3744               291.6124                 0.0719

                     67                     68                     69
                      A                      A                      A
 Frequencies --   1321.0416              1334.0661              1351.8276
 Red. masses --      3.4925                 3.8451                 6.7201
 Frc consts  --      3.5911                 4.0319                 7.2355
 IR Inten    --      0.1102              2262.5065               910.2722

                     70                     71                     72
                      A                      A                      A
 Frequencies --   1413.7609              1454.1853              1458.5178
 Red. masses --      5.4552                 3.2020                 2.7296
 Frc consts  --      6.4241                 3.9894                 3.4211
 IR Inten    --    793.8881                 0.0804                75.7251

                     73                     74                     75
                      A                      A                      A
 Frequencies --   1460.3016              1498.1189              1519.7915
 Red. masses --     10.7854                 5.3688                 6.8167
 Frc consts  --     13.5511                 7.0994                 9.2767
 IR Inten    --      0.0152                 0.0042                97.3602

                     76                     77                     78
                      A                      A                      A
 Frequencies --   1574.9021              1592.3608              1597.5863
 Red. masses --      8.9505                 6.3374                 6.0604
 Frc consts  --     13.0799                 9.4678                 9.1133
 IR Inten    --      0.0039                27.3085                 0.0129

                     79                     80                     81
                      A                      A                      A
 Frequencies --   3165.5560              3166.3992              3182.0382
 Red. masses --      1.0853                 1.0853                 1.0939
 Frc consts  --      6.4075                 6.4108                 6.5261
 IR Inten    --      1.7759                 1.1568                59.2718

                     82                     83                     84
                      A                      A                      A
 Frequencies --   3182.7747              3204.1453              3204.4956
 Red. masses --      1.0940                 1.0885                 1.0886
 Frc consts  --      6.5293                 6.5842                 6.5861
 IR Inten    --     32.2005                 8.4792                 3.2963

 - Thermochemistry -
 -------------------
 Temperature   298.150 Kelvin.  Pressure   1.00000 Atm.
 Atom     1 has atomic number  8 and mass  15.99491

 Molecular mass:   365.95041 amu.
 Principal axes and moments of inertia in atomic units:
                           1         2         3
     Eigenvalues --  2580.92422********************
           X            0.98901   0.06102   0.13470
           Y           -0.14578   0.55533   0.81876
           Z            0.02485   0.82939  -0.55812
 This molecule is an asymmetric top.
 Rotational symmetry number  1.
 Warning -- assumption of classical behavior for rotation
           may cause significant error
 Rotational temperatures (Kelvin)      0.03356     0.00382     0.00353
 Rotational constants (GHZ):           0.69926     0.07954     0.07346
 Zero-point vibrational energy     471249.7 (Joules/Mol)
                                  112.63138 (Kcal/Mol)
 Warning -- explicit consideration of  33 degrees of freedom as
           vibrations may cause significant error
 Vibrational temperatures:     47.00    56.08    79.06   107.23   114.05
          (Kelvin)            122.50   183.42   201.80   229.35   250.15
                              264.67   329.81   336.40   371.12   385.08
                              478.55   488.17   540.10   542.74   546.48
                              598.54   603.77   621.16   689.77   693.84
                              700.34   730.51   739.21   742.26   761.45
                              817.84   842.38   890.53   921.42   923.84
                              975.85   994.53  1022.64  1030.51  1037.05
                             1101.46  1147.63  1181.04  1212.35  1342.41
                             1344.27  1352.25  1354.30  1387.96  1390.65
                             1393.52  1423.41  1506.26  1527.16  1556.40
                             1556.94  1574.91  1585.25  1591.91  1618.29
                             1636.25  1688.33  1713.65  1718.06  1790.59
                             1873.15  1900.68  1919.42  1944.98  2034.09
                             2092.25  2098.48  2101.05  2155.46  2186.64
                             2265.93  2291.05  2298.57  4554.53  4555.74
                             4578.24  4579.30  4610.05  4610.55

 Zero-point correction=                           0.179490 (Hartree/Particle)
 Thermal correction to Energy=                    0.198871
 Thermal correction to Enthalpy=                  0.199815
 Thermal correction to Gibbs Free Energy=         0.130568
 Sum of electronic and zero-point Energies=          -1935.948685
 Sum of electronic and thermal Energies=             -1935.929303
 Sum of electronic and thermal Enthalpies=           -1935.928359
 Sum of electronic and thermal Free Energies=        -1935.997607

                     E (Thermal)             CV                S
                      KCal/Mol        Cal/Mol-Kelvin    Cal/Mol-Kelvin
 Total                  124.794             74.847            145.744
 Electronic               0.000              0.000              0.000
 Translational            0.889              2.981             43.585
 Rotational               0.889              2.981             35.619
 Vibrational            123.016             68.885             66.540
 Vibration     1          0.594              1.983              5.661
 Vibration     2          0.594              1.981              5.310
 Vibration     3          0.596              1.976              4.631
 Vibration     4          0.599              1.966              4.030
 Vibration     5          0.600              1.963              3.909
 Vibration     6          0.601              1.959              3.769
 Vibration     7          0.611              1.926              2.984
 Vibration     8          0.615              1.913              2.800
 Vibration     9          0.621              1.892              2.557
 Vibration    10          0.627              1.875              2.393
 Vibration    11          0.631              1.862              2.288
 Vibration    12          0.652              1.796              1.885
 Vibration    13          0.654              1.789              1.849
 Vibration    14          0.667              1.749              1.676
 Vibration    15          0.673              1.733              1.611
 Vibration    16          0.715              1.610              1.247
 Vibration    17          0.719              1.597              1.215
 Vibration    18          0.746              1.523              1.058
 Vibration    19          0.748              1.519              1.050
 Vibration    20          0.750              1.513              1.040
 Vibration    21          0.779              1.435              0.906
 Vibration    22          0.782              1.428              0.893
 Vibration    23          0.793              1.401              0.853
 Vibration    24          0.836              1.296              0.712
 Vibration    25          0.838              1.289              0.704
 Vibration    26          0.843              1.279              0.692
 Vibration    27          0.863              1.233              0.639
 Vibration    28          0.869              1.219              0.625
 Vibration    29          0.871              1.215              0.620
 Vibration    30          0.884              1.185              0.589
 Vibration    31          0.924              1.100              0.507
 Vibration    32          0.942              1.063              0.475
 Vibration    33          0.979              0.992              0.418

 Optimization completed.
    -- Stationary point found.
 Normal termination of Gaussian 16 at Sun Feb 11 05:41:32 2024.
