 Gaussian 16, Revision A.03,
 Gaussian 16:  ES64L-G16RevA.03 25-Dec-2016

 ----------------------------------------------------------------------
 #P UB3LYP/6-311++G(d,p) nosym opt freq SCRF=(PCM,Solvent=n,n-DiMethylF
 ormamide)
 ----------------------------------------------------------------------

 --------
 Oxidized
 --------
 Symbolic Z-matrix:
 Charge =  0 Multiplicity = 1

 SCF Done:  E(UB3LYP) =  -3184.05307617     A.U. after   16 cycles
 SCF Done:  E(UB3LYP) =  -3184.05321824     A.U. after   13 cycles
 SCF Done:  E(UB3LYP) =  -3184.05323830     A.U. after   12 cycles
 SCF Done:  E(UB3LYP) =  -3184.05321114     A.U. after   11 cycles
 SCF Done:  E(UB3LYP) =  -3184.05324187     A.U. after   11 cycles
 SCF Done:  E(UB3LYP) =  -3184.05324361     A.U. after   10 cycles
 SCF Done:  E(UB3LYP) =  -3184.05324368     A.U. after    8 cycles
 Optimization completed.
    -- Stationary point found.
 Normal termination of Gaussian 16 at Sun Feb 11 15:14:48 2024.

 ----------------------------------------------------------------------
 #P Geom=AllCheck Guess=TCheck SCRF=Check GenChk UB3LYP/6-311++G(d,p) F
 req
 ----------------------------------------------------------------------

 Structure from the checkpoint file:  "306.chk"
 --------
 Oxidized
 --------
 Charge =  0 Multiplicity = 1

                          Input orientation:
 ---------------------------------------------------------------------
 Center     Atomic      Atomic             Coordinates (Angstroms)
 Number     Number       Type             X           Y           Z
 ---------------------------------------------------------------------
      1          6           0       -4.124227    3.639736    1.517004
      2          6           0       -4.611734    3.862063    0.229149
      3          6           0       -4.030596    3.224710   -0.852941
      4          6           0       -2.947016    2.349179   -0.677244
      5          6           0       -2.436683    2.110289    0.619687
      6          6           0       -3.052950    2.776702    1.709013
      7          6           0       -2.565191    2.567710    3.102052
      8          6           0       -1.429754    1.651052    3.308663
      9          6           0       -0.850318    1.025022    2.278270
     10          6           0       -1.291971    1.194742    0.847265
     11          8           0       -3.076444    3.128196    4.063476
     12          8           0       -0.711335    0.595149   -0.039342
     13          1           0       -4.566502    4.128948    2.374315
     14          1           0       -4.408866    3.396193   -1.855312
     15          8           0       -2.392471    1.735281   -1.744798
     16         35           0        0.614688   -0.154287    2.562694
     17          1           0       -5.446749    4.533661    0.070436
     18          1           0       -1.099702    1.518949    4.331328
     19          1           0       -2.854049    2.004766   -2.549913
 ---------------------------------------------------------------------

 SCF Done:  E(UB3LYP) =  -3184.05324368     A.U. after    2 cycles

 Alpha  occ. eigenvalues -- -482.85085 -62.50355 -56.32398 -56.32016 -56.31974
 Alpha  occ. eigenvalues --  -19.18079 -19.14067 -19.14063 -10.29906 -10.29214
 Alpha  occ. eigenvalues --  -10.27746 -10.26875 -10.21956 -10.21916 -10.21786
 Alpha  occ. eigenvalues --  -10.20726 -10.20451 -10.19922  -8.71321  -6.54482
 Alpha  occ. eigenvalues --   -6.53205  -6.53082  -2.65574  -2.65228  -2.65135
 Alpha  occ. eigenvalues --   -2.64119  -2.64118  -1.09868  -1.07516  -1.07171
 Alpha  occ. eigenvalues --   -0.89801  -0.87035  -0.81220  -0.78116  -0.77205
 Alpha  occ. eigenvalues --   -0.70397  -0.67063  -0.64427  -0.61455  -0.56739
 Alpha  occ. eigenvalues --   -0.55350  -0.51800  -0.51476  -0.49097  -0.47721
 Alpha  occ. eigenvalues --   -0.46920  -0.46697  -0.44496  -0.43459  -0.43037
 Alpha  occ. eigenvalues --   -0.42397  -0.41321  -0.39354  -0.38747  -0.36727
 Alpha  occ. eigenvalues --   -0.35379  -0.31129  -0.29768  -0.29444  -0.28276
 Alpha  occ. eigenvalues --   -0.28185  -0.25967
 Alpha virt. eigenvalues --   -0.13432  -0.05536  -0.04542  -0.02827  -0.00785
 Alpha virt. eigenvalues --    0.00318   0.00785   0.02119   0.02438   0.02740
 Alpha virt. eigenvalues --    0.03499   0.03916   0.05187   0.05335   0.05670

  Beta  occ. eigenvalues -- -482.85085 -62.50355 -56.32398 -56.32016 -56.31974
  Beta  occ. eigenvalues --  -19.18079 -19.14067 -19.14063 -10.29906 -10.29214
  Beta  occ. eigenvalues --  -10.27746 -10.26875 -10.21956 -10.21916 -10.21786
  Beta  occ. eigenvalues --  -10.20726 -10.20451 -10.19922  -8.71321  -6.54482
  Beta  occ. eigenvalues --   -6.53205  -6.53082  -2.65574  -2.65228  -2.65135
  Beta  occ. eigenvalues --   -2.64119  -2.64118  -1.09868  -1.07516  -1.07171
  Beta  occ. eigenvalues --   -0.89801  -0.87035  -0.81220  -0.78116  -0.77205
  Beta  occ. eigenvalues --   -0.70397  -0.67063  -0.64427  -0.61455  -0.56739
  Beta  occ. eigenvalues --   -0.55350  -0.51800  -0.51476  -0.49097  -0.47721
  Beta  occ. eigenvalues --   -0.46920  -0.46697  -0.44496  -0.43459  -0.43037
  Beta  occ. eigenvalues --   -0.42397  -0.41321  -0.39354  -0.38747  -0.36727
  Beta  occ. eigenvalues --   -0.35379  -0.31129  -0.29768  -0.29444  -0.28276
  Beta  occ. eigenvalues --   -0.28185  -0.25967
  Beta virt. eigenvalues --   -0.13432  -0.05536  -0.04542  -0.02827  -0.00785
  Beta virt. eigenvalues --    0.00318   0.00785   0.02119   0.02438   0.02740
  Beta virt. eigenvalues --    0.03499   0.03916   0.05187   0.05335   0.05670

 Mulliken charges and spin densities:
               1          2
     1  C    0.304175   0.000000
     2  C   -0.372592  -0.000000
     3  C   -0.108723   0.000000
     4  C    0.188337  -0.000000
     5  C    0.003878  -0.000000
     6  C    0.333531  -0.000000
     7  C   -0.706201  -0.000000
     8  C    0.217829   0.000000
     9  C    0.530207   0.000000
    10  C   -0.788240   0.000000
    11  O   -0.282493   0.000000
    12  O   -0.227990   0.000000
    13  H    0.180386   0.000000
    14  H    0.188638   0.000000
    15  O   -0.198777   0.000000
    16  Br  -0.072426   0.000000
    17  H    0.226989  -0.000000
    18  H    0.271048  -0.000000
    19  H    0.312423   0.000000
 Sum of Mulliken charges =  -0.00000  -0.00000

 Dipole moment (field-independent basis, Debye):
    X=             -3.9886    Y=              2.7966    Z=             -3.5131  Tot=              6.0060
 Quadrupole moment (field-independent basis, Debye-Ang):
   XX=            -71.3433   YY=            -82.7012   ZZ=            -95.3284
   XY=            -15.2668   XZ=             19.4171   YZ=            -16.4332

  Exact polarizability: 215.323 -96.509 179.660   8.864  13.183 243.419
 Approx polarizability: 248.486-112.471 213.910 -13.264  37.419 302.662

                      1                      2                      3
                      A                      A                      A
 Frequencies --     22.2994                64.5589               124.6545
 Red. masses --     11.6633                 7.0702                 7.8568
 Frc consts  --      0.0034                 0.0174                 0.0719
 IR Inten    --     12.5077                 0.0252                 6.2028

                      4                      5                      6
                      A                      A                      A
 Frequencies --    152.3053               185.4240               238.3117
 Red. masses --     12.2027                 4.6321                 4.8101
 Frc consts  --      0.1668                 0.0938                 0.1609
 IR Inten    --      1.9058                 2.2981                 2.4926

                      7                      8                      9
                      A                      A                      A
 Frequencies --    244.7319               280.3025               347.7023
 Red. masses --     16.2961                 9.1330                 5.0567
 Frc consts  --      0.5751                 0.4228                 0.3602
 IR Inten    --      0.8559                 3.3466                 6.0183

                     10                     11                     12
                      A                      A                      A
 Frequencies --    370.1750               397.9073               430.3969
 Red. masses --      9.5401                10.9053                 1.2128
 Frc consts  --      0.7702                 1.0173                 0.1324
 IR Inten    --      8.4776                25.4921               134.5162

                     13                     14                     15
                      A                      A                      A
 Frequencies --    460.4541               476.1115               504.9046
 Red. masses --     10.4170                 3.7599                 5.8684
 Frc consts  --      1.3013                 0.5022                 0.8814
 IR Inten    --     23.9740                10.1005                15.2830

                     16                     17                     18
                      A                      A                      A
 Frequencies --    539.3822               546.9490               663.5141
 Red. masses --      7.3236                 4.7458                 5.6974
 Frc consts  --      1.2554                 0.8365                 1.4779
 IR Inten    --     20.5851                 2.2405                50.3784

                     19                     20                     21
                      A                      A                      A
 Frequencies --    672.0091               699.0097               721.8771
 Red. masses --      7.8119                 3.4576                 3.9356
 Frc consts  --      2.0785                 0.9954                 1.2083
 IR Inten    --     27.9826                20.1239                17.6447

                     22                     23                     24
                      A                      A                      A
 Frequencies --    775.6321               789.6068               811.9960
 Red. masses --      6.8811                 3.0097                 6.3029
 Frc consts  --      2.4391                 1.1056                 2.4485
 IR Inten    --     82.7738                16.4349                92.3567

                     25                     26                     27
                      A                      A                      A
 Frequencies --    818.6533               909.3021               928.7865
 Red. masses --      2.3935                 1.4199                 1.4665
 Frc consts  --      0.9451                 0.6917                 0.7454
 IR Inten    --     59.4243                28.9592                 4.0854

                     28                     29                     30
                      A                      A                      A
 Frequencies --    957.6325              1004.6874              1044.1544
 Red. masses --      7.6595                 1.3232                 5.0689
 Frc consts  --      4.1386                 0.7870                 3.2560
 IR Inten    --     86.9812                 0.2075                29.6479

                     31                     32                     33
                      A                      A                      A
 Frequencies --   1104.1370              1145.1578              1195.0460
 Red. masses --      2.0313                 2.6149                 1.1852
 Frc consts  --      1.4591                 2.0204                 0.9972
 IR Inten    --     39.6500               232.4471                30.9103

                     34                     35                     36
                      A                      A                      A
 Frequencies --   1206.5650              1255.7444              1301.2705
 Red. masses --      1.8952                 2.2957                 1.9291
 Frc consts  --      1.6255                 2.1329                 1.9246
 IR Inten    --     53.5707               518.6789               161.6929

                     37                     38                     39
                      A                      A                      A
 Frequencies --   1303.4893              1326.2451              1380.4868
 Red. masses --      3.5456                 3.1667                 5.3053
 Frc consts  --      3.5494                 3.2818                 5.9570
 IR Inten    --    416.7213                69.9788                19.9830

                     40                     41                     42
                      A                      A                      A
 Frequencies --   1483.7966              1499.4185              1607.1246
 Red. masses --      2.8580                 2.4991                 5.8000
 Frc consts  --      3.7074                 3.3103                 8.8263
 IR Inten    --     89.4041                29.0987               107.7921

                     43                     44                     45
                      A                      A                      A
 Frequencies --   1618.6924              1646.4199              1688.7795
 Red. masses --      5.9847                 9.0231                11.1382
 Frc consts  --      9.2389                14.4108                18.7159
 IR Inten    --    386.2861               197.9569               357.7835

                     46                     47                     48
                      A                      A                      A
 Frequencies --   1705.4719              3169.3312              3193.6887
 Red. masses --     12.4232                 1.0901                 1.0924
 Frc consts  --     21.2899                 6.4512                 6.5645
 IR Inten    --    603.0148                 8.4874                 8.1608

                     49                     50                     51
                      A                      A                      A
 Frequencies --   3202.8080              3213.6759              3786.1707
 Red. masses --      1.0938                 1.0937                 1.0663
 Frc consts  --      6.6110                 6.6549                 9.0060
 IR Inten    --      0.0244                 4.5277               186.9042

 - Thermochemistry -
 -------------------
 Temperature   298.150 Kelvin.  Pressure   1.00000 Atm.
 Atom     1 has atomic number  6 and mass  12.00000

 Molecular mass:   251.94221 amu.
 Principal axes and moments of inertia in atomic units:
                           1         2         3
     Eigenvalues --  1896.453215187.074487083.51329
           X            0.73113  -0.24822   0.63548
           Y           -0.55101   0.33441   0.76456
           Z            0.40229   0.90915  -0.10772
 This molecule is an asymmetric top.
 Rotational symmetry number  1.
 Warning -- assumption of classical behavior for rotation
           may cause significant error
 Rotational temperatures (Kelvin)      0.04567     0.01670     0.01223
 Rotational constants (GHZ):           0.95164     0.34793     0.25478
 Zero-point vibrational energy     330270.7 (Joules/Mol)
                                   78.93660 (Kcal/Mol)
 Warning -- explicit consideration of  17 degrees of freedom as
           vibrations may cause significant error
 Vibrational temperatures:     32.08    92.89   179.35   219.13   266.78
          (Kelvin)            342.88   352.11   403.29   500.27   532.60
                              572.50   619.25   662.49   685.02   726.45
                              776.05   786.94   954.65   966.87  1005.72
                             1038.62  1115.96  1136.07  1168.28  1177.86
                             1308.28  1336.32  1377.82  1445.52  1502.31
                             1588.61  1647.63  1719.40  1735.98  1806.74
                             1872.24  1875.43  1908.17  1986.21  2134.85
                             2157.33  2312.29  2328.94  2368.83  2429.78
                             2453.79  4559.96  4595.01  4608.13  4623.76
                             5447.46

 Zero-point correction=                           0.125793 (Hartree/Particle)
 Thermal correction to Energy=                    0.137233
 Thermal correction to Enthalpy=                  0.138177
 Thermal correction to Gibbs Free Energy=         0.086273
 Sum of electronic and zero-point Energies=          -3183.927450
 Sum of electronic and thermal Energies=             -3183.916011
 Sum of electronic and thermal Enthalpies=           -3183.915066
 Sum of electronic and thermal Free Energies=        -3183.966971

                     E (Thermal)             CV                S
                      KCal/Mol        Cal/Mol-Kelvin    Cal/Mol-Kelvin
 Total                   86.115             43.161            109.242
 Electronic               0.000              0.000              0.000
 Translational            0.889              2.981             42.472
 Rotational               0.889              2.981             32.610
 Vibrational             84.338             37.199             34.160
 Vibration     1          0.593              1.985              6.418
 Vibration     2          0.597              1.971              4.313
 Vibration     3          0.610              1.928              3.027
 Vibration     4          0.619              1.900              2.643
 Vibration     5          0.631              1.860              2.273
 Vibration     6          0.656              1.782              1.815
 Vibration     7          0.660              1.771              1.768
 Vibration     8          0.680              1.710              1.532
 Vibration     9          0.725              1.580              1.177
 Vibration    10          0.742              1.533              1.079
 Vibration    11          0.764              1.475              0.970
 Vibration    12          0.792              1.404              0.857
 Vibration    13          0.818              1.338              0.765
 Vibration    14          0.833              1.303              0.721
 Vibration    15          0.860              1.239              0.646
 Vibration    16          0.894              1.163              0.567
 Vibration    17          0.902              1.146              0.551

                           ! Non-Optimized Parameters !
 Normal termination of Gaussian 16 at Sun Feb 11 15:35:23 2024.
