 Gaussian 16, Revision A.03,
 Gaussian 16:  ES64L-G16RevA.03 25-Dec-2016

 --------------------------------------
 #P UB3LYP/6-311++G(d,p) nosym opt freq
 --------------------------------------

 -------
 Reduced
 -------
 Symbolic Z-matrix:
 Charge = -2 Multiplicity = 1

 SCF Done:  E(UB3LYP) =  -1663.49749209     A.U. after   46 cycles
 SCF Done:  E(UB3LYP) =  -1663.53351643     A.U. after   48 cycles
 SCF Done:  E(UB3LYP) =  -1663.55221303     A.U. after   21 cycles
 SCF Done:  E(UB3LYP) =  -1663.56612389     A.U. after   19 cycles
 SCF Done:  E(UB3LYP) =  -1663.57081569     A.U. after   17 cycles
 SCF Done:  E(UB3LYP) =  -1663.57157463     A.U. after   19 cycles
 SCF Done:  E(UB3LYP) =  -1663.57344265     A.U. after   17 cycles
 SCF Done:  E(UB3LYP) =  -1663.57422901     A.U. after   18 cycles
 SCF Done:  E(UB3LYP) =  -1663.57450365     A.U. after   19 cycles
 SCF Done:  E(UB3LYP) =  -1663.57488309     A.U. after   18 cycles
 SCF Done:  E(UB3LYP) =  -1663.57495376     A.U. after   16 cycles
 SCF Done:  E(UB3LYP) =  -1663.57498611     A.U. after   15 cycles
 SCF Done:  E(UB3LYP) =  -1663.57498931     A.U. after   16 cycles
 SCF Done:  E(UB3LYP) =  -1663.57499016     A.U. after   15 cycles
 Optimization completed.
    -- Stationary point found.
 Normal termination of Gaussian 16 at Thu Dec 21 08:25:00 2023.

 ----------------------------------------------------------------------
 #P Geom=AllCheck Guess=TCheck SCRF=Check GenChk UB3LYP/6-311++G(d,p) F
 req
 ----------------------------------------------------------------------

 Structure from the checkpoint file:  "158-an.chk"
 -------
 Reduced
 -------
 Charge = -2 Multiplicity = 1

                          Input orientation:
 ---------------------------------------------------------------------
 Center     Atomic      Atomic             Coordinates (Angstroms)
 Number     Number       Type             X           Y           Z
 ---------------------------------------------------------------------
      1          7           0       -2.568702    0.459603    2.342385
      2          6           0       -2.428531    0.252936    0.960493
      3          6           0       -3.553823    0.172191    0.149525
      4          6           0       -3.431366   -0.112442   -1.233894
      5          6           0       -2.190809   -0.323249   -1.787331
      6          6           0       -1.004661   -0.233146   -1.007412
      7          6           0        0.261402   -0.443498   -1.684494
      8          8           0        0.343356   -0.737053   -2.932743
      9          6           0        1.420112   -0.286414   -0.844260
     10          6           0        2.708448   -0.461596   -1.406044
     11          6           0        3.851552   -0.313894   -0.663949
     12         17           0        5.444540   -0.546165   -1.444338
     13          6           0        3.758026    0.030380    0.718534
     14         17           0        5.232243    0.220602    1.714684
     15          6           0        2.529066    0.210145    1.296755
     16          6           0        1.324074    0.062580    0.561634
     17          6           0        0.072743    0.267198    1.230310
     18          8           0        0.033721    0.610621    2.491065
     19          6           0       -1.103524    0.083077    0.407659
     20          1           0       -1.639149    0.680016    2.750642
     21          1           0       -3.318371    1.095288    2.579366
     22          1           0       -4.536933    0.290252    0.603575
     23          1           0       -4.327817   -0.175293   -1.849305
     24          1           0       -2.060645   -0.555867   -2.838325
     25          1           0        2.750028   -0.716980   -2.459025
     26          1           0        2.435021    0.470708    2.344491
 ---------------------------------------------------------------------

 SCF Done:  E(UB3LYP) =  -1663.57499016     A.U. after    2 cycles

 Alpha  occ. eigenvalues -- -101.34259-101.34227 -18.79468 -18.78380 -14.06298
 Alpha  occ. eigenvalues --  -10.00423 -10.00321  -9.96949  -9.95214  -9.94619
 Alpha  occ. eigenvalues --   -9.94241  -9.94203  -9.93163  -9.92237  -9.91921
 Alpha  occ. eigenvalues --   -9.91746  -9.91593  -9.91336  -9.91134  -9.25702
 Alpha  occ. eigenvalues --   -9.25669  -7.02112  -7.02078  -7.01214  -7.01192
 Alpha  occ. eigenvalues --   -7.01180  -7.01158  -0.71312  -0.70191  -0.67515
 Alpha  occ. eigenvalues --   -0.66294  -0.63348  -0.59575  -0.58322  -0.52613
 Alpha  occ. eigenvalues --   -0.50978  -0.48198  -0.47865  -0.41411  -0.39343
 Alpha  occ. eigenvalues --   -0.37248  -0.34681  -0.30751  -0.29723  -0.27941
 Alpha  occ. eigenvalues --   -0.25451  -0.23746  -0.23065  -0.22625  -0.20136
 Alpha  occ. eigenvalues --   -0.19669  -0.19345  -0.18291  -0.16214  -0.15966
 Alpha  occ. eigenvalues --   -0.15183  -0.14668  -0.13244  -0.12817  -0.11972
 Alpha  occ. eigenvalues --   -0.11642  -0.11204  -0.10638  -0.09544  -0.09404
 Alpha  occ. eigenvalues --   -0.08332  -0.07414  -0.05723  -0.01407   0.00386
 Alpha  occ. eigenvalues --    0.00694   0.02246   0.03379   0.03966   0.12158
 Alpha virt. eigenvalues --    0.15786   0.17174   0.17483   0.19127   0.19202
 Alpha virt. eigenvalues --    0.19414   0.20160   0.20914   0.21626   0.22154
 Alpha virt. eigenvalues --    0.23010   0.23393   0.24169   0.24821   0.25236

  Beta  occ. eigenvalues -- -101.34259-101.34227 -18.79468 -18.78380 -14.06298
  Beta  occ. eigenvalues --  -10.00423 -10.00321  -9.96949  -9.95214  -9.94619
  Beta  occ. eigenvalues --   -9.94241  -9.94203  -9.93163  -9.92237  -9.91921
  Beta  occ. eigenvalues --   -9.91746  -9.91593  -9.91336  -9.91134  -9.25702
  Beta  occ. eigenvalues --   -9.25669  -7.02112  -7.02078  -7.01214  -7.01192
  Beta  occ. eigenvalues --   -7.01180  -7.01158  -0.71312  -0.70191  -0.67515
  Beta  occ. eigenvalues --   -0.66294  -0.63348  -0.59575  -0.58322  -0.52613
  Beta  occ. eigenvalues --   -0.50978  -0.48198  -0.47865  -0.41411  -0.39343
  Beta  occ. eigenvalues --   -0.37248  -0.34681  -0.30751  -0.29723  -0.27941
  Beta  occ. eigenvalues --   -0.25451  -0.23746  -0.23065  -0.22625  -0.20136
  Beta  occ. eigenvalues --   -0.19669  -0.19345  -0.18291  -0.16214  -0.15966
  Beta  occ. eigenvalues --   -0.15183  -0.14668  -0.13244  -0.12817  -0.11972
  Beta  occ. eigenvalues --   -0.11642  -0.11204  -0.10638  -0.09544  -0.09404
  Beta  occ. eigenvalues --   -0.08332  -0.07414  -0.05723  -0.01407   0.00386
  Beta  occ. eigenvalues --    0.00694   0.02246   0.03379   0.03966   0.12158
  Beta virt. eigenvalues --    0.15786   0.17174   0.17483   0.19127   0.19202
  Beta virt. eigenvalues --    0.19414   0.20160   0.20914   0.21626   0.22154
  Beta virt. eigenvalues --    0.23010   0.23393   0.24169   0.24821   0.25236

 Mulliken charges and spin densities:
               1          2
     1  N   -0.400680   0.000000
     2  C   -0.023049   0.000000
     3  C   -0.249194  -0.000000
     4  C   -0.471961   0.000000
     5  C   -0.135978  -0.000000
     6  C    0.689506  -0.000000
     7  C   -0.888259   0.000000
     8  O   -0.500325  -0.000000
     9  C   -0.441002  -0.000000
    10  C   -0.631029   0.000000
    11  C    0.592007  -0.000000
    12  Cl   0.440514   0.000000
    13  C    0.419596  -0.000000
    14  Cl   0.443216  -0.000000
    15  C   -0.387435   0.000000
    16  C   -0.275933   0.000000
    17  C   -1.105469   0.000000
    18  O   -0.496648  -0.000000
    19  C    0.327812   0.000000
    20  H    0.303045   0.000000
    21  H    0.176367  -0.000000
    22  H    0.052661  -0.000000
    23  H    0.080569   0.000000
    24  H    0.124920   0.000000
    25  H    0.174873  -0.000000
    26  H    0.181877  -0.000000
 Sum of Mulliken charges =  -2.00000   0.00000

 Dipole moment (field-independent basis, Debye):
    X=             -7.0812    Y=              1.7004    Z=              1.9093  Tot=              7.5286
 Quadrupole moment (field-independent basis, Debye-Ang):
   XX=           -217.4569   YY=           -137.8437   ZZ=           -182.6623
   XY=             -0.1151   XZ=              0.1728   YZ=             -8.3528

  Exact polarizability: 485.422 -16.839 137.679   5.071  33.103 266.299
 Approx polarizability: 779.929 -22.814 216.088  21.483  67.012 490.773

                      1                      2                      3
                      A                      A                      A
 Frequencies --     36.9921                44.4987                88.8637
 Red. masses --     16.3975                 8.5869                 5.7158
 Frc consts  --      0.0132                 0.0100                 0.0266
 IR Inten    --      0.3648                 3.4005                 1.0773

                      4                      5                      6
                      A                      A                      A
 Frequencies --    132.5224               138.4374               183.4720
 Red. masses --     12.5021                 9.8239                 5.3555
 Frc consts  --      0.1294                 0.1109                 0.1062
 IR Inten    --      5.7525                 2.1598                 3.2358

                      7                      8                      9
                      A                      A                      A
 Frequencies --    187.0609               201.1381               235.5198
 Red. masses --     28.9586                 6.7259                 4.6144
 Frc consts  --      0.5970                 0.1603                 0.1508
 IR Inten    --      0.8880                 0.2290                 6.0498

                     10                     11                     12
                      A                      A                      A
 Frequencies --    257.4500               277.7178               314.4756
 Red. masses --     10.6067                12.5784                 6.6664
 Frc consts  --      0.4142                 0.5716                 0.3884
 IR Inten    --      6.7936                 4.0471                14.3294

                     13                     14                     15
                      A                      A                      A
 Frequencies --    321.6002               373.0982               399.9298
 Red. masses --      9.9341                 3.6459                 7.9937
 Frc consts  --      0.6054                 0.2990                 0.7533
 IR Inten    --      1.2524                30.0045                 3.1264

                     16                     17                     18
                      A                      A                      A
 Frequencies --    408.8649               418.4496               437.9916
 Red. masses --      8.5299                 1.6077                 3.1848
 Frc consts  --      0.8401                 0.1659                 0.3600
 IR Inten    --      6.7064               114.9140                11.6945

                     19                     20                     21
                      A                      A                      A
 Frequencies --    452.2832               476.4470               489.9483
 Red. masses --      5.6566                 7.1879                 7.0819
 Frc consts  --      0.6817                 0.9614                 1.0016
 IR Inten    --     23.3783                 4.1380                 5.4513

                     22                     23                     24
                      A                      A                      A
 Frequencies --    493.5101               533.5630               564.0888
 Red. masses --      6.6038                 6.5306                 4.7989
 Frc consts  --      0.9476                 1.0954                 0.8997
 IR Inten    --      1.3386                26.8680                 3.9656

                     25                     26                     27
                      A                      A                      A
 Frequencies --    586.6712               589.9485               648.4115
 Red. masses --      5.5697                 4.3408                 6.5937
 Frc consts  --      1.1295                 0.8901                 1.6334
 IR Inten    --     58.7657                11.5833                55.2458

                     28                     29                     30
                      A                      A                      A
 Frequencies --    670.5804               686.0160               710.2080
 Red. masses --      6.9381                 2.0140                 6.9343
 Frc consts  --      1.8382                 0.5584                 2.0607
 IR Inten    --     38.7477                50.2513                16.7275

                     31                     32                     33
                      A                      A                      A
 Frequencies --    732.5842               738.3797               782.2062
 Red. masses --      3.6270                 2.3705                 1.7579
 Frc consts  --      1.1469                 0.7615                 0.6337
 IR Inten    --      4.2204                27.1988                 9.8630

                     34                     35                     36
                      A                      A                      A
 Frequencies --    811.1869               819.3618               880.2476
 Red. masses --      6.0215                 4.4743                 3.4645
 Frc consts  --      2.3345                 1.7698                 1.5816
 IR Inten    --     69.9223                 0.3111                45.0103

                     37                     38                     39
                      A                      A                      A
 Frequencies --    901.3392               903.3803               927.3931
 Red. masses --      1.7210                 1.5150                 1.3697
 Frc consts  --      0.8238                 0.7284                 0.6941
 IR Inten    --     53.9327                15.7379                13.0193

                     40                     41                     42
                      A                      A                      A
 Frequencies --    934.3080               941.2808              1021.0145
 Red. masses --      1.3019                 5.7781                 3.2701
 Frc consts  --      0.6696                 3.0163                 2.0085
 IR Inten    --      6.6836                94.6827                66.9338

                     43                     44                     45
                      A                      A                      A
 Frequencies --   1055.4279              1077.0969              1130.6774
 Red. masses --      2.1915                 1.9371                 2.5932
 Frc consts  --      1.4383                 1.3240                 1.9532
 IR Inten    --    136.6561                56.6131               214.6148

                     46                     47                     48
                      A                      A                      A
 Frequencies --   1146.8620              1174.9811              1191.4228
 Red. masses --      2.0550                 3.4401                 2.4453
 Frc consts  --      1.5925                 2.7982                 2.0451
 IR Inten    --    161.6579                46.1860                88.6006

                     49                     50                     51
                      A                      A                      A
 Frequencies --   1196.3921              1205.9440              1265.8611
 Red. masses --      1.4199                 1.8658                 3.2477
 Frc consts  --      1.1974                 1.5987                 3.0662
 IR Inten    --     91.8449                80.8512                69.0908

                     52                     53                     54
                      A                      A                      A
 Frequencies --   1303.0236              1323.9413              1352.5750
 Red. masses --      6.0521                 4.0743                 5.5531
 Frc consts  --      6.0542                 4.2076                 5.9856
 IR Inten    --    134.9464                 6.4245               378.2965

                     55                     56                     57
                      A                      A                      A
 Frequencies --   1373.8806              1421.7181              1435.1145
 Red. masses --      2.8436                 3.5884                 5.6603
 Frc consts  --      3.1624                 4.2735                 6.8685
 IR Inten    --    570.9877                 1.9707                55.9513

                     58                     59                     60
                      A                      A                      A
 Frequencies --   1453.8978              1468.0604              1481.0204
 Red. masses --      2.7082                10.3370                 4.4038
 Frc consts  --      3.3728                13.1261                 5.6911
 IR Inten    --      2.7373               383.8201               185.8608

                     61                     62                     63
                      A                      A                      A
 Frequencies --   1510.8678              1532.8577              1586.4051
 Red. masses --      5.9913                 7.4979                 6.5573
 Frc consts  --      8.0579                10.3799                 9.7230
 IR Inten    --    144.8043                74.2358                 7.4262

                     64                     65                     66
                      A                      A                      A
 Frequencies --   1588.9996              1614.7322              3083.7668
 Red. masses --      3.0058                 1.5896                 1.0776
 Frc consts  --      4.4715                 2.4420                 6.0376
 IR Inten    --     96.4341                87.7138               168.1114

                     67                     68                     69
                      A                      A                      A
 Frequencies --   3089.9216              3111.5429              3172.0588
 Red. masses --      1.0788                 1.0915                 1.0907
 Frc consts  --      6.0685                 6.2260                 6.4662
 IR Inten    --    144.4330               134.6323                37.0008

                     70                     71                     72
                      A                      A                      A
 Frequencies --   3176.9564              3183.3662              3573.2567
 Red. masses --      1.0891                 1.0892                 1.0783
 Frc consts  --      6.4766                 6.5032                 8.1119
 IR Inten    --      7.9632                14.7607                 2.1617

 - Thermochemistry -
 -------------------
 Temperature   298.150 Kelvin.  Pressure   1.00000 Atm.
 Atom     1 has atomic number  7 and mass  14.00307

 Molecular mass:   290.98538 amu.
 Principal axes and moments of inertia in atomic units:
                           1         2         3
     Eigenvalues --  2747.111119736.01211**********
           X            0.99939   0.01232   0.03266
           Y           -0.03460   0.22589   0.97354
           Z           -0.00462   0.97408  -0.22617
 This molecule is an asymmetric top.
 Rotational symmetry number  1.
 Warning -- assumption of classical behavior for rotation
           may cause significant error
 Rotational temperatures (Kelvin)      0.03153     0.00890     0.00694
 Rotational constants (GHZ):           0.65696     0.18537     0.14463
 Zero-point vibrational energy     448809.4 (Joules/Mol)
                                  107.26802 (Kcal/Mol)
 Warning -- explicit consideration of  26 degrees of freedom as
           vibrations may cause significant error
 Vibrational temperatures:     53.22    64.02   127.85   190.67   199.18
          (Kelvin)            263.98   269.14   289.39   338.86   370.41
                              399.57   452.46   462.71   536.81   575.41
                              588.27   602.06   630.17   650.73   685.50
                              704.93   710.05   767.68   811.60   844.09
                              848.80   932.92   964.82   987.02  1021.83
                             1054.03  1062.36  1125.42  1167.12  1178.88
                             1266.48  1296.83  1299.76  1334.31  1344.26
                             1354.29  1469.01  1518.53  1549.70  1626.79
                             1650.08  1690.54  1714.19  1721.34  1735.08
                             1821.29  1874.76  1904.86  1946.05  1976.71
                             2045.54  2064.81  2091.83  2112.21  2130.86
                             2173.80  2205.44  2282.48  2286.22  2323.24
                             4436.85  4445.71  4476.82  4563.89  4570.93
                             4580.15  5141.12

 Zero-point correction=                           0.170942 (Hartree/Particle)
 Thermal correction to Energy=                    0.186253
 Thermal correction to Enthalpy=                  0.187198
 Thermal correction to Gibbs Free Energy=         0.127834
 Sum of electronic and zero-point Energies=          -1663.404048
 Sum of electronic and thermal Energies=             -1663.388737
 Sum of electronic and thermal Enthalpies=           -1663.387793
 Sum of electronic and thermal Free Energies=        -1663.447156

                     E (Thermal)             CV                S
                      KCal/Mol        Cal/Mol-Kelvin    Cal/Mol-Kelvin
 Total                  116.876             60.235            124.941
 Electronic               0.000              0.000              0.000
 Translational            0.889              2.981             42.902
 Rotational               0.889              2.981             34.167
 Vibrational            115.098             54.274             47.873
 Vibration     1          0.594              1.982              5.414
 Vibration     2          0.595              1.980              5.048
 Vibration     3          0.602              1.957              3.685
 Vibration     4          0.613              1.921              2.909
 Vibration     5          0.614              1.915              2.825
 Vibration     6          0.631              1.862              2.293
 Vibration     7          0.632              1.858              2.257
 Vibration     8          0.638              1.838              2.123
 Vibration     9          0.655              1.786              1.836
 Vibration    10          0.667              1.750              1.679
 Vibration    11          0.679              1.715              1.548
 Vibration    12          0.702              1.646              1.339
 Vibration    13          0.707              1.632              1.302
 Vibration    14          0.745              1.527              1.067
 Vibration    15          0.766              1.470              0.963
 Vibration    16          0.773              1.451              0.931
 Vibration    17          0.781              1.430              0.897
 Vibration    18          0.798              1.387              0.833
 Vibration    19          0.811              1.356              0.789
 Vibration    20          0.833              1.302              0.720
 Vibration    21          0.846              1.272              0.684
 Vibration    22          0.849              1.264              0.675
 Vibration    23          0.889              1.176              0.579
 Vibration    24          0.920              1.109              0.516
 Vibration    25          0.944              1.060              0.473
 Vibration    26          0.947              1.053              0.467

                           ! Non-Optimized Parameters !
 Normal termination of Gaussian 16 at Thu Dec 21 09:03:15 2023.
