 Q-Chem 5.4, Q-Chem, Inc., Pleasanton, CA (2021)
 Q-Chem 5.4.0 for Intel X86 EM64T Linux

User input:
--------------------------------------------------------------
$molecule
-1 1
C                  2.7800980000      0.5335120000      0.2074580000
C                  2.7392180000     -0.6745790000      0.9064800000
C                  1.5366620000     -1.3551130000      1.0575640000
C                 -0.9076950000     -1.5894270000      0.6970470000
O                 -0.9621930000     -2.6485410000      1.3108080000
C                 -2.1493020000     -1.0049880000      0.0954360000
C                 -3.3629310000     -1.6846640000      0.2432370000
C                 -4.5287060000     -1.1643970000     -0.3055520000
C                 -4.4922480000      0.0431700000     -1.0095540000
C                 -3.2903180000      0.7240180000     -1.1608300000
C                 -2.1128330000      0.2072420000     -0.6109260000
C                 -0.8308830000      0.9656600000     -0.7918020000
O                 -0.8256380000      2.0186920000     -1.4106760000
C                  0.3978720000      0.3831470000     -0.1948040000
C                  1.6114520000      1.0575750000     -0.3429250000
H                  3.6655130000     -1.0645050000      1.3113020000
H                  1.4901800000     -2.2945880000      1.5951820000
H                 -3.3632750000     -2.6180360000      0.7928990000
H                 -5.4670840000     -1.6956940000     -0.1876990000
H                 -5.4022520000      0.4491990000     -1.4381450000
H                 -3.2341070000      1.6610860000     -1.7012770000
H                  1.6411350000      1.9873320000     -0.8968040000
C                  0.3547960000     -0.8405720000      0.5149170000
S                  4.3597770000      1.4522560000      0.0543460000
O                  5.3892150000      0.4487750000      0.4182870000
O                  4.3813950000      1.8848920000     -1.3621860000
O                  4.2022320000      2.5562650000      1.0322280000
$end

$rem
BASIS  =  6-311++G(d,p)
GUI  =  2
JOB_TYPE  =  SP
METHOD  =  B3LYP
SCF_CONVERGENCE  = 8
SOLVENT_METHOD = sm12
$end

$smx
solvent dimethylformamide
charges CM5
$end

--------------------------------------------------------------

             Standard Nuclear Orientation (Angstroms)
    I     Atom           X                Y                Z
 ----------------------------------------------------------------
    1      C       2.7800980000     0.5335120000     0.2074580000
    2      C       2.7392180000    -0.6745790000     0.9064800000
    3      C       1.5366620000    -1.3551130000     1.0575640000
    4      C      -0.9076950000    -1.5894270000     0.6970470000
    5      O      -0.9621930000    -2.6485410000     1.3108080000
    6      C      -2.1493020000    -1.0049880000     0.0954360000
    7      C      -3.3629310000    -1.6846640000     0.2432370000
    8      C      -4.5287060000    -1.1643970000    -0.3055520000
    9      C      -4.4922480000     0.0431700000    -1.0095540000
   10      C      -3.2903180000     0.7240180000    -1.1608300000
   11      C      -2.1128330000     0.2072420000    -0.6109260000
   12      C      -0.8308830000     0.9656600000    -0.7918020000
   13      O      -0.8256380000     2.0186920000    -1.4106760000
   14      C       0.3978720000     0.3831470000    -0.1948040000
   15      C       1.6114520000     1.0575750000    -0.3429250000
   16      H       3.6655130000    -1.0645050000     1.3113020000
   17      H       1.4901800000    -2.2945880000     1.5951820000
   18      H      -3.3632750000    -2.6180360000     0.7928990000
   19      H      -5.4670840000    -1.6956940000    -0.1876990000
   20      H      -5.4022520000     0.4491990000    -1.4381450000
   21      H      -3.2341070000     1.6610860000    -1.7012770000
   22      H       1.6411350000     1.9873320000    -0.8968040000
   23      C       0.3547960000    -0.8405720000     0.5149170000
   24      S       4.3597770000     1.4522560000     0.0543460000
   25      O       5.3892150000     0.4487750000     0.4182870000
   26      O       4.3813950000     1.8848920000    -1.3621860000
   27      O       4.2022320000     2.5562650000     1.0322280000
 ----------------------------------------------------------------

   15   -1312.3327285704      7.58e-09  Convergence criterion met
 Total energy in the final basis set =    -1312.4353725098

                    Orbital Energies (a.u.)
 --------------------------------------------------------------

 Alpha MOs
 -- Occupied --
-89.0362 -19.1306 -19.1304 -19.0805 -19.0799 -19.0794 -10.2832 -10.2828
-10.2138 -10.2137 -10.2123 -10.2094 -10.2089 -10.2033 -10.2032 -10.2018
-10.1987 -10.1982 -10.1973 -10.1972  -8.0951  -6.0576  -6.0575  -6.0573
 -1.1001  -1.0647  -1.0623  -0.9654  -0.9634  -0.8969  -0.8843  -0.8159
 -0.7848  -0.7776  -0.7736  -0.6946  -0.6754  -0.6493  -0.6215  -0.5979
 -0.5862  -0.5615  -0.5404  -0.5068  -0.4937  -0.4896  -0.4870  -0.4574
 -0.4570  -0.4564  -0.4510  -0.4497  -0.4451  -0.4409  -0.4337  -0.4190
 -0.4158  -0.3959  -0.3843  -0.3765  -0.3711  -0.3663  -0.3232  -0.3225
 -0.3085  -0.2904  -0.2883  -0.2865  -0.2824  -0.2808  -0.2776  -0.2729
 -0.2642  -0.2440

          Ground-State Mulliken Net Atomic Charges

     Atom                 Charge (a.u.)
  ----------------------------------------
      1 C                    -4.100872
      2 C                    -0.430304
      3 C                     0.364557
      4 C                    -0.633158
      5 O                    -0.181192
      6 C                     1.007116
      7 C                     1.116643
      8 C                     1.468643
      9 C                     1.233252
     10 C                     0.574579
     11 C                     0.286636
     12 C                    -0.985575
     13 O                    -0.241620
     14 C                    -0.140047
     15 C                    -1.736730
     16 H                     0.263713
     17 H                     0.296562
     18 H                     0.217787
     19 H                     0.390684
     20 H                     0.374747
     21 H                     0.195131
     22 H                     0.151815
     23 C                     0.813126
     24 S                    -0.194415
     25 O                    -0.365906
     26 O                    -0.382459
     27 O                    -0.362713
  ----------------------------------------
  Sum of atomic charges =    -1.000000

                    Cartesian Multipole Moments
 -----------------------------------------------------------------
    Charge (ESU x 10^10)
                -4.8032
    Dipole Moment (Debye)
         X     -22.8160      Y      -8.1111      Z      -0.1313
       Tot      24.2153
    Quadrupole Moments (Debye-Ang)
        XX    -208.1316     XY     -34.6929     YY    -152.6121
        XZ       4.4542     YZ       3.9020     ZZ    -134.9963

 Total job time:  610.60s(wall), 4702.60s(cpu)
        *  Thank you very much for using Q-Chem.  Have a nice day.  *
