 Q-Chem 5.4, Q-Chem, Inc., Pleasanton, CA (2021)
 Q-Chem 5.4.0 for Intel X86 EM64T Linux

User input:
--------------------------------------------------------------
$molecule
-1 2
O                 -4.9263760000      0.9830950000      0.1946170000
C                 -3.6781340000      0.3876560000      0.1218060000
C                 -3.6472800000     -1.0185120000      0.0255100000
C                 -2.4260150000     -1.6573580000     -0.0497250000
C                 -1.2104750000     -0.9432900000     -0.0328410000
C                  0.0565600000     -1.6757890000     -0.1152550000
O                  0.0986650000     -2.9250860000     -0.2020910000
C                  1.2711840000     -0.8555280000     -0.0913270000
C                  2.5319920000     -1.4819910000     -0.1664990000
C                  3.7072500000     -0.7583600000     -0.1476760000
C                  3.6432080000      0.6466670000     -0.0506500000
O                  4.8483390000      1.3288320000     -0.0356200000
C                  2.4298630000      1.2937970000      0.0245530000
C                  1.2183610000      0.5647710000      0.0064440000
C                 -0.0435950000      1.2917380000      0.0882010000
O                 -0.0860700000      2.5517410000      0.1762560000
C                 -1.2535700000      0.4773560000      0.0647320000
C                 -2.5113110000      1.1190020000      0.1410560000
H                 -4.7961510000      1.9349680000      0.2567960000
H                 -4.5811250000     -1.5692130000      0.0124960000
H                 -2.3670630000     -2.7372330000     -0.1244920000
H                  2.5460210000     -2.5634620000     -0.2401360000
H                  4.6760330000     -1.2417190000     -0.2054170000
H                  4.6543670000      2.2691800000      0.0351260000
H                  2.3614830000      2.3756400000      0.0995460000
H                 -2.5161610000      2.2030950000      0.2145890000
$end
$rem
MAX_SCF_CYCLES=200
BASIS  =  6-311++G(d,p)
GUI  =  2
JOB_TYPE  =  SP
METHOD  =  B3LYP
SOLVENT_METHOD = COSMO
$end
$solvent
dielectric 37.219
opticaldielectric 1.43
$end

--------------------------------------------------------------

             Standard Nuclear Orientation (Angstroms)
    I     Atom           X                Y                Z
 ----------------------------------------------------------------
    1      O       4.8917679603    -1.1551621871    -0.0000433048
    2      C       3.6639823910    -0.5144596655     0.0000556337
    3      C       3.6805872617     0.8952415733     0.0002248584
    4      C       2.4812314221     1.5784825865     0.0001530717
    5      C       1.2419481943     0.9062529155     0.0000100747
    6      C       0.0000045979     1.6849059526     0.0003177794
    7      O       0.0000470621     2.9379246092    -0.0004308072
    8      C      -1.2419507913     0.9062797202    -0.0000290045
    9      C      -2.4812501308     1.5785004052     0.0001455475
   10      C      -3.6805800353     0.8952469629     0.0002447001
   11      C      -3.6639693316    -0.5144836242     0.0000217677
   12      O      -4.8917690524    -1.1551267008    -0.0000751091
   13      C      -2.4728198766    -1.2057156347    -0.0002954123
   14      C      -1.2370711850    -0.5183517499    -0.0002547020
   15      C      -0.0000219552    -1.2912729408    -0.0007108215
   16      O      -0.0000444425    -2.5550624245     0.0005175373
   17      C       1.2370916504    -0.5183835654    -0.0001847978
   18      C       2.4728172635    -1.2057186904    -0.0001611967
   19      H       4.7294822993    -2.1041351648     0.0007558161
   20      H       4.6327468456     1.4137967989     0.0004355258
   21      H       2.4587383369     2.6623135082     0.0003820406
   22      H      -2.4587777314     2.6623332544     0.0004468192
   23      H      -4.6327651543     1.4137581608     0.0005340446
   24      H      -4.7295411653    -2.1041069987     0.0016572950
   25      H      -2.4409715286    -2.2918415889    -0.0006765922
   26      H       2.4410790273    -2.2918498162    -0.0005064694
 ----------------------------------------------------------------

   10    -839.5188042401      8.03e-06  Convergence criterion met
 Total energy in the final basis set =     -839.5188042401
    5    -839.6102431583      4.87e-06  Convergence criterion met
 Total energy in the final basis set =     -839.6102431583

                    Orbital Energies (a.u.)
 --------------------------------------------------------------

 Alpha MOs
 -- Occupied --
-19.1564 -19.1564 -19.0808 -19.0775 -10.2380 -10.2380 -10.2309 -10.2224
-10.1780 -10.1780 -10.1757 -10.1757 -10.1727 -10.1726 -10.1709 -10.1709
-10.1687 -10.1687  -1.0626  -1.0626  -1.0091  -1.0014  -0.8635  -0.8522
 -0.7852  -0.7547  -0.7536  -0.7381  -0.6703  -0.6542  -0.6177  -0.6144
 -0.5622  -0.5556  -0.5524  -0.5176  -0.4953  -0.4815  -0.4660  -0.4441
 -0.4315  -0.4304  -0.4300  -0.4265  -0.4167  -0.4149  -0.4118  -0.4007
 -0.3876  -0.3840  -0.3794  -0.3683  -0.3486  -0.3407  -0.3403  -0.3218
 -0.2655  -0.2613  -0.2514  -0.2462  -0.2421  -0.2296  -0.1436

 Beta MOs
 -- Occupied --
-19.1563 -19.1563 -19.0763 -19.0715 -10.2378 -10.2378 -10.2295 -10.2199
-10.1774 -10.1774 -10.1759 -10.1759 -10.1721 -10.1721 -10.1702 -10.1702
-10.1681 -10.1681  -1.0623  -1.0623  -1.0012  -0.9905  -0.8608  -0.8511
 -0.7814  -0.7521  -0.7517  -0.7367  -0.6627  -0.6528  -0.6154  -0.6134
 -0.5594  -0.5544  -0.5519  -0.5158  -0.4939  -0.4784  -0.4656  -0.4421
 -0.4295  -0.4286  -0.4256  -0.4232  -0.4145  -0.4130  -0.4072  -0.3925
 -0.3869  -0.3784  -0.3675  -0.3603  -0.3476  -0.3390  -0.3380  -0.3098
 -0.2565  -0.2497  -0.2467  -0.2372  -0.2347  -0.2254

          Ground-State Mulliken Net Atomic Charges

     Atom                 Charge (a.u.)    Spin (a.u.)
  --------------------------------------------------------
      1 O                    -0.314254       0.003207
      2 C                    -0.614374       0.010359
      3 C                    -0.255484       0.046528
      4 C                     0.124627       0.003690
      5 C                     0.125247       0.025506
      6 C                    -0.491514       0.081596
      7 O                    -0.488111       0.163234
      8 C                     0.125661       0.025540
      9 C                     0.124612       0.003665
     10 C                    -0.255035       0.046566
     11 C                    -0.614501       0.010335
     12 O                    -0.314219       0.003205
     13 C                     0.179985       0.072043
     14 C                     0.401579       0.035191
     15 C                    -0.601082       0.155993
     16 O                    -0.513406       0.223768
     17 C                     0.401962       0.035174
     18 C                     0.180767       0.072037
     19 H                     0.322727      -0.000148
     20 H                     0.227350      -0.003748
     21 H                     0.185685       0.000011
     22 H                     0.185658       0.000012
     23 H                     0.226829      -0.003751
     24 H                     0.322733      -0.000148
     25 H                     0.163214      -0.004933
     26 H                     0.163342      -0.004931
  --------------------------------------------------------
  Sum of atomic charges =    -1.000000

                    Cartesian Multipole Moments
 -----------------------------------------------------------------
    Charge (ESU x 10^10)
                -4.8032
    Dipole Moment (Debye)
         X       0.0012      Y      -3.1385      Z       0.0047
       Tot       3.1385
    Quadrupole Moments (Debye-Ang)
        XX    -120.3399     XY       0.0014     YY    -128.7786
        XZ      -0.0102     YZ      -0.0011     ZZ    -110.3550

 Total job time:  136.85s(wall), 653.08s(cpu)
        *  Thank you very much for using Q-Chem.  Have a nice day.  *
