 Gaussian 16, Revision A.03,
 Gaussian 16:  ES64L-G16RevA.03 25-Dec-2016

 --------------------------------------
 #P UB3LYP/6-311++G(d,p) nosym opt freq
 --------------------------------------

 --------
 Oxidized
 --------
 Symbolic Z-matrix:
 Charge =  0 Multiplicity = 1

 SCF Done:  E(UB3LYP) =  -1279.15214149     A.U. after   17 cycles
 SCF Done:  E(UB3LYP) =  -1279.15863877     A.U. after   16 cycles
 SCF Done:  E(UB3LYP) =  -1279.15958013     A.U. after   16 cycles
 SCF Done:  E(UB3LYP) =  -1279.15994504     A.U. after   17 cycles
 SCF Done:  E(UB3LYP) =  -1279.15985622     A.U. after   18 cycles
 SCF Done:  E(UB3LYP) =  -1279.16052878     A.U. after   16 cycles
 SCF Done:  E(UB3LYP) =  -1279.16096940     A.U. after   18 cycles
 SCF Done:  E(UB3LYP) =  -1279.16113595     A.U. after   15 cycles
 SCF Done:  E(UB3LYP) =  -1279.16133747     A.U. after   15 cycles
 SCF Done:  E(UB3LYP) =  -1279.16134160     A.U. after   14 cycles
 SCF Done:  E(UB3LYP) =  -1279.16136646     A.U. after   13 cycles
 SCF Done:  E(UB3LYP) =  -1279.16136885     A.U. after   13 cycles
 SCF Done:  E(UB3LYP) =  -1279.16136810     A.U. after   14 cycles
 SCF Done:  E(UB3LYP) =  -1279.16136924     A.U. after   13 cycles
 SCF Done:  E(UB3LYP) =  -1279.16136922     A.U. after   12 cycles
 SCF Done:  E(UB3LYP) =  -1279.16136931     A.U. after   12 cycles
 SCF Done:  E(UB3LYP) =  -1279.16136931     A.U. after   10 cycles
 Optimization completed on the basis of negligible forces.
    -- Stationary point found.
 Normal termination of Gaussian 16 at Thu Dec 28 21:19:58 2023.

 ----------------------------------------------------------------------
 #P Geom=AllCheck Guess=TCheck SCRF=Check GenChk UB3LYP/6-311++G(d,p) F
 req
 ----------------------------------------------------------------------

 Structure from the checkpoint file:  "297.chk"
 --------
 Oxidized
 --------
 Charge =  0 Multiplicity = 1

                          Input orientation:
 ---------------------------------------------------------------------
 Center     Atomic      Atomic             Coordinates (Angstroms)
 Number     Number       Type             X           Y           Z
 ---------------------------------------------------------------------
      1          6           0       -0.532592    2.961656    0.712761
      2          6           0       -1.666740    2.600072   -0.007527
      3          6           0       -1.637787    1.477985   -0.837592
      4          6           0        0.630907    2.196257    0.602622
      5          6           0        0.663030    1.067892   -0.231727
      6          6           0       -0.476859    0.715581   -0.952409
      7          6           0        1.835203    2.559086    1.369081
      8          6           0        3.035652    1.683573    1.261947
      9          6           0        3.069072    0.559233    0.494028
     10          6           0        1.913378    0.246009   -0.388169
     11          8           0        1.906426    3.527265    2.119262
     12          8           0        1.963334   -0.635195   -1.225881
     13          8           0        4.070807    2.086636    2.006208
     14          1           0       -0.529633    3.828773    1.361728
     15          1           0       -2.571547    3.190901    0.075588
     16          1           0       -2.521783    1.198610   -1.399512
     17          1           0       -0.435161   -0.153114   -1.597484
     18          1           0        3.769636    2.892274    2.469772
     19         16           0        4.564482   -0.387774    0.401832
     20          6           0        3.975355   -2.086015    0.461250
     21          6           0        4.329514   -2.966233   -0.560679
     22          6           0        3.257181   -2.558654    1.560884
     23          6           0        3.965001   -4.307329   -0.478744
     24          6           0        2.878414   -3.896892    1.619458
     25          6           0        3.230991   -4.796141    0.606991
     26          6           0        2.854710   -6.254923    0.697105
     27          1           0        4.868388   -2.598507   -1.425299
     28          1           0        2.996701   -1.884763    2.368777
     29          1           0        4.242142   -4.980591   -1.283698
     30          1           0        2.309973   -4.249281    2.474433
     31          1           0        1.934188   -6.394985    1.268382
     32          1           0        3.641017   -6.832478    1.195738
     33          1           0        2.708863   -6.690468   -0.294127
 ---------------------------------------------------------------------

 SCF Done:  E(UB3LYP) =  -1279.16136931     A.U. after    2 cycles

 Alpha  occ. eigenvalues --  -88.86469 -19.18097 -19.15004 -19.12844 -10.29481
 Alpha  occ. eigenvalues --  -10.28481 -10.27384 -10.23020 -10.21744 -10.21630
 Alpha  occ. eigenvalues --  -10.20923 -10.20901 -10.20877 -10.20766 -10.20461
 Alpha  occ. eigenvalues --  -10.19062 -10.18379 -10.18184 -10.17947 -10.17826
 Alpha  occ. eigenvalues --  -10.17324  -7.95034  -5.91442  -5.91031  -5.90420
 Alpha  occ. eigenvalues --   -1.11272  -1.06851  -1.06424  -0.89987  -0.87465
 Alpha  occ. eigenvalues --   -0.85002  -0.80826  -0.78762  -0.78224  -0.75555
 Alpha  occ. eigenvalues --   -0.73951  -0.70131  -0.67877  -0.65966  -0.63357
 Alpha  occ. eigenvalues --   -0.61836  -0.61147  -0.58506  -0.57934  -0.54849
 Alpha  occ. eigenvalues --   -0.52438  -0.50575  -0.50117  -0.48341  -0.47829
 Alpha  occ. eigenvalues --   -0.47361  -0.46801  -0.46073  -0.45958  -0.44624
 Alpha  occ. eigenvalues --   -0.43086  -0.43021  -0.42676  -0.42550  -0.41406
 Alpha  occ. eigenvalues --   -0.41001  -0.39558  -0.39314  -0.38269  -0.38006
 Alpha  occ. eigenvalues --   -0.37658  -0.36155  -0.35155  -0.33977  -0.30615
 Alpha  occ. eigenvalues --   -0.29982  -0.28987  -0.28674  -0.28211  -0.26299
 Alpha  occ. eigenvalues --   -0.25626  -0.22520
 Alpha virt. eigenvalues --   -0.12820  -0.06276  -0.03704  -0.02765  -0.01910
 Alpha virt. eigenvalues --   -0.01332  -0.00644  -0.00171   0.01018   0.01082
 Alpha virt. eigenvalues --    0.01227   0.01892   0.02442   0.02916   0.03314

  Beta  occ. eigenvalues --  -88.86469 -19.18097 -19.15004 -19.12844 -10.29481
  Beta  occ. eigenvalues --  -10.28481 -10.27384 -10.23020 -10.21744 -10.21630
  Beta  occ. eigenvalues --  -10.20923 -10.20901 -10.20877 -10.20766 -10.20461
  Beta  occ. eigenvalues --  -10.19062 -10.18379 -10.18184 -10.17947 -10.17826
  Beta  occ. eigenvalues --  -10.17324  -7.95034  -5.91442  -5.91031  -5.90420
  Beta  occ. eigenvalues --   -1.11272  -1.06851  -1.06424  -0.89987  -0.87465
  Beta  occ. eigenvalues --   -0.85002  -0.80826  -0.78762  -0.78224  -0.75555
  Beta  occ. eigenvalues --   -0.73951  -0.70131  -0.67877  -0.65966  -0.63357
  Beta  occ. eigenvalues --   -0.61836  -0.61147  -0.58506  -0.57934  -0.54849
  Beta  occ. eigenvalues --   -0.52438  -0.50575  -0.50117  -0.48341  -0.47829
  Beta  occ. eigenvalues --   -0.47361  -0.46801  -0.46073  -0.45958  -0.44624
  Beta  occ. eigenvalues --   -0.43086  -0.43021  -0.42676  -0.42550  -0.41406
  Beta  occ. eigenvalues --   -0.41001  -0.39558  -0.39314  -0.38269  -0.38006
  Beta  occ. eigenvalues --   -0.37658  -0.36155  -0.35155  -0.33977  -0.30615
  Beta  occ. eigenvalues --   -0.29982  -0.28987  -0.28674  -0.28211  -0.26299
  Beta  occ. eigenvalues --   -0.25626  -0.22520
  Beta virt. eigenvalues --   -0.12820  -0.06276  -0.03704  -0.02765  -0.01910
  Beta virt. eigenvalues --   -0.01332  -0.00644  -0.00171   0.01018   0.01082
  Beta virt. eigenvalues --    0.01227   0.01892   0.02442   0.02916   0.03314

 Mulliken charges and spin densities:
               1          2
     1  C   -0.039242   0.000000
     2  C   -0.419965   0.000000
     3  C   -0.366642   0.000000
     4  C    0.616260  -0.000000
     5  C    0.427780   0.000000
     6  C    0.061031   0.000000
     7  C   -0.682149   0.000000
     8  C   -0.651376  -0.000000
     9  C    1.269397   0.000000
    10  C   -0.859299  -0.000000
    11  O   -0.274638   0.000000
    12  O   -0.154201   0.000000
    13  O   -0.138241  -0.000000
    14  H    0.195860   0.000000
    15  H    0.179206  -0.000000
    16  H    0.179284  -0.000000
    17  H    0.205722   0.000000
    18  H    0.280887  -0.000000
    19  S   -0.118030  -0.000000
    20  C    0.931525   0.000000
    21  C   -0.447431  -0.000000
    22  C   -0.339863   0.000000
    23  C   -0.398693  -0.000000
    24  C   -0.493149   0.000000
    25  C    0.491507   0.000000
    26  C   -0.639799  -0.000000
    27  H    0.196888   0.000000
    28  H    0.187958   0.000000
    29  H    0.167798   0.000000
    30  H    0.170324  -0.000000
    31  H    0.145991  -0.000000
    32  H    0.169843   0.000000
    33  H    0.145457   0.000000
 Sum of Mulliken charges =  -0.00000   0.00000

 Dipole moment (field-independent basis, Debye):
    X=             -3.4971    Y=             -0.7660    Z=              0.0377  Tot=              3.5802
 Quadrupole moment (field-independent basis, Debye-Ang):
   XX=           -135.5181   YY=           -116.7800   ZZ=           -129.3700
   XY=             -7.9328   XZ=             -0.9556   YZ=             -3.1100

  Exact polarizability: 239.446 -42.902 315.921   9.153  44.044 181.887
 Approx polarizability: 370.783 -35.617 487.571   0.379 124.194 346.450

                      1                      2                      3
                      A                      A                      A
 Frequencies --     20.4977                22.8227                27.1620
 Red. masses --      3.1654                 2.0941                 4.4847
 Frc consts  --      0.0008                 0.0006                 0.0019
 IR Inten    --      0.0865                 0.7627                 0.7528

                      4                      5                      6
                      A                      A                      A
 Frequencies --     30.8992                64.8687                92.1648
 Red. masses --      1.7823                 7.6487                 7.4379
 Frc consts  --      0.0010                 0.0190                 0.0372
 IR Inten    --      0.3218                 3.1669                 0.8547

                      7                      8                      9
                      A                      A                      A
 Frequencies --    119.5108               131.3667               166.4857
 Red. masses --      4.7565                 5.8907                 7.2859
 Frc consts  --      0.0400                 0.0599                 0.1190
 IR Inten    --      0.8194                 0.3301                 0.5833

                     10                     11                     12
                      A                      A                      A
 Frequencies --    181.5006               230.0703               263.1551
 Red. masses --      7.2548                 5.4195                 6.1278
 Frc consts  --      0.1408                 0.1690                 0.2500
 IR Inten    --      2.2547                 1.8539                 1.7858

                     13                     14                     15
                      A                      A                      A
 Frequencies --    280.1891               289.8871               345.2197
 Red. masses --      6.9023                 5.7934                 5.5630
 Frc consts  --      0.3193                 0.2868                 0.3906
 IR Inten    --      0.2728                 1.7914                 4.3543

                     16                     17                     18
                      A                      A                      A
 Frequencies --    365.5748               380.2175               393.4025
 Red. masses --      3.7735                 6.2103                 6.6885
 Frc consts  --      0.2971                 0.5290                 0.6099
 IR Inten    --      3.7376                 3.1734                15.1584

                     19                     20                     21
                      A                      A                      A
 Frequencies --    396.7668               412.6841               416.3297
 Red. masses --      8.3233                 6.2476                 3.4033
 Frc consts  --      0.7720                 0.6269                 0.3476
 IR Inten    --     20.6991                 5.5391                 1.5908

                     22                     23                     24
                      A                      A                      A
 Frequencies --    435.4475               447.6710               495.0013
 Red. masses --      4.0069                 5.2996                 9.5903
 Frc consts  --      0.4476                 0.6258                 1.3845
 IR Inten    --      0.2575                 1.6232                 5.2859

                     25                     26                     27
                      A                      A                      A
 Frequencies --    508.1082               567.5811               592.0573
 Red. masses --      3.0751                 6.8469                 8.5196
 Frc consts  --      0.4678                 1.2996                 1.7595
 IR Inten    --     18.9577                12.5478                 0.4741

                     28                     29                     30
                      A                      A                      A
 Frequencies --    631.3474               650.5778               662.5638
 Red. masses --      5.5798                 6.9645                 1.1224
 Frc consts  --      1.3104                 1.7368                 0.2903
 IR Inten    --      2.0102                 0.0905                69.9335

                     31                     32                     33
                      A                      A                      A
 Frequencies --    670.0151               699.2236               717.4319
 Red. masses --      6.8353                 4.6641                 4.2875
 Frc consts  --      1.8079                 1.3435                 1.3002
 IR Inten    --      7.6492                14.3821                 2.7499

                     34                     35                     36
                      A                      A                      A
 Frequencies --    724.5949               732.9853               773.9916
 Red. masses --      5.2992                 2.5780                 6.8140
 Frc consts  --      1.6393                 0.8161                 2.4050
 IR Inten    --      2.0168                83.6068                 2.0720

                     37                     38                     39
                      A                      A                      A
 Frequencies --    803.1768               808.5359               820.9376
 Red. masses --      1.7727                 3.5486                 1.6506
 Frc consts  --      0.6738                 1.3668                 0.6554
 IR Inten    --     16.0068                12.1287                15.1331

                     40                     41                     42
                      A                      A                      A
 Frequencies --    841.5480               841.9101               879.2323
 Red. masses --      3.7238                 1.5003                 6.5814
 Frc consts  --      1.5538                 0.6266                 2.9976
 IR Inten    --     55.1563                 7.8779                14.5765

                     43                     44                     45
                      A                      A                      A
 Frequencies --    913.3695               959.1420               979.0633
 Red. masses --      1.3435                 1.2929                 1.3700
 Frc consts  --      0.6604                 0.7008                 0.7737
 IR Inten    --      0.3497                 0.9981                 0.1762

                     46                     47                     48
                      A                      A                      A
 Frequencies --    997.2575              1005.9861              1015.7521
 Red. masses --      1.3801                 1.4097                 1.3258
 Frc consts  --      0.8087                 0.8406                 0.8059
 IR Inten    --      1.2247                 0.1456                 0.1243

                     49                     50                     51
                      A                      A                      A
 Frequencies --   1025.6633              1032.2222              1060.4778
 Red. masses --      7.2265                 3.6828                 1.5609
 Frc consts  --      4.4790                 2.3119                 1.0343
 IR Inten    --     73.6137                14.3902                19.4105

                     52                     53                     54
                      A                      A                      A
 Frequencies --   1060.6695              1099.1227              1106.7541
 Red. masses --      2.2065                 3.3496                 2.8470
 Frc consts  --      1.4625                 2.3842                 2.0547
 IR Inten    --     10.8964                 7.7568                 1.6223

                     55                     56                     57
                      A                      A                      A
 Frequencies --   1135.4981              1136.9629              1184.1560
 Red. masses --      1.3224                 2.5078                 1.1307
 Frc consts  --      1.0046                 1.9100                 0.9341
 IR Inten    --      7.4443                50.5964                 4.0308

                     58                     59                     60
                      A                      A                      A
 Frequencies --   1205.6486              1228.6776              1230.3597
 Red. masses --      1.1362                 3.0862                 2.6392
 Frc consts  --      0.9731                 2.7450                 2.3539
 IR Inten    --      7.8436                10.4755                24.7946

                     61                     62                     63
                      A                      A                      A
 Frequencies --   1251.5120              1297.4200              1307.9574
 Red. masses --      3.0136                 2.6931                 2.4129
 Frc consts  --      2.7810                 2.6709                 2.4321
 IR Inten    --     45.3822               211.5858               263.3766

                     64                     65                     66
                      A                      A                      A
 Frequencies --   1312.2450              1331.8828              1362.6836
 Red. masses --      4.7977                 1.3994                 6.4550
 Frc consts  --      4.8675                 1.4626                 7.0621
 IR Inten    --     76.3174                 1.3053                56.6647

                     67                     68                     69
                      A                      A                      A
 Frequencies --   1388.9750              1414.4089              1425.8813
 Red. masses --      2.4212                 1.2463                 2.4957
 Frc consts  --      2.7521                 1.4690                 2.9896
 IR Inten    --    551.8246                 1.2340                 2.8773

                     70                     71                     72
                      A                      A                      A
 Frequencies --   1483.8408              1489.9163              1492.0414
 Red. masses --      2.3896                 1.0508                 1.1026
 Frc consts  --      3.1000                 1.3744                 1.4462
 IR Inten    --      8.9141                 6.9829                 9.9392

                     73                     74                     75
                      A                      A                      A
 Frequencies --   1506.3902              1522.8291              1603.3146
 Red. masses --      2.6486                 2.3292                 5.7816
 Frc consts  --      3.5411                 3.1824                 8.7566
 IR Inten    --      8.9176                30.1115                 7.0730

                     76                     77                     78
                      A                      A                      A
 Frequencies --   1611.4398              1627.3720              1635.8477
 Red. masses --      6.6130                 5.9285                 5.7085
 Frc consts  --     10.1176                 9.2506                 9.0003
 IR Inten    --     10.9155                69.1629                 3.7309

                     79                     80                     81
                      A                      A                      A
 Frequencies --   1651.5949              1696.5986              1720.5393
 Red. masses --      7.3207                11.0714                12.7168
 Frc consts  --     11.7655                18.7764                22.1798
 IR Inten    --     86.5377               328.2588               156.9637

                     82                     83                     84
                      A                      A                      A
 Frequencies --   3020.4211              3074.8405              3101.6025
 Red. masses --      1.0409                 1.0941                 1.1024
 Frc consts  --      5.5949                 6.0946                 6.2481
 IR Inten    --     36.7032                17.0003                15.0748

                     85                     86                     87
                      A                      A                      A
 Frequencies --   3156.6502              3159.3111              3172.1851
 Red. masses --      1.0883                 1.0890                 1.0871
 Frc consts  --      6.3895                 6.4039                 6.4451
 IR Inten    --     12.8006                17.7730                 3.1570

                     88                     89                     90
                      A                      A                      A
 Frequencies --   3182.5850              3186.2482              3191.7335
 Red. masses --      1.0934                 1.0916                 1.0935
 Frc consts  --      6.5254                 6.5294                 6.5635
 IR Inten    --      5.5411                 8.4993                 3.7278

                     91                     92                     93
                      A                      A                      A
 Frequencies --   3200.1849              3203.7566              3603.5812
 Red. masses --      1.0934                 1.0946                 1.0640
 Frc consts  --      6.5976                 6.6196                 8.1408
 IR Inten    --      1.8679                 8.0707               173.2850

 - Thermochemistry -
 -------------------
 Temperature   298.150 Kelvin.  Pressure   1.00000 Atm.
 Atom     1 has atomic number  6 and mass  12.00000

 Molecular mass:   296.05072 amu.
 Principal axes and moments of inertia in atomic units:
                           1         2         3
     Eigenvalues --  3551.67838********************
           X           -0.44212   0.83088  -0.33788
           Y            0.89676   0.40166  -0.18570
           Z            0.01859   0.38510   0.92269
 This molecule is an asymmetric top.
 Rotational symmetry number  1.
 Warning -- assumption of classical behavior for rotation
           may cause significant error
 Rotational temperatures (Kelvin)      0.02439     0.00848     0.00703
 Rotational constants (GHZ):           0.50814     0.17669     0.14656
 Zero-point vibrational energy     644184.8 (Joules/Mol)
                                  153.96386 (Kcal/Mol)
 Warning -- explicit consideration of  27 degrees of freedom as
           vibrations may cause significant error
 Vibrational temperatures:     29.49    32.84    39.08    44.46    93.33
          (Kelvin)            132.60   171.95   189.01   239.54   261.14
                              331.02   378.62   403.13   417.08   496.69
                              525.98   547.05   566.02   570.86   593.76
                              599.01   626.51   644.10   712.20   731.05
                              816.62   851.84   908.37   936.04   953.28
                              964.00  1006.03  1032.22  1042.53  1054.60
                             1113.60  1155.59  1163.30  1181.15  1210.80
                             1211.32  1265.02  1314.14  1379.99  1408.65
                             1434.83  1447.39  1461.44  1475.70  1485.14
                             1525.79  1526.07  1581.39  1592.37  1633.73
                             1635.84  1703.74  1734.66  1767.79  1770.21
                             1800.65  1866.70  1881.86  1888.03  1916.28
                             1960.60  1998.43  2035.02  2051.53  2134.92
                             2143.66  2146.71  2167.36  2191.01  2306.81
                             2318.50  2341.43  2353.62  2376.28  2441.03
                             2475.47  4345.71  4424.01  4462.51  4541.72
                             4545.54  4564.07  4579.03  4584.30  4592.19
                             4604.35  4609.49  5184.75

 Zero-point correction=                           0.245357 (Hartree/Particle)
 Thermal correction to Energy=                    0.263438
 Thermal correction to Enthalpy=                  0.264382
 Thermal correction to Gibbs Free Energy=         0.195948
 Sum of electronic and zero-point Energies=          -1278.916012
 Sum of electronic and thermal Energies=             -1278.897932
 Sum of electronic and thermal Enthalpies=           -1278.896987
 Sum of electronic and thermal Free Energies=        -1278.965422

                     E (Thermal)             CV                S
                      KCal/Mol        Cal/Mol-Kelvin    Cal/Mol-Kelvin
 Total                  165.310             68.847            144.032
 Electronic               0.000              0.000              0.000
 Translational            0.889              2.981             42.953
 Rotational               0.889              2.981             34.457
 Vibrational            163.532             62.885             66.623
 Vibration     1          0.593              1.986              6.585
 Vibration     2          0.593              1.985              6.372
 Vibration     3          0.593              1.984              6.027
 Vibration     4          0.594              1.984              5.771
 Vibration     5          0.597              1.971              4.303
 Vibration     6          0.602              1.955              3.614
 Vibration     7          0.609              1.933              3.108
 Vibration     8          0.612              1.922              2.926
 Vibration     9          0.624              1.884              2.475
 Vibration    10          0.630              1.865              2.313
 Vibration    11          0.652              1.795              1.878
 Vibration    12          0.670              1.740              1.641
 Vibration    13          0.680              1.710              1.533
 Vibration    14          0.686              1.693              1.475
 Vibration    15          0.724              1.585              1.188
 Vibration    16          0.739              1.543              1.098
 Vibration    17          0.750              1.512              1.038
 Vibration    18          0.761              1.484              0.987
 Vibration    19          0.763              1.477              0.975
 Vibration    20          0.776              1.443              0.917
 Vibration    21          0.780              1.435              0.905
 Vibration    22          0.796              1.393              0.841
 Vibration    23          0.807              1.366              0.803
 Vibration    24          0.851              1.261              0.671
 Vibration    25          0.863              1.232              0.638
 Vibration    26          0.924              1.101              0.509
 Vibration    27          0.950              1.049              0.464

 Optimization completed on the basis of negligible forces.
    -- Stationary point found.
 Normal termination of Gaussian 16 at Thu Dec 28 22:18:03 2023.
