 Q-Chem 5.4, Q-Chem, Inc., Pleasanton, CA (2021)
 Q-Chem 5.4.0 for Intel X86 EM64T Linux

User input:
--------------------------------------------------------------
$molecule
0 1
O                  5.0446640000     -0.1674860000     -0.4368120000
C                  3.7370170000      0.1587360000     -0.2525560000
C                  3.4496190000      1.4943940000      0.0603270000
C                  2.1367290000      1.8835560000      0.2586750000
C                  1.0881020000      0.9592180000      0.1509190000
C                 -0.3069190000      1.4080310000      0.3692060000
O                 -0.5770800000      2.5680800000      0.6427250000
C                 -1.3860580000      0.3781080000      0.2412600000
C                 -2.7074350000      0.7733860000      0.4416080000
C                 -3.7369890000     -0.1587440000      0.3303480000
O                 -5.0447060000      0.1675310000      0.5144670000
C                 -3.4496130000     -1.4944020000      0.0175520000
C                 -2.1366840000     -1.8835680000     -0.1807320000
C                 -1.0881090000     -0.9592270000     -0.0729590000
C                  0.3069450000     -1.4080350000     -0.2912010000
O                  0.5771110000     -2.5680920000     -0.5646800000
C                  1.3860700000     -0.3780960000     -0.1632930000
C                  2.7074530000     -0.7733730000     -0.3637120000
H                  5.1260750000     -1.1049000000     -0.6454220000
H                  4.2664700000      2.2010590000      0.1414050000
H                  1.8949750000      2.9110170000      0.5011620000
H                 -2.9063330000      1.8124950000      0.6829070000
H                 -5.1261130000      1.1049280000      0.7231960000
H                 -4.2664790000     -2.2010460000     -0.0635220000
H                 -1.8949690000     -2.9110530000     -0.4231520000
H                  2.9062550000     -1.8125170000     -0.6049610000
$end
$rem
MAX_SCF_CYCLES=200
BASIS  =  6-311++G(d,p)
GUI  =  2
JOB_TYPE  =  SP
METHOD  =  B3LYP
SOLVENT_METHOD = PCM
$end
$pcm
theory = CPCM
$end
$solvent
dielectric 37.219
opticaldielectric 1.43
$end

--------------------------------------------------------------

             Standard Nuclear Orientation (Angstroms)
    I     Atom           X                Y                Z
 ----------------------------------------------------------------
    1      O       5.0446640000    -0.1674860000    -0.4368120000
    2      C       3.7370170000     0.1587360000    -0.2525560000
    3      C       3.4496190000     1.4943940000     0.0603270000
    4      C       2.1367290000     1.8835560000     0.2586750000
    5      C       1.0881020000     0.9592180000     0.1509190000
    6      C      -0.3069190000     1.4080310000     0.3692060000
    7      O      -0.5770800000     2.5680800000     0.6427250000
    8      C      -1.3860580000     0.3781080000     0.2412600000
    9      C      -2.7074350000     0.7733860000     0.4416080000
   10      C      -3.7369890000    -0.1587440000     0.3303480000
   11      O      -5.0447060000     0.1675310000     0.5144670000
   12      C      -3.4496130000    -1.4944020000     0.0175520000
   13      C      -2.1366840000    -1.8835680000    -0.1807320000
   14      C      -1.0881090000    -0.9592270000    -0.0729590000
   15      C       0.3069450000    -1.4080350000    -0.2912010000
   16      O       0.5771110000    -2.5680920000    -0.5646800000
   17      C       1.3860700000    -0.3780960000    -0.1632930000
   18      C       2.7074530000    -0.7733730000    -0.3637120000
   19      H       5.1260750000    -1.1049000000    -0.6454220000
   20      H       4.2664700000     2.2010590000     0.1414050000
   21      H       1.8949750000     2.9110170000     0.5011620000
   22      H      -2.9063330000     1.8124950000     0.6829070000
   23      H      -5.1261130000     1.1049280000     0.7231960000
   24      H      -4.2664790000    -2.2010460000    -0.0635220000
   25      H      -1.8949690000    -2.9110530000    -0.4231520000
   26      H       2.9062550000    -1.8125170000    -0.6049610000
 ----------------------------------------------------------------

    9    -839.4779175484      2.25e-06  Convergence criterion met
 Total energy in the final basis set =     -839.4779175484

                    Orbital Energies (a.u.)
 --------------------------------------------------------------

 Alpha MOs
 -- Occupied --
-19.1732 -19.1732 -19.1291 -19.1291 -10.2818 -10.2818 -10.2638 -10.2638
-10.2111 -10.2111 -10.2018 -10.2017 -10.1994 -10.1994 -10.1959 -10.1959
-10.1943 -10.1943  -1.0856  -1.0856  -1.0648  -1.0631  -0.8930  -0.8802
 -0.8093  -0.7816  -0.7772  -0.7662  -0.6889  -0.6822  -0.6430  -0.6411
 -0.5892  -0.5847  -0.5652  -0.5640  -0.5118  -0.5002  -0.4953  -0.4928
 -0.4586  -0.4585  -0.4551  -0.4508  -0.4502  -0.4360  -0.4258  -0.4243
 -0.4202  -0.4186  -0.4028  -0.3902  -0.3757  -0.3659  -0.3633  -0.3474
 -0.2882  -0.2859  -0.2795  -0.2759  -0.2612  -0.2488

          Ground-State Mulliken Net Atomic Charges

     Atom                 Charge (a.u.)
  ----------------------------------------
      1 O                    -0.266474
      2 C                    -0.689801
      3 C                    -0.171515
      4 C                     0.197669
      5 C                     0.173873
      6 C                    -0.598433
      7 O                    -0.300193
      8 C                     0.382180
      9 C                     0.305558
     10 C                    -0.689740
     11 O                    -0.266524
     12 C                    -0.171116
     13 C                     0.197753
     14 C                     0.173748
     15 C                    -0.598432
     16 O                    -0.300183
     17 C                     0.382001
     18 C                     0.305389
     19 H                     0.329953
     20 H                     0.246744
     21 H                     0.202230
     22 H                     0.188175
     23 H                     0.329956
     24 H                     0.246776
     25 H                     0.202249
     26 H                     0.188159
  ----------------------------------------
  Sum of atomic charges =     0.000000

                    Cartesian Multipole Moments
 -----------------------------------------------------------------
    Charge (ESU x 10^10)
                 0.0000
    Dipole Moment (Debye)
         X       0.0007      Y      -0.0002      Z       0.0000
       Tot       0.0008
    Quadrupole Moments (Debye-Ang)
        XX     -81.7522     XY      -7.7801     YY    -108.1153
        XZ      -3.7147     YZ       0.0540     ZZ    -104.9097

 Total job time:  42.07s(wall), 325.00s(cpu)
        *  Thank you very much for using Q-Chem.  Have a nice day.  *
