 Gaussian 16, Revision A.03,
 Gaussian 16:  ES64L-G16RevA.03 25-Dec-2016

 --------------------------------------
 #P UB3LYP/6-311++G(d,p) nosym opt freq
 --------------------------------------

 --------
 Oxidized
 --------
 Symbolic Z-matrix:
 Charge =  0 Multiplicity = 1

 SCF Done:  E(UB3LYP) =  -839.454121709     A.U. after   15 cycles
 Optimization completed.
    -- Stationary point found.
 Normal termination of Gaussian 16 at Sun Jan  7 04:59:10 2024.

 ----------------------------------------------------------------------
 #P Geom=AllCheck Guess=TCheck SCRF=Check GenChk UB3LYP/6-311++G(d,p) F
 req
 ----------------------------------------------------------------------

 Structure from the checkpoint file:  "188.chk"
 --------
 Oxidized
 --------
 Charge =  0 Multiplicity = 1

                          Input orientation:
 ---------------------------------------------------------------------
 Center     Atomic      Atomic             Coordinates (Angstroms)
 Number     Number       Type             X           Y           Z
 ---------------------------------------------------------------------
      1          8           0        5.044664   -0.167486   -0.436812
      2          6           0        3.737017    0.158736   -0.252556
      3          6           0        3.449619    1.494394    0.060327
      4          6           0        2.136729    1.883556    0.258675
      5          6           0        1.088102    0.959218    0.150919
      6          6           0       -0.306919    1.408031    0.369206
      7          8           0       -0.577080    2.568080    0.642725
      8          6           0       -1.386058    0.378108    0.241260
      9          6           0       -2.707435    0.773386    0.441608
     10          6           0       -3.736989   -0.158744    0.330348
     11          8           0       -5.044706    0.167531    0.514467
     12          6           0       -3.449613   -1.494402    0.017552
     13          6           0       -2.136684   -1.883568   -0.180732
     14          6           0       -1.088109   -0.959227   -0.072959
     15          6           0        0.306945   -1.408035   -0.291201
     16          8           0        0.577111   -2.568092   -0.564680
     17          6           0        1.386070   -0.378096   -0.163293
     18          6           0        2.707453   -0.773373   -0.363712
     19          1           0        5.126075   -1.104900   -0.645422
     20          1           0        4.266470    2.201059    0.141405
     21          1           0        1.894975    2.911017    0.501162
     22          1           0       -2.906333    1.812495    0.682907
     23          1           0       -5.126113    1.104928    0.723196
     24          1           0       -4.266479   -2.201046   -0.063522
     25          1           0       -1.894969   -2.911053   -0.423152
     26          1           0        2.906255   -1.812517   -0.604961
 ---------------------------------------------------------------------

 SCF Done:  E(UB3LYP) =  -839.454121709     A.U. after    1 cycles

 Alpha  occ. eigenvalues --  -19.18260 -19.18259 -19.12513 -19.12512 -10.27835
 Alpha  occ. eigenvalues --  -10.27834 -10.26863 -10.26863 -10.21357 -10.21356
 Alpha  occ. eigenvalues --  -10.20397 -10.20396 -10.20273 -10.20273 -10.20092
 Alpha  occ. eigenvalues --  -10.20091 -10.19964 -10.19964  -1.09547  -1.09543
 Alpha  occ. eigenvalues --   -1.05991  -1.05798  -0.89556  -0.88381  -0.81268
 Alpha  occ. eigenvalues --   -0.78492  -0.78112  -0.77031  -0.69076  -0.68763
 Alpha  occ. eigenvalues --   -0.64793  -0.64721  -0.59200  -0.59062  -0.57282
 Alpha  occ. eigenvalues --   -0.56746  -0.51216  -0.50293  -0.49892  -0.49797
 Alpha  occ. eigenvalues --   -0.45995  -0.45928  -0.45695  -0.45111  -0.44919
 Alpha  occ. eigenvalues --   -0.44182  -0.42920  -0.42826  -0.42522  -0.41389
 Alpha  occ. eigenvalues --   -0.40830  -0.39248  -0.38147  -0.36985  -0.36740
 Alpha  occ. eigenvalues --   -0.34739  -0.28805  -0.28294  -0.28182  -0.27162
 Alpha  occ. eigenvalues --   -0.26464  -0.25274
 Alpha virt. eigenvalues --   -0.11413  -0.07296  -0.03031  -0.02908  -0.01920
 Alpha virt. eigenvalues --   -0.01789   0.00294   0.00614   0.01952   0.03299
 Alpha virt. eigenvalues --    0.03417   0.03583   0.03592   0.04178   0.04921

  Beta  occ. eigenvalues --  -19.18260 -19.18259 -19.12513 -19.12512 -10.27835
  Beta  occ. eigenvalues --  -10.27834 -10.26863 -10.26863 -10.21357 -10.21356
  Beta  occ. eigenvalues --  -10.20397 -10.20396 -10.20273 -10.20273 -10.20092
  Beta  occ. eigenvalues --  -10.20091 -10.19964 -10.19964  -1.09547  -1.09543
  Beta  occ. eigenvalues --   -1.05991  -1.05798  -0.89556  -0.88381  -0.81268
  Beta  occ. eigenvalues --   -0.78492  -0.78112  -0.77031  -0.69076  -0.68763
  Beta  occ. eigenvalues --   -0.64793  -0.64721  -0.59200  -0.59062  -0.57282
  Beta  occ. eigenvalues --   -0.56746  -0.51216  -0.50293  -0.49892  -0.49797
  Beta  occ. eigenvalues --   -0.45995  -0.45928  -0.45695  -0.45111  -0.44919
  Beta  occ. eigenvalues --   -0.44182  -0.42920  -0.42826  -0.42522  -0.41389
  Beta  occ. eigenvalues --   -0.40830  -0.39248  -0.38147  -0.36985  -0.36740
  Beta  occ. eigenvalues --   -0.34739  -0.28805  -0.28294  -0.28182  -0.27162
  Beta  occ. eigenvalues --   -0.26464  -0.25274
  Beta virt. eigenvalues --   -0.11413  -0.07296  -0.03031  -0.02908  -0.01920
  Beta virt. eigenvalues --   -0.01789   0.00294   0.00614   0.01952   0.03299
  Beta virt. eigenvalues --    0.03417   0.03583   0.03592   0.04178   0.04921

 Mulliken charges and spin densities:
               1          2
     1  O   -0.216320   0.000000
     2  C   -0.555852  -0.000000
     3  C   -0.080419   0.000000
     4  C    0.211616   0.000000
     5  C    0.186746   0.000000
     6  C   -0.744367  -0.000000
     7  O   -0.223175   0.000000
     8  C    0.354334   0.000000
     9  C    0.241203   0.000000
    10  C   -0.555834   0.000000
    11  O   -0.216356  -0.000000
    12  C   -0.080430  -0.000000
    13  C    0.211642  -0.000000
    14  C    0.186741  -0.000000
    15  C   -0.744465   0.000000
    16  O   -0.223168  -0.000000
    17  C    0.354437  -0.000000
    18  C    0.241193  -0.000000
    19  H    0.276479  -0.000000
    20  H    0.209272   0.000000
    21  H    0.189681  -0.000000
    22  H    0.150806  -0.000000
    23  H    0.276472   0.000000
    24  H    0.209273  -0.000000
    25  H    0.189682  -0.000000
    26  H    0.150808   0.000000
 Sum of Mulliken charges =  -0.00000  -0.00000

 Dipole moment (field-independent basis, Debye):
    X=              0.0005    Y=             -0.0002    Z=              0.0000  Tot=              0.0006
 Quadrupole moment (field-independent basis, Debye-Ang):
   XX=            -87.7326   YY=           -106.2522   ZZ=           -104.7688
   XY=             -6.2184   XZ=             -2.8445   YZ=              0.2862

  Exact polarizability: 280.144   2.871 187.591 -16.547  22.263  89.360
 Approx polarizability: 415.843 -23.173 363.122 -29.561  51.404 147.604

                      1                      2                      3
                      A                      A                      A
 Frequencies --     36.6319                91.3893               105.4442
 Red. masses --      9.8994                 4.6878                 6.6861
 Frc consts  --      0.0078                 0.0231                 0.0438
 IR Inten    --      3.0880                 0.0510                 0.0000

                      4                      5                      6
                      A                      A                      A
 Frequencies --    140.2359               169.5760               172.1614
 Red. masses --      7.6703                 6.7444                 6.5973
 Frc consts  --      0.0889                 0.1143                 0.1152
 IR Inten    --      4.6330                 1.9524                 0.0000

                      7                      8                      9
                      A                      A                      A
 Frequencies --    243.6520               271.1601               302.5615
 Red. masses --      7.6949                 5.6520                 4.8043
 Frc consts  --      0.2691                 0.2448                 0.2591
 IR Inten    --      0.0000                 1.6713                 0.0000

                     10                     11                     12
                      A                      A                      A
 Frequencies --    314.5421               367.7805               369.9328
 Red. masses --      8.7307                 1.1682                 1.1291
 Frc consts  --      0.5089                 0.0931                 0.0910
 IR Inten    --      0.0000                 0.0960               228.0714

                     13                     14                     15
                      A                      A                      A
 Frequencies --    373.6566               395.2490               415.1197
 Red. masses --     10.0778                 7.4581                 5.0891
 Frc consts  --      0.8290                 0.6865                 0.5167
 IR Inten    --     23.5246                 0.0000                10.9285

                     16                     17                     18
                      A                      A                      A
 Frequencies --    428.3217               443.4783               456.8144
 Red. masses --      3.3116                 3.2005                 6.0393
 Frc consts  --      0.3580                 0.3709                 0.7425
 IR Inten    --      6.1144                 0.0000                 0.0000

                     19                     20                     21
                      A                      A                      A
 Frequencies --    480.3193               517.8961               558.0981
 Red. masses --      8.5270                 6.5492                 7.4659
 Frc consts  --      1.1591                 1.0350                 1.3701
 IR Inten    --      0.0000                 0.0000                55.9638

                     22                     23                     24
                      A                      A                      A
 Frequencies --    572.5444               651.9307               671.0939
 Red. masses --      3.7990                 6.8190                 3.6787
 Frc consts  --      0.7337                 1.7076                 0.9761
 IR Inten    --     12.9615                 0.0000                 0.0000

                     25                     26                     27
                      A                      A                      A
 Frequencies --    674.3163               706.7622               708.5195
 Red. masses --      6.8948                 6.9430                 4.4559
 Frc consts  --      1.8471                 2.0434                 1.3179
 IR Inten    --      0.5768                 0.0000                 4.1190

                     28                     29                     30
                      A                      A                      A
 Frequencies --    733.1185               763.0857               782.0966
 Red. masses --      6.9553                 6.4327                 4.9553
 Frc consts  --      2.2025                 2.2070                 1.7858
 IR Inten    --     21.6073                42.6560                 0.0000

                     31                     32                     33
                      A                      A                      A
 Frequencies --    820.2548               860.5945               860.6305
 Red. masses --      7.2540                 1.4406                 1.5667
 Frc consts  --      2.8756                 0.6286                 0.6837
 IR Inten    --      0.0000                27.9839                 0.0916

                     34                     35                     36
                      A                      A                      A
 Frequencies --    897.4249               898.0525               899.6313
 Red. masses --      1.4288                 7.2471                 1.4935
 Frc consts  --      0.6780                 3.4437                 0.7122
 IR Inten    --      0.0004                91.2023                36.2935

                     37                     38                     39
                      A                      A                      A
 Frequencies --    994.4875               996.9514               999.1238
 Red. masses --      4.0403                 1.3076                 1.3287
 Frc consts  --      2.3543                 0.7657                 0.7815
 IR Inten    --      0.0000                 0.0000                 1.8618

                     40                     41                     42
                      A                      A                      A
 Frequencies --   1012.9576              1097.4166              1111.4104
 Red. masses --      2.5004                 2.9053                 1.7782
 Frc consts  --      1.5116                 2.0615                 1.2941
 IR Inten    --     15.7215                30.2055                 0.0000

                     43                     44                     45
                      A                      A                      A
 Frequencies --   1166.3850              1166.7835              1189.0478
 Red. masses --      1.6546                 1.5783                 1.3286
 Frc consts  --      1.3263                 1.2660                 1.1067
 IR Inten    --      0.0184                45.5717               491.1119

                     46                     47                     48
                      A                      A                      A
 Frequencies --   1192.8335              1236.5336              1255.5906
 Red. masses --      1.3822                 1.8290                 2.0911
 Frc consts  --      1.1587                 1.6477                 1.9423
 IR Inten    --      0.0004                 0.0000                65.7654

                     49                     50                     51
                      A                      A                      A
 Frequencies --   1274.5651              1297.5912              1331.5591
 Red. masses --      4.9669                 2.0098                 6.6955
 Frc consts  --      4.7540                 1.9938                 6.9944
 IR Inten    --      0.0001               275.6764               877.9076

                     52                     53                     54
                      A                      A                      A
 Frequencies --   1333.6199              1376.1836              1387.1349
 Red. masses --      2.2609                 5.0461                 5.9248
 Frc consts  --      2.3692                 5.6307                 6.7168
 IR Inten    --      0.1828                20.0156                 0.0002

                     55                     56                     57
                      A                      A                      A
 Frequencies --   1466.4447              1480.1383              1517.4512
 Red. masses --      3.3605                 3.9033                 3.3080
 Frc consts  --      4.2578                 5.0383                 4.4879
 IR Inten    --     83.3190                 0.0000                24.9664

                     58                     59                     60
                      A                      A                      A
 Frequencies --   1527.2258              1614.1623              1622.1049
 Red. masses --      3.1912                 6.4963                 6.8242
 Frc consts  --      4.3854                 9.9727                10.5794
 IR Inten    --      0.0002                65.3418                 0.0035

                     61                     62                     63
                      A                      A                      A
 Frequencies --   1626.0788              1636.8455              1710.5460
 Red. masses --      6.4730                 6.4863                12.5993
 Frc consts  --     10.0841                10.2392                21.7203
 IR Inten    --    629.7024                 0.0018                 0.0000

                     64                     65                     66
                      A                      A                      A
 Frequencies --   1722.5673              3171.8328              3171.9608
 Red. masses --     11.8343                 1.0906                 1.0906
 Frc consts  --     20.6892                 6.4648                 6.4651
 IR Inten    --    295.3130                19.1077                 0.6655

                     67                     68                     69
                      A                      A                      A
 Frequencies --   3190.4167              3190.4543              3203.9412
 Red. masses --      1.0885                 1.0885                 1.0949
 Frc consts  --      6.5279                 6.5281                 6.6219
 IR Inten    --      0.9798                 0.1159                 8.2386

                     70                     71                     72
                      A                      A                      A
 Frequencies --   3204.0455              3823.5084              3823.7101
 Red. masses --      1.0948                 1.0662                 1.0662
 Frc consts  --      6.6222                 9.1834                 9.1846
 IR Inten    --      0.0419               181.1057                17.8541

 - Thermochemistry -
 -------------------
 Temperature   298.150 Kelvin.  Pressure   1.00000 Atm.
 Atom     1 has atomic number  8 and mass  15.99491

 Molecular mass:   240.04226 amu.
 Principal axes and moments of inertia in atomic units:
                           1         2         3
     Eigenvalues --  1740.764946931.378618672.14353
           X            0.99457  -0.06027   0.08488
           Y            0.07698   0.97469  -0.20990
           Z           -0.07008   0.21529   0.97403
 This molecule is an asymmetric top.
 Rotational symmetry number  1.
 Warning -- assumption of classical behavior for rotation
           may cause significant error
 Rotational temperatures (Kelvin)      0.04976     0.01250     0.00999
 Rotational constants (GHZ):           1.03675     0.26037     0.20811
 Zero-point vibrational energy     492129.9 (Joules/Mol)
                                  117.62186 (Kcal/Mol)
 Warning -- explicit consideration of  22 degrees of freedom as
           vibrations may cause significant error
 Vibrational temperatures:     52.71   131.49   151.71   201.77   243.98
          (Kelvin)            247.70   350.56   390.14   435.32   452.56
                              529.15   532.25   537.61   568.68   597.26
                              616.26   638.07   657.25   691.07   745.14
                              802.98   823.76   937.98   965.55   970.19
                             1016.87  1019.40  1054.79  1097.91  1125.26
                             1180.16  1238.20  1238.26  1291.19  1292.10
                             1294.37  1430.85  1434.39  1437.52  1457.42
                             1578.94  1599.07  1678.17  1678.74  1710.77
                             1716.22  1779.10  1806.51  1833.81  1866.94
                             1915.82  1918.78  1980.02  1995.78  2109.89
                             2129.59  2183.27  2197.34  2322.42  2333.85
                             2339.56  2355.06  2461.09  2478.39  4563.56
                             4563.74  4590.30  4590.35  4609.76  4609.91
                             5501.18  5501.47

 Zero-point correction=                           0.187442 (Hartree/Particle)
 Thermal correction to Energy=                    0.201137
 Thermal correction to Enthalpy=                  0.202081
 Thermal correction to Gibbs Free Energy=         0.147093
 Sum of electronic and zero-point Energies=           -839.266679
 Sum of electronic and thermal Energies=              -839.252985
 Sum of electronic and thermal Enthalpies=            -839.252041
 Sum of electronic and thermal Free Energies=         -839.307029

                     E (Thermal)             CV                S
                      KCal/Mol        Cal/Mol-Kelvin    Cal/Mol-Kelvin
 Total                  126.215             55.062            115.732
 Electronic               0.000              0.000              0.000
 Translational            0.889              2.981             42.328
 Rotational               0.889              2.981             33.014
 Vibrational            124.438             49.100             40.390
 Vibration     1          0.594              1.982              5.433
 Vibration     2          0.602              1.955              3.630
 Vibration     3          0.605              1.945              3.351
 Vibration     4          0.615              1.913              2.801
 Vibration     5          0.625              1.880              2.440
 Vibration     6          0.626              1.877              2.412
 Vibration     7          0.659              1.773              1.776
 Vibration     8          0.675              1.726              1.589
 Vibration     9          0.694              1.669              1.403
 Vibration    10          0.702              1.646              1.338
 Vibration    11          0.740              1.538              1.089
 Vibration    12          0.742              1.534              1.080
 Vibration    13          0.745              1.526              1.065
 Vibration    14          0.762              1.480              0.980
 Vibration    15          0.779              1.437              0.909
 Vibration    16          0.790              1.409              0.864
 Vibration    17          0.803              1.375              0.816
 Vibration    18          0.815              1.346              0.775
 Vibration    19          0.837              1.294              0.709
 Vibration    20          0.873              1.210              0.615
 Vibration    21          0.914              1.122              0.528
 Vibration    22          0.929              1.091              0.499

 Optimization completed.
    -- Stationary point found.
 Normal termination of Gaussian 16 at Sun Jan  7 05:28:44 2024.
