 Gaussian 16, Revision A.03,
 Gaussian 16:  ES64L-G16RevA.03 25-Dec-2016

 --------------------------------------
 #P UB3LYP/6-311++G(d,p) nosym opt freq
 --------------------------------------

 -------
 Reduced
 -------
 Symbolic Z-matrix:
 Charge = -2 Multiplicity = 1

 SCF Done:  E(UB3LYP) =  -5639.41488737     A.U. after   22 cycles
 Optimization completed.
    -- Stationary point found.
 Normal termination of Gaussian 16 at Sat Jan  6 05:51:20 2024.

 ----------------------------------------------------------------------
 #P Geom=AllCheck Guess=TCheck SCRF=Check GenChk UB3LYP/6-311++G(d,p) F
 req
 ----------------------------------------------------------------------

 Structure from the checkpoint file:  "024-an.chk"
 -------
 Reduced
 -------
 Charge = -2 Multiplicity = 1

                          Input orientation:
 ---------------------------------------------------------------------
 Center     Atomic      Atomic             Coordinates (Angstroms)
 Number     Number       Type             X           Y           Z
 ---------------------------------------------------------------------
      1          6           0       -1.695072    0.851937    1.655207
      2          6           0       -2.815647    1.179453    0.810252
      3          6           0       -2.745927    1.028503   -0.575978
      4          6           0       -1.615079    0.596045   -1.319955
      5          6           0       -0.494521    0.268480   -0.474996
      6          6           0       -0.564236    0.419445    0.911234
      7          8           0       -1.505441    0.529261   -2.610255
      8          8           0       -1.804626    0.918973    2.945503
      9         35           0        1.043758   -0.032515    1.969681
     10         35           0       -4.353941    1.480403   -1.634422
     11          7           0        0.667105   -0.162863   -1.176594
     12          7           0       -3.977294    1.610722    1.511858
     13          1           0        0.480322    0.061959   -2.156621
     14          1           0        1.510020    0.295402   -0.841833
     15          1           0       -3.790499    1.385848    2.491870
     16          1           0       -4.820192    1.152438    1.177080
 ---------------------------------------------------------------------

 SCF Done:  E(UB3LYP) =  -5639.41488737     A.U. after    2 cycles

 Alpha  occ. eigenvalues -- -482.56308-482.56308 -62.21579 -62.21579 -56.03564
 Alpha  occ. eigenvalues --  -56.03564 -56.03263 -56.03263 -56.03237 -56.03237
 Alpha  occ. eigenvalues --  -18.76708 -18.76708 -14.04545 -14.04545  -9.93089
 Alpha  occ. eigenvalues --   -9.93088  -9.92919  -9.92918  -9.91981  -9.91980
 Alpha  occ. eigenvalues --   -8.42522  -8.42521  -6.25497  -6.25497  -6.24487
 Alpha  occ. eigenvalues --   -6.24487  -6.24406  -6.24406  -2.36619  -2.36619
 Alpha  occ. eigenvalues --   -2.36343  -2.36343  -2.36282  -2.36282  -2.35479
 Alpha  occ. eigenvalues --   -2.35478  -2.35477  -2.35477  -0.69133  -0.68438
 Alpha  occ. eigenvalues --   -0.62911  -0.62700  -0.54769  -0.52976  -0.49463
 Alpha  occ. eigenvalues --   -0.41499  -0.39668  -0.30576  -0.29432  -0.26408
 Alpha  occ. eigenvalues --   -0.20970  -0.19560  -0.19214  -0.15893  -0.13309
 Alpha  occ. eigenvalues --   -0.12487  -0.11362  -0.10639  -0.08440  -0.07542
 Alpha  occ. eigenvalues --   -0.06832  -0.04155  -0.03057  -0.02858  -0.02366
 Alpha  occ. eigenvalues --   -0.01768   0.03707   0.04706   0.05093   0.06613
 Alpha  occ. eigenvalues --    0.13766
 Alpha virt. eigenvalues --    0.18894   0.19117   0.20436   0.20727   0.23364
 Alpha virt. eigenvalues --    0.23450   0.24281   0.24564   0.24920   0.25352
 Alpha virt. eigenvalues --    0.26402   0.26607   0.27443   0.28004   0.28520

  Beta  occ. eigenvalues -- -482.56308-482.56308 -62.21579 -62.21579 -56.03564
  Beta  occ. eigenvalues --  -56.03564 -56.03263 -56.03263 -56.03237 -56.03237
  Beta  occ. eigenvalues --  -18.76708 -18.76708 -14.04545 -14.04545  -9.93089
  Beta  occ. eigenvalues --   -9.93088  -9.92919  -9.92918  -9.91981  -9.91980
  Beta  occ. eigenvalues --   -8.42522  -8.42521  -6.25497  -6.25497  -6.24487
  Beta  occ. eigenvalues --   -6.24487  -6.24406  -6.24406  -2.36619  -2.36619
  Beta  occ. eigenvalues --   -2.36343  -2.36343  -2.36282  -2.36282  -2.35479
  Beta  occ. eigenvalues --   -2.35478  -2.35477  -2.35477  -0.69133  -0.68438
  Beta  occ. eigenvalues --   -0.62911  -0.62700  -0.54769  -0.52976  -0.49463
  Beta  occ. eigenvalues --   -0.41499  -0.39668  -0.30576  -0.29432  -0.26408
  Beta  occ. eigenvalues --   -0.20970  -0.19560  -0.19214  -0.15893  -0.13309
  Beta  occ. eigenvalues --   -0.12487  -0.11362  -0.10639  -0.08440  -0.07542
  Beta  occ. eigenvalues --   -0.06832  -0.04155  -0.03057  -0.02858  -0.02366
  Beta  occ. eigenvalues --   -0.01768   0.03707   0.04706   0.05093   0.06613
  Beta  occ. eigenvalues --    0.13766
  Beta virt. eigenvalues --    0.18894   0.19117   0.20436   0.20727   0.23364
  Beta virt. eigenvalues --    0.23450   0.24281   0.24564   0.24920   0.25352
  Beta virt. eigenvalues --    0.26402   0.26607   0.27443   0.28004   0.28520

 Mulliken charges and spin densities:
               1          2
     1  C   -1.138186   0.000000
     2  C   -0.619235  -0.000000
     3  C    1.592052   0.000000
     4  C   -1.138218  -0.000000
     5  C   -0.618945  -0.000000
     6  C    1.591867   0.000000
     7  O   -0.535977   0.000000
     8  O   -0.535979  -0.000000
     9  Br  -0.365465  -0.000000
    10  Br  -0.365467   0.000000
    11  N   -0.325237   0.000000
    12  N   -0.325220   0.000000
    13  H    0.239047  -0.000000
    14  H    0.152964  -0.000000
    15  H    0.239039  -0.000000
    16  H    0.152961  -0.000000
 Sum of Mulliken charges =  -2.00000  -0.00000

 Dipole moment (field-independent basis, Debye):
    X=             15.8993    Y=             -6.9554    Z=             -1.6103  Tot=             17.4286
 Quadrupole moment (field-independent basis, Debye-Ang):
   XX=           -158.5765   YY=           -118.8101   ZZ=           -162.3701
   XY=             26.5127   XZ=             -9.4574   YZ=             -3.4269

  Exact polarizability: 294.760 -37.519 121.369  10.045 -10.976 219.137
 Approx polarizability: 382.043 -55.097 177.329   7.660  -0.498 346.498

                      1                      2                      3
                      A                      A                      A
 Frequencies --     58.6642               126.2073               127.7522
 Red. masses --     16.2518                 7.1019                 6.2165
 Frc consts  --      0.0330                 0.0666                 0.0598
 IR Inten    --      4.9936                 0.0000                13.2498

                      4                      5                      6
                      A                      A                      A
 Frequencies --    142.4788               176.6383               181.4461
 Red. masses --     16.3406                14.4771                 7.3279
 Frc consts  --      0.1954                 0.2661                 0.1421
 IR Inten    --      9.7538                 0.0000                 3.9309

                      7                      8                      9
                      A                      A                      A
 Frequencies --    184.4000               251.8426               263.1793
 Red. masses --     17.4306                 7.8842                 7.7234
 Frc consts  --      0.3492                 0.2946                 0.3152
 IR Inten    --      0.0000                 8.2242                 0.0000

                     10                     11                     12
                      A                      A                      A
 Frequencies --    314.3311               321.1561               326.6476
 Red. masses --      6.4184                 1.2857                 1.7764
 Frc consts  --      0.3736                 0.0781                 0.1117
 IR Inten    --      0.0001                72.0897                 0.0002

                     13                     14                     15
                      A                      A                      A
 Frequencies --    356.3068               376.4027               444.0696
 Red. masses --      3.8169                 2.0214                 5.2791
 Frc consts  --      0.2855                 0.1687                 0.6134
 IR Inten    --      6.7895                 0.0000                48.1237

                     16                     17                     18
                      A                      A                      A
 Frequencies --    450.2666               510.1682               521.9819
 Red. masses --      8.8185                 7.3668                10.0819
 Frc consts  --      1.0534                 1.1297                 1.6185
 IR Inten    --      0.0000                77.2697                 0.0000

                     19                     20                     21
                      A                      A                      A
 Frequencies --    689.8068               690.0609               718.3569
 Red. masses --      7.5755                 8.3607                10.1251
 Frc consts  --      2.1238                 2.3457                 3.0784
 IR Inten    --      0.0035                62.1888               279.4414

                     22                     23                     24
                      A                      A                      A
 Frequencies --    727.0873               801.0590               890.5253
 Red. masses --      6.5448                 9.9149                 1.3843
 Frc consts  --      2.0385                 3.7486                 0.6468
 IR Inten    --      0.0000                 0.0000                 0.0103

                     25                     26                     27
                      A                      A                      A
 Frequencies --    892.1839               977.8944              1087.2042
 Red. masses --      1.5489                 4.3374                 2.8006
 Frc consts  --      0.7264                 2.4438                 1.9504
 IR Inten    --    468.4808                 9.5731               123.4930

                     28                     29                     30
                      A                      A                      A
 Frequencies --   1142.4442              1150.2607              1197.9783
 Red. masses --     10.0221                 4.7629                 1.6605
 Frc consts  --      7.7069                 3.7129                 1.4040
 IR Inten    --    333.3415                 0.0000                 0.0000

                     31                     32                     33
                      A                      A                      A
 Frequencies --   1316.0722              1410.7963              1431.3868
 Red. masses --      2.0044                 8.9887                 5.8465
 Frc consts  --      2.0455                10.5409                 7.0577
 IR Inten    --     34.5420                 0.0000               715.8599

                     34                     35                     36
                      A                      A                      A
 Frequencies --   1437.6951              1473.9675              1571.3125
 Red. masses --      4.3046                 8.4164                 1.3363
 Frc consts  --      5.2422                10.7734                 1.9439
 IR Inten    --      0.0000               208.3733                 0.0000

                     37                     38                     39
                      A                      A                      A
 Frequencies --   1578.8089              1611.0937              3387.3867
 Red. masses --      1.1638                 4.2409                 1.0491
 Frc consts  --      1.7091                 6.4855                 7.0922
 IR Inten    --     14.1541                 0.0000                 0.0009

                     40                     41                     42
                      A                      A                      A
 Frequencies --   3388.2647              3511.3394              3512.2120
 Red. masses --      1.0492                 1.0924                 1.0923
 Frc consts  --      7.0966                 7.9353                 7.9391
 IR Inten    --    323.3827               203.1002                 0.0001

 - Thermochemistry -
 -------------------
 Temperature   298.150 Kelvin.  Pressure   1.00000 Atm.
 Atom     1 has atomic number  6 and mass  12.00000

 Molecular mass:   293.86395 amu.
 Principal axes and moments of inertia in atomic units:
                           1         2         3
     Eigenvalues --  1690.904466930.830668614.77016
           X            0.81018  -0.50035   0.30538
           Y           -0.22740   0.21189   0.95047
           Z            0.54027   0.83950  -0.05789
 This molecule is an asymmetric top.
 Rotational symmetry number  1.
 Warning -- assumption of classical behavior for rotation
           may cause significant error
 Rotational temperatures (Kelvin)      0.05122     0.01250     0.01005
 Rotational constants (GHZ):           1.06732     0.26039     0.20949
 Zero-point vibrational energy     249595.7 (Joules/Mol)
                                   59.65480 (Kcal/Mol)
 Warning -- explicit consideration of  18 degrees of freedom as
           vibrations may cause significant error
 Vibrational temperatures:     84.40   181.58   183.81   205.00   254.14
          (Kelvin)            261.06   265.31   362.35   378.66   452.25
                              462.07   469.97   512.65   541.56   638.92
                              647.83   734.02   751.02   992.48   992.84
                             1033.56  1046.12  1152.55  1281.27  1283.65
                             1406.97  1564.24  1643.72  1654.97  1723.62
                             1893.53  2029.82  2059.45  2068.52  2120.71
                             2260.77  2271.55  2318.00  4873.69  4874.96
                             5052.03  5053.29

 Zero-point correction=                           0.095066 (Hartree/Particle)
 Thermal correction to Energy=                    0.107098
 Thermal correction to Enthalpy=                  0.108043
 Thermal correction to Gibbs Free Energy=         0.055512
 Sum of electronic and zero-point Energies=          -5639.319821
 Sum of electronic and thermal Energies=             -5639.307789
 Sum of electronic and thermal Enthalpies=           -5639.306845
 Sum of electronic and thermal Free Energies=        -5639.359375

                     E (Thermal)             CV                S
                      KCal/Mol        Cal/Mol-Kelvin    Cal/Mol-Kelvin
 Total                   67.205             42.949            110.559
 Electronic               0.000              0.000              0.000
 Translational            0.889              2.981             42.931
 Rotational               0.889              2.981             32.979
 Vibrational             65.428             36.987             34.650
 Vibration     1          0.596              1.974              4.502
 Vibration     2          0.611              1.927              3.003
 Vibration     3          0.611              1.925              2.980
 Vibration     4          0.616              1.911              2.770
 Vibration     5          0.628              1.871              2.364
 Vibration     6          0.630              1.865              2.313
 Vibration     7          0.631              1.861              2.283
 Vibration     8          0.664              1.760              1.718
 Vibration     9          0.670              1.740              1.641
 Vibration    10          0.702              1.646              1.339
 Vibration    11          0.707              1.633              1.304
 Vibration    12          0.710              1.622              1.277
 Vibration    13          0.732              1.562              1.138
 Vibration    14          0.747              1.520              1.054
 Vibration    15          0.804              1.374              0.814
 Vibration    16          0.809              1.360              0.795
 Vibration    17          0.865              1.227              0.633
 Vibration    18          0.877              1.201              0.605

 Optimization completed.
    -- Stationary point found.
 Normal termination of Gaussian 16 at Sat Jan  6 06:07:38 2024.
