 Q-Chem 5.4, Q-Chem, Inc., Pleasanton, CA (2021)
 Q-Chem 5.4.0 for Intel X86 EM64T Linux

User input:
--------------------------------------------------------------
$molecule
-2 1
C                 -1.6950720000      0.8519370000      1.6552070000
C                 -2.8156470000      1.1794530000      0.8102520000
C                 -2.7459270000      1.0285030000     -0.5759780000
C                 -1.6150790000      0.5960450000     -1.3199550000
C                 -0.4945210000      0.2684800000     -0.4749960000
C                 -0.5642360000      0.4194450000      0.9112340000
O                 -1.5054410000      0.5292610000     -2.6102550000
O                 -1.8046260000      0.9189730000      2.9455030000
Br                 1.0437580000     -0.0325150000      1.9696810000
Br                -4.3539410000      1.4804030000     -1.6344220000
N                  0.6671050000     -0.1628630000     -1.1765940000
N                 -3.9772940000      1.6107220000      1.5118580000
H                  0.4803220000      0.0619590000     -2.1566210000
H                  1.5100200000      0.2954020000     -0.8418330000
H                 -3.7904990000      1.3858480000      2.4918700000
H                 -4.8201920000      1.1524380000      1.1770800000
$end
$rem
MAX_SCF_CYCLES=200
BASIS  =  6-311++G(d,p)
GUI  =  2
JOB_TYPE  =  SP
METHOD  =  B3LYP
SOLVENT_METHOD = COSMO
$end
$solvent
dielectric 37.219
opticaldielectric 1.43
$end

--------------------------------------------------------------

             Standard Nuclear Orientation (Angstroms)
    I     Atom           X                Y                Z
 ----------------------------------------------------------------
    1      C       0.7270170443    -1.3043181012     0.0326394750
    2      C      -0.7107790646    -1.2080616850     0.0521603476
    3      C      -1.3545272604     0.0297916394     0.0012899071
    4      C      -0.7270183151     1.3043202695    -0.0325950758
    5      C       0.7107772243     1.2080619592    -0.0521679299
    6      C       1.3545260772    -0.0297919221    -0.0012817016
    7      O      -1.3065208996     2.4637227358     0.0037003687
    8      O       1.3065285460    -2.4637265410    -0.0033905249
    9      Br      3.3319193974    -0.0411987813    -0.0041344326
   10      Br     -3.3319216179     0.0411981881     0.0040793307
   11      N       1.3856351095     2.4616860644    -0.0779543401
   12      N      -1.3856329549    -2.4616880031     0.0778695558
   13      H       0.6620688653     3.1535446670     0.1310176817
   14      H       2.1467313789     2.5018207339     0.5941313029
   15      H      -0.6620529936    -3.1535175125    -0.1311476150
   16      H      -2.1467200212    -2.5017960720    -0.5942281996
 ----------------------------------------------------------------

   10   -5639.4112945578      8.50e-06  Convergence criterion met
 Total energy in the final basis set =    -5639.4112945578
    6   -5639.6959983819      3.56e-06  Convergence criterion met
 Total energy in the final basis set =    -5639.6959983819

                    Orbital Energies (a.u.)
 --------------------------------------------------------------

 Alpha MOs
 -- Occupied --
********-482.8081 -62.4610 -62.4609 -56.2811 -56.2811 -56.2778 -56.2778
-56.2776 -56.2776 -19.0358 -19.0358 -14.2898 -14.2897 -10.1899 -10.1899
-10.1864 -10.1864 -10.1758 -10.1758  -8.6695  -8.6695  -6.4997  -6.4997
 -6.4889  -6.4888  -6.4883  -6.4882  -2.6109  -2.6108  -2.6078  -2.6078
 -2.6074  -2.6074  -2.5987  -2.5987  -2.5987  -2.5987  -0.9575  -0.9521
 -0.8789  -0.8784  -0.8004  -0.7785  -0.7450  -0.6669  -0.6553  -0.5572
 -0.5496  -0.5145  -0.4562  -0.4477  -0.4446  -0.4118  -0.3925  -0.3804
 -0.3733  -0.3715  -0.3450  -0.3373  -0.3215  -0.2891  -0.2828  -0.2800
 -0.2753  -0.2693  -0.2256  -0.2236  -0.2175  -0.1885  -0.1278

          Ground-State Mulliken Net Atomic Charges

     Atom                 Charge (a.u.)
  ----------------------------------------
      1 C                    -0.818455
      2 C                    -1.123734
      3 C                     1.723862
      4 C                    -0.818300
      5 C                    -1.124295
      6 C                     1.724048
      7 O                    -0.694045
      8 O                    -0.694078
      9 Br                   -0.218978
     10 Br                   -0.219035
     11 N                    -0.394178
     12 N                    -0.394262
     13 H                     0.279560
     14 H                     0.246132
     15 H                     0.279520
     16 H                     0.246236
  ----------------------------------------
  Sum of atomic charges =    -2.000000

                    Cartesian Multipole Moments
 -----------------------------------------------------------------
    Charge (ESU x 10^10)
                -9.6064
    Dipole Moment (Debye)
         X      -0.0003      Y       0.0010      Z      -0.0005
       Tot       0.0012
    Quadrupole Moments (Debye-Ang)
        XX    -140.4738     XY      22.2446     YY    -144.6274
        XZ       6.7560     YZ       9.2658     ZZ    -104.7676

 Total job time:  31.70s(wall), 238.18s(cpu)
        *  Thank you very much for using Q-Chem.  Have a nice day.  *
