 Q-Chem 5.4, Q-Chem, Inc., Pleasanton, CA (2021)
 Q-Chem 5.4.0 for Intel X86 EM64T Linux

User input:
--------------------------------------------------------------
$molecule
-1 2
C                  5.7339860000     -5.2857440000      1.3779640000
C                  6.6891020000     -5.1870600000      0.3840760000
C                  6.5751350000     -4.2124540000     -0.6341150000
C                  4.6209520000     -4.4230570000      1.4093280000
C                  4.4949490000     -3.4402430000      0.3927460000
C                  5.4830610000     -3.3605860000     -0.6095510000
C                  3.6182410000     -4.5542970000      2.4842890000
C                  2.5243830000     -3.6236080000      2.4194070000
C                  2.4014730000     -2.6688900000      1.4323690000
C                  3.3528770000     -2.5053050000      0.3673670000
O                  3.7238420000     -5.4251580000      3.3905680000
O                  3.2305230000     -1.6278090000     -0.5313080000
H                  5.8114290000     -6.0293470000      2.1635540000
H                  7.5396070000     -5.8652250000      0.3819380000
H                  1.7769100000     -3.7068450000      3.2039050000
H                  1.5550820000     -1.9871190000      1.4262930000
C                  7.6269600000     -4.1148490000     -1.7152350000
H                  5.3528590000     -2.5969100000     -1.3697260000
H                  7.7090130000     -5.0497950000     -2.2826890000
H                  8.6186250000     -3.9082160000     -1.2947570000
H                  7.3913110000     -3.3153850000     -2.4219750000
$end
$rem
MAX_SCF_CYCLES=200
BASIS  =  6-311++G(d,p)
GUI  =  2
JOB_TYPE  =  SP
METHOD  =  B3LYP
SOLVENT_METHOD = PCM
$end
$pcm
theory = CPCM
$end
$solvent
dielectric 37.219
opticaldielectric 1.43
$end

--------------------------------------------------------------

             Standard Nuclear Orientation (Angstroms)
    I     Atom           X                Y                Z
 ----------------------------------------------------------------
    1      C       5.7339860000    -5.2857440000     1.3779640000
    2      C       6.6891020000    -5.1870600000     0.3840760000
    3      C       6.5751350000    -4.2124540000    -0.6341150000
    4      C       4.6209520000    -4.4230570000     1.4093280000
    5      C       4.4949490000    -3.4402430000     0.3927460000
    6      C       5.4830610000    -3.3605860000    -0.6095510000
    7      C       3.6182410000    -4.5542970000     2.4842890000
    8      C       2.5243830000    -3.6236080000     2.4194070000
    9      C       2.4014730000    -2.6688900000     1.4323690000
   10      C       3.3528770000    -2.5053050000     0.3673670000
   11      O       3.7238420000    -5.4251580000     3.3905680000
   12      O       3.2305230000    -1.6278090000    -0.5313080000
   13      H       5.8114290000    -6.0293470000     2.1635540000
   14      H       7.5396070000    -5.8652250000     0.3819380000
   15      H       1.7769100000    -3.7068450000     3.2039050000
   16      H       1.5550820000    -1.9871190000     1.4262930000
   17      C       7.6269600000    -4.1148490000    -1.7152350000
   18      H       5.3528590000    -2.5969100000    -1.3697260000
   19      H       7.7090130000    -5.0497950000    -2.2826890000
   20      H       8.6186250000    -3.9082160000    -1.2947570000
   21      H       7.3913110000    -3.3153850000    -2.4219750000
 ----------------------------------------------------------------

    8    -574.7431953400      6.72e-06  Convergence criterion met
 Total energy in the final basis set =     -574.7431953400

                    Orbital Energies (a.u.)
 --------------------------------------------------------------

 Alpha MOs
 -- Occupied --
-19.0784 -19.0782 -10.2230 -10.2224 -10.1805 -10.1725 -10.1708 -10.1692
-10.1684 -10.1650 -10.1624 -10.1618 -10.1604  -1.0020  -0.9997  -0.8592
 -0.8064  -0.7620  -0.7445  -0.6920  -0.6678  -0.6149  -0.5934  -0.5580
 -0.5026  -0.4878  -0.4736  -0.4419  -0.4274  -0.4215  -0.4214  -0.4138
 -0.4078  -0.3902  -0.3835  -0.3787  -0.3746  -0.3449  -0.3417  -0.3340
 -0.2781  -0.2549  -0.2467  -0.2436  -0.2396  -0.1554

 Beta MOs
 -- Occupied --
-19.0723 -19.0722 -10.2214 -10.2207 -10.1802 -10.1721 -10.1705 -10.1691
-10.1682 -10.1649 -10.1608 -10.1604 -10.1601  -0.9914  -0.9888  -0.8575
 -0.8012  -0.7603  -0.7425  -0.6890  -0.6594  -0.6128  -0.5911  -0.5550
 -0.5001  -0.4856  -0.4701  -0.4409  -0.4261  -0.4193  -0.4172  -0.4088
 -0.3956  -0.3878  -0.3813  -0.3737  -0.3524  -0.3434  -0.3335  -0.3330
 -0.2496  -0.2487  -0.2411  -0.2381  -0.2342

          Ground-State Mulliken Net Atomic Charges

     Atom                 Charge (a.u.)    Spin (a.u.)
  --------------------------------------------------------
      1 C                     0.133891       0.035465
      2 C                    -0.434597       0.012582
      3 C                     0.443456       0.020288
      4 C                     0.116338       0.004035
      5 C                     0.027217       0.018964
      6 C                    -0.257820       0.035477
      7 C                    -0.681493       0.078392
      8 C                     0.133816       0.153585
      9 C                    -0.018524       0.112052
     10 C                    -0.399370       0.115110
     11 O                    -0.516478       0.217810
     12 O                    -0.514121       0.223011
     13 H                     0.168358      -0.002466
     14 H                     0.197876      -0.001660
     15 H                     0.192610      -0.010663
     16 H                     0.195325      -0.011048
     17 C                    -0.435796      -0.000840
     18 H                     0.138774      -0.003052
     19 H                     0.169343       0.001474
     20 H                     0.169765       0.001475
     21 H                     0.171432       0.000008
  --------------------------------------------------------
  Sum of atomic charges =    -1.000000

                    Cartesian Multipole Moments
 -----------------------------------------------------------------
    Charge (ESU x 10^10)
                -4.8032
    Dipole Moment (Debye)
         X     -16.0774      Y      16.8305      Z      -7.3188
       Tot      24.3991
    Quadrupole Moments (Debye-Ang)
        XX    -126.3724     XY      55.6615     YY    -157.0318
        XZ     -31.9690     YZ      45.3134     ZZ    -108.4500

 Total job time:  32.18s(wall), 197.69s(cpu)
        *  Thank you very much for using Q-Chem.  Have a nice day.  *
