 Q-Chem 5.4, Q-Chem, Inc., Pleasanton, CA (2021)
 Q-Chem 5.4.0 for Intel X86 EM64T Linux

User input:
--------------------------------------------------------------
$molecule
-1 2
O                 -0.0501910000     -1.5332880000     -2.3532670000
C                 -0.0273680000     -0.8346250000     -1.3131140000
C                  1.2315800000     -0.4550330000     -0.6610090000
C                  2.4360690000     -0.8835860000     -1.2143930000
C                  3.6754580000     -0.5587690000     -0.6451340000
C                  4.9158790000     -0.9916110000     -1.2024450000
C                  6.1115710000     -0.6569670000     -0.6215830000
C                  6.1373800000      0.1377090000      0.5619390000
C                  4.9668780000      0.5727360000      1.1273650000
C                  3.7013170000      0.2461390000      0.5535520000
C                  2.4870210000      0.6750850000      1.1068200000
C                  1.2573350000      0.3498390000      0.5375130000
C                  0.0271090000      0.8347630000      1.1727800000
O                  0.0505050000      1.5337110000      2.2136700000
C                 -1.2310970000      0.4555480000      0.5214480000
C                 -2.4364010000      0.8838450000      1.0745410000
C                 -3.6751550000      0.5587820000      0.5051210000
C                 -4.9160540000      0.9913990000      1.0622120000
C                 -6.1116470000      0.6565280000      0.4811830000
C                 -6.1375800000     -0.1379900000     -0.7020910000
C                 -4.9667640000     -0.5728110000     -1.2673310000
C                 -3.7016910000     -0.2462050000     -0.6937090000
C                 -2.4868920000     -0.6748620000     -1.2466630000
C                 -1.2576550000     -0.3494930000     -0.6773710000
H                  2.3884450000     -1.4868740000     -2.1147740000
H                  4.8928410000     -1.5967570000     -2.1039480000
H                  7.0450850000     -0.9952710000     -1.0597080000
H                  7.0902710000      0.3960850000      1.0124930000
H                  4.9836200000      1.1781290000      2.0288110000
H                  2.4790180000      1.2807110000      2.0068290000
H                 -2.3888460000      1.4871490000      1.9749220000
H                 -4.8934850000      1.5965620000      1.9636910000
H                 -7.0449070000      0.9949970000      0.9196850000
H                 -7.0901590000     -0.3967770000     -1.1531050000
H                 -4.9829910000     -1.1782610000     -2.1688140000
H                 -2.4784990000     -1.2805380000     -2.1467180000
$end

$rem
BASIS  =  6-311++G(d,p)
GUI  =  2
JOB_TYPE  =  SP
METHOD  =  B3LYP
SCF_CONVERGENCE  = 8
SOLVENT_METHOD = sm12
$end

$smx
solvent dimethylformamide
charges CM5
$end

--------------------------------------------------------------

             Standard Nuclear Orientation (Angstroms)
    I     Atom           X                Y                Z
 ----------------------------------------------------------------
    1      O      -0.0501910000    -1.5332880000    -2.3532670000
    2      C      -0.0273680000    -0.8346250000    -1.3131140000
    3      C       1.2315800000    -0.4550330000    -0.6610090000
    4      C       2.4360690000    -0.8835860000    -1.2143930000
    5      C       3.6754580000    -0.5587690000    -0.6451340000
    6      C       4.9158790000    -0.9916110000    -1.2024450000
    7      C       6.1115710000    -0.6569670000    -0.6215830000
    8      C       6.1373800000     0.1377090000     0.5619390000
    9      C       4.9668780000     0.5727360000     1.1273650000
   10      C       3.7013170000     0.2461390000     0.5535520000
   11      C       2.4870210000     0.6750850000     1.1068200000
   12      C       1.2573350000     0.3498390000     0.5375130000
   13      C       0.0271090000     0.8347630000     1.1727800000
   14      O       0.0505050000     1.5337110000     2.2136700000
   15      C      -1.2310970000     0.4555480000     0.5214480000
   16      C      -2.4364010000     0.8838450000     1.0745410000
   17      C      -3.6751550000     0.5587820000     0.5051210000
   18      C      -4.9160540000     0.9913990000     1.0622120000
   19      C      -6.1116470000     0.6565280000     0.4811830000
   20      C      -6.1375800000    -0.1379900000    -0.7020910000
   21      C      -4.9667640000    -0.5728110000    -1.2673310000
   22      C      -3.7016910000    -0.2462050000    -0.6937090000
   23      C      -2.4868920000    -0.6748620000    -1.2466630000
   24      C      -1.2576550000    -0.3494930000    -0.6773710000
   25      H       2.3884450000    -1.4868740000    -2.1147740000
   26      H       4.8928410000    -1.5967570000    -2.1039480000
   27      H       7.0450850000    -0.9952710000    -1.0597080000
   28      H       7.0902710000     0.3960850000     1.0124930000
   29      H       4.9836200000     1.1781290000     2.0288110000
   30      H       2.4790180000     1.2807110000     2.0068290000
   31      H      -2.3888460000     1.4871490000     1.9749220000
   32      H      -4.8934850000     1.5965620000     1.9636910000
   33      H      -7.0449070000     0.9949970000     0.9196850000
   34      H      -7.0901590000    -0.3967770000    -1.1531050000
   35      H      -4.9829910000    -1.1782610000    -2.1688140000
   36      H      -2.4784990000    -1.2805380000    -2.1467180000
 ----------------------------------------------------------------

   16    -996.3636965431      6.68e-09  Convergence criterion met
 Total energy in the final basis set =     -996.4587628182

                    Orbital Energies (a.u.)
 --------------------------------------------------------------

 Alpha MOs
 -- Occupied --
-19.0785 -19.0781 -10.2291 -10.2287 -10.1934 -10.1934 -10.1931 -10.1930
-10.1867 -10.1867 -10.1867 -10.1867 -10.1857 -10.1857 -10.1853 -10.1853
-10.1823 -10.1823 -10.1820 -10.1819 -10.1813 -10.1813 -10.1812 -10.1812
 -1.0065  -1.0042  -0.8853  -0.8838  -0.8434  -0.8291  -0.7864  -0.7861
 -0.7783  -0.7463  -0.7383  -0.7332  -0.6720  -0.6675  -0.6305  -0.6265
 -0.6062  -0.6022  -0.5758  -0.5595  -0.5344  -0.5255  -0.5210  -0.4878
 -0.4782  -0.4727  -0.4655  -0.4550  -0.4447  -0.4419  -0.4313  -0.4290
 -0.4258  -0.4228  -0.4115  -0.4107  -0.4092  -0.4039  -0.3868  -0.3868
 -0.3839  -0.3674  -0.3672  -0.3504  -0.3415  -0.3371  -0.3352  -0.3193
 -0.3025  -0.2983  -0.2666  -0.2541  -0.2482  -0.2402  -0.2335  -0.2319
 -0.1362

 Beta MOs
 -- Occupied --
-19.0732 -19.0727 -10.2276 -10.2271 -10.1930 -10.1930 -10.1927 -10.1926
-10.1867 -10.1867 -10.1867 -10.1867 -10.1855 -10.1854 -10.1850 -10.1850
-10.1817 -10.1816 -10.1815 -10.1814 -10.1811 -10.1811 -10.1809 -10.1809
 -0.9974  -0.9949  -0.8840  -0.8830  -0.8409  -0.8283  -0.7854  -0.7848
 -0.7754  -0.7449  -0.7357  -0.7323  -0.6705  -0.6617  -0.6287  -0.6256
 -0.6060  -0.6018  -0.5736  -0.5568  -0.5339  -0.5241  -0.5206  -0.4870
 -0.4758  -0.4715  -0.4649  -0.4546  -0.4441  -0.4412  -0.4287  -0.4257
 -0.4218  -0.4205  -0.4105  -0.4083  -0.4049  -0.4017  -0.3865  -0.3801
 -0.3668  -0.3657  -0.3627  -0.3494  -0.3412  -0.3345  -0.3341  -0.3082
 -0.2998  -0.2936  -0.2506  -0.2502  -0.2433  -0.2353  -0.2292  -0.2244

          Ground-State Mulliken Net Atomic Charges

     Atom                 Charge (a.u.)    Spin (a.u.)
  --------------------------------------------------------
      1 O                    -0.302629       0.198834
      2 C                    -1.540219       0.078476
      3 C                    -0.889223       0.037060
      4 C                    -0.679222       0.026848
      5 C                    -0.270374       0.029356
      6 C                     0.851762      -0.001940
      7 C                     0.934568       0.021998
      8 C                     0.933608       0.020695
      9 C                     0.853459      -0.000577
     10 C                    -0.285976       0.028056
     11 C                    -0.686549       0.029261
     12 C                    -0.905583       0.036558
     13 C                    -1.542293       0.080187
     14 O                    -0.305231       0.200911
     15 C                    -0.904301       0.036658
     16 C                    -0.689189       0.029239
     17 C                    -0.286457       0.028121
     18 C                     0.851349      -0.000654
     19 C                     0.932470       0.020787
     20 C                     0.933830       0.022062
     21 C                     0.854637      -0.001850
     22 C                    -0.272100       0.029470
     23 C                    -0.676465       0.026924
     24 C                    -0.890972       0.037294
     25 H                     0.090128      -0.002325
     26 H                     0.310414       0.000750
     27 H                     0.345402      -0.001782
     28 H                     0.345159      -0.001697
     29 H                     0.310561       0.000692
     30 H                     0.088999      -0.002517
     31 H                     0.089107      -0.002500
     32 H                     0.310719       0.000689
     33 H                     0.345071      -0.001706
     34 H                     0.345357      -0.001787
     35 H                     0.310179       0.000758
     36 H                     0.090007      -0.002346
  --------------------------------------------------------
  Sum of atomic charges =    -1.000000

                    Cartesian Multipole Moments
 -----------------------------------------------------------------
    Charge (ESU x 10^10)
                -4.8032
    Dipole Moment (Debye)
         X       0.0025      Y      -0.0172      Z       0.3114
       Tot       0.3119
    Quadrupole Moments (Debye-Ang)
        XX    -141.4865     XY      -0.4972     YY    -154.3712
        XZ      -0.2086     YZ      -7.5523     ZZ    -160.5837

 Total job time:  1444.10s(wall), 10953.56s(cpu)
        *  Thank you very much for using Q-Chem.  Have a nice day.  *
