 Gaussian 16, Revision A.03,
 Gaussian 16:  ES64L-G16RevA.03 25-Dec-2016

 ----------------------------------------------------------------
 #P UB3LYP/6-311++G(d,p) SCRF=(PCM,Solvent=n,n-DiMethylFormamide)
 ----------------------------------------------------------------

 ------------------
 Quinone PCM in DMF
 ------------------
 Symbolic Z-matrix:
 Charge =  0 Multiplicity = 1

                         Standard orientation:
 ---------------------------------------------------------------------
 Center     Atomic      Atomic             Coordinates (Angstroms)
 Number     Number       Type             X           Y           Z
 ---------------------------------------------------------------------
      1          6           0       -3.803744   -2.034588    0.066459
      2          6           0       -5.158462   -1.728921    0.017443
      3          6           0       -5.576493   -0.397320   -0.062428
      4          6           0       -2.853239   -1.009101    0.036194
      5          6           0       -3.274038    0.331057   -0.044168
      6          6           0       -4.639540    0.628491   -0.093260
      7          6           0       -1.412979   -1.350805    0.088803
      8          6           0       -0.434634   -0.260247    0.062434
      9          6           0       -0.859817    1.097341   -0.019480
     10          6           0       -2.286611    1.435164   -0.076640
     11          6           0        0.935779   -0.574797    0.116382
     12          6           0        1.870282    0.492093    0.093648
     13          6           0        0.093894    2.128382   -0.049836
     14          6           0        1.466081    1.802300    0.007387
     15          8           0       -1.052177   -2.537118    0.154634
     16          8           0       -2.662202    2.613879   -0.150545
     17          8           0        1.384881   -1.826526    0.174830
     18          1           0       -3.460073   -3.059298    0.128710
     19          1           0       -5.892402   -2.526112    0.041555
     20          1           0       -6.634109   -0.163305   -0.100300
     21          1           0        0.584924   -2.416847    0.194249
     22          8           0       -0.223321    3.423635   -0.131125
     23          1           0        2.198400    2.599344   -0.018335
     24          1           0       -1.209673    3.480478   -0.160399
     25          1           0       -4.942563    1.666056   -0.154778
     26         16           0        3.641376    0.174353    0.240903
     27          8           0        4.316969    1.437378    0.008210
     28          8           0        3.907742   -0.601355    1.441668
     29          8           0        3.882555   -0.755846   -1.072385
     30          6           0        4.431096   -2.089771   -0.898962
     31          1           0        3.847390   -2.648020   -0.169929
     32          1           0        5.476323   -2.029031   -0.595761
     33          1           0        4.348755   -2.540964   -1.885626
 ---------------------------------------------------------------------

 SCF Done:  E(UB3LYP) =  -1502.67847270     A.U. after   17 cycles

 The electronic state is 1-A.
 Alpha  occ. eigenvalues --  -89.10753 -19.19200 -19.17861 -19.17438 -19.15322
 Alpha  occ. eigenvalues --  -19.15228 -19.15031 -19.14980 -10.30019 -10.29949
 Alpha  occ. eigenvalues --  -10.29225 -10.28234 -10.25087 -10.23726 -10.22769
 Alpha  occ. eigenvalues --  -10.22765 -10.22706 -10.21903 -10.21845 -10.20583
 Alpha  occ. eigenvalues --  -10.20572 -10.20526 -10.20484  -8.16770  -6.13138
 Alpha  occ. eigenvalues --   -6.12975  -6.12854  -1.17658  -1.11049  -1.10409
 Alpha  occ. eigenvalues --   -1.07391  -1.07223  -1.06451  -1.04920  -0.91090
 Alpha  occ. eigenvalues --   -0.89439  -0.84195  -0.79650  -0.79070  -0.78348
 Alpha  occ. eigenvalues --   -0.75783  -0.71901  -0.69575  -0.67554  -0.65289
 Alpha  occ. eigenvalues --   -0.64045  -0.61304  -0.58427  -0.58192  -0.57420
 Alpha  occ. eigenvalues --   -0.55851  -0.54867  -0.53097  -0.51385  -0.51177
 Alpha  occ. eigenvalues --   -0.50377  -0.48898  -0.48522  -0.47806  -0.47092
 Alpha  occ. eigenvalues --   -0.46602  -0.46184  -0.46032  -0.45878  -0.44953
 Alpha  occ. eigenvalues --   -0.44862  -0.44106  -0.41907  -0.41686  -0.41365
 Alpha  occ. eigenvalues --   -0.39998  -0.39221  -0.38710  -0.37728  -0.37622
 Alpha  occ. eigenvalues --   -0.36615  -0.35560  -0.34767  -0.34535  -0.33101
 Alpha  occ. eigenvalues --   -0.30971  -0.30962  -0.29327  -0.28905  -0.28700
 Alpha  occ. eigenvalues --   -0.24926
 Alpha virt. eigenvalues --   -0.13723  -0.08367  -0.05955  -0.03045  -0.00927
 Alpha virt. eigenvalues --   -0.00296   0.00027   0.00611   0.00861   0.01488
 Alpha virt. eigenvalues --    0.02362   0.02548   0.02798   0.03055   0.03494

  Beta  occ. eigenvalues --  -89.10753 -19.19200 -19.17861 -19.17438 -19.15322
  Beta  occ. eigenvalues --  -19.15228 -19.15031 -19.14980 -10.30019 -10.29949
  Beta  occ. eigenvalues --  -10.29225 -10.28234 -10.25087 -10.23726 -10.22769
  Beta  occ. eigenvalues --  -10.22765 -10.22706 -10.21903 -10.21845 -10.20583
  Beta  occ. eigenvalues --  -10.20572 -10.20526 -10.20484  -8.16770  -6.13138
  Beta  occ. eigenvalues --   -6.12975  -6.12854  -1.17658  -1.11049  -1.10409
  Beta  occ. eigenvalues --   -1.07391  -1.07223  -1.06451  -1.04920  -0.91090
  Beta  occ. eigenvalues --   -0.89439  -0.84195  -0.79650  -0.79070  -0.78348
  Beta  occ. eigenvalues --   -0.75783  -0.71901  -0.69575  -0.67554  -0.65289
  Beta  occ. eigenvalues --   -0.64045  -0.61304  -0.58427  -0.58192  -0.57420
  Beta  occ. eigenvalues --   -0.55851  -0.54867  -0.53097  -0.51385  -0.51177
  Beta  occ. eigenvalues --   -0.50377  -0.48898  -0.48522  -0.47806  -0.47092
  Beta  occ. eigenvalues --   -0.46602  -0.46184  -0.46032  -0.45878  -0.44953
  Beta  occ. eigenvalues --   -0.44862  -0.44106  -0.41907  -0.41686  -0.41365
  Beta  occ. eigenvalues --   -0.39998  -0.39221  -0.38710  -0.37728  -0.37622
  Beta  occ. eigenvalues --   -0.36615  -0.35560  -0.34767  -0.34535  -0.33101
  Beta  occ. eigenvalues --   -0.30971  -0.30962  -0.29327  -0.28905  -0.28700
  Beta  occ. eigenvalues --   -0.24926
  Beta virt. eigenvalues --   -0.13723  -0.08367  -0.05955  -0.03045  -0.00927
  Beta virt. eigenvalues --   -0.00296   0.00027   0.00611   0.00861   0.01488
  Beta virt. eigenvalues --    0.02362   0.02548   0.02798   0.03055   0.03494

 Mulliken charges and spin densities:
               1          2
     1  C    0.002579   0.000000
     2  C   -0.373410  -0.000000
     3  C   -0.454921   0.000000
     4  C    0.425429  -0.000000
     5  C    0.092577  -0.000000
     6  C    0.051625   0.000000
     7  C   -0.505096   0.000000
     8  C    0.576931   0.000000
     9  C    0.759079  -0.000000
    10  C   -0.350477   0.000000
    11  C   -0.464139   0.000000
    12  C   -0.570019  -0.000000
    13  C   -0.369699   0.000000
    14  C   -0.155419  -0.000000
    15  O   -0.303179   0.000000
    16  O   -0.308978   0.000000
    17  O   -0.315749  -0.000000
    18  H    0.189763  -0.000000
    19  H    0.216924   0.000000
    20  H    0.213481   0.000000
    21  H    0.420421  -0.000000
    22  O   -0.307710  -0.000000
    23  H    0.271099  -0.000000
    24  H    0.357369  -0.000000
    25  H    0.196647  -0.000000
    26  S    0.981628   0.000000
    27  O   -0.121182  -0.000000
    28  O   -0.219446  -0.000000
    29  O   -0.182149  -0.000000
    30  C   -0.333790   0.000000
    31  H    0.198407  -0.000000
    32  H    0.205175  -0.000000
    33  H    0.176230   0.000000
 Sum of Mulliken charges =  -0.00000  -0.00000

 Dipole moment (field-independent basis, Debye):
    X=             -7.8628    Y=             -3.9638    Z=             -1.8665  Tot=              9.0011
 Quadrupole moment (field-independent basis, Debye-Ang):
   XX=           -123.0963   YY=           -143.1515   ZZ=           -143.5516
   XY=             -4.8729   XZ=             -8.5748   YZ=              4.8244

 Normal termination of Gaussian 16 at Tue Jan 16 05:10:35 2024.
