 Q-Chem 5.4, Q-Chem, Inc., Pleasanton, CA (2021)
 Q-Chem 5.4.0 for Intel X86 EM64T Linux

User input:
--------------------------------------------------------------
$molecule
0 1
C                 -3.8078290000      0.0276940000     -0.0518960000
O                 -2.6401080000      0.8624090000     -0.2293250000
C                 -1.3792580000      0.4486450000     -0.1823640000
C                 -0.3905000000      1.3807570000     -0.1431700000
Cl                -0.7640530000      3.0738050000     -0.1349540000
C                  1.0328510000      1.0251420000     -0.1135950000
O                  1.9147820000      1.8636310000     -0.1291890000
C                  1.3869450000     -0.4464180000     -0.0621450000
C                  0.4000410000     -1.3779700000     -0.1432920000
Cl                 0.7733730000     -3.0711150000     -0.1453050000
C                 -1.0197970000     -1.0214020000     -0.2420860000
O                 -1.8949580000     -1.8574320000     -0.3695710000
O                  2.6465220000     -0.8612370000      0.0034590000
C                  3.7949370000     -0.0314310000      0.2932290000
H                 -3.7235820000     -0.5795530000      0.8480660000
H                 -4.6211610000      0.7441580000      0.0465620000
H                 -3.9610840000     -0.6152550000     -0.9155080000
H                  4.0176660000      0.6299390000     -0.5409370000
H                  3.6371550000      0.5563770000      1.1961450000
H                  4.5980560000     -0.7507420000      0.4417790000
$end
$rem
MAX_SCF_CYCLES=200
BASIS  =  6-311++G(d,p)
GUI  =  2
JOB_TYPE  =  SP
METHOD  =  B3LYP
SOLVENT_METHOD = COSMO
$end
$solvent
dielectric 37.219
opticaldielectric 1.43
$end

--------------------------------------------------------------

             Standard Nuclear Orientation (Angstroms)
    I     Atom           X                Y                Z
 ----------------------------------------------------------------
    1      C       3.3377554268    -1.8257577808    -0.2375959169
    2      O       2.7308585087    -0.5357109725     0.0058334947
    3      C       1.4272921627    -0.2830821078     0.0123253303
    4      C       1.0165951587     1.0126565166     0.0323433456
    5      Cl      2.1664646215     2.3102755905     0.0299279044
    6      C      -0.3999141972     1.3943952741     0.0646163044
    7      O      -0.7610592984     2.5545670950     0.1330620981
    8      C      -1.4270332652     0.2828579903     0.0095728351
    9      C      -1.0162450743    -1.0129519623     0.0315523403
   10      Cl     -2.1661813029    -2.3105470907     0.0277604932
   11      C       0.4000325414    -1.3945625043     0.0685935156
   12      O       0.7613657455    -2.5542808369     0.1434070630
   13      O      -2.7306404974     0.5345962974    -0.0026302548
   14      C      -3.3390770096     1.8272478666    -0.2268145409
   15      H       2.9378184145    -2.2838902657    -1.1408915994
   16      H       4.3930542374    -1.5915767182    -0.3641946274
   17      H       3.1881523871    -2.4918402584     0.6089554765
   18      H      -3.1829996930     2.4840413035     0.6258950535
   19      H      -2.9461647814     2.2954677275    -1.1279587303
   20      H      -4.3953071058     1.5942212966    -0.3474468211
 ----------------------------------------------------------------

    9   -1529.9065997881      6.36e-06  Convergence criterion met
 Total energy in the final basis set =    -1529.9065997881
    5   -1529.9214555181      3.65e-06  Convergence criterion met
 Total energy in the final basis set =    -1529.9214555181

                    Orbital Energies (a.u.)
 --------------------------------------------------------------

 Alpha MOs
 -- Occupied --
********-101.5736 -19.1958 -19.1957 -19.1512 -19.1511 -10.3088 -10.3087
-10.2940 -10.2939 -10.2572 -10.2571 -10.2302 -10.2302  -9.4881  -9.4881
 -7.2530  -7.2530  -7.2431  -7.2430  -7.2421  -7.2421  -1.1175  -1.1147
 -1.0832  -1.0821  -0.9121  -0.8968  -0.8367  -0.7914  -0.7446  -0.7226
 -0.6905  -0.6280  -0.6183  -0.5786  -0.5527  -0.5389  -0.5071  -0.4918
 -0.4878  -0.4848  -0.4737  -0.4674  -0.4504  -0.4450  -0.4375  -0.4237
 -0.3991  -0.3876  -0.3797  -0.3790  -0.3558  -0.3533  -0.3358  -0.3303
 -0.2992  -0.2983  -0.2780  -0.2502

          Ground-State Mulliken Net Atomic Charges

     Atom                 Charge (a.u.)
  ----------------------------------------
      1 C                    -0.279816
      2 O                    -0.156806
      3 C                    -1.297121
      4 C                     1.644103
      5 Cl                    0.275469
      6 C                    -0.530985
      7 O                    -0.256992
      8 C                    -1.294468
      9 C                     1.647175
     10 Cl                    0.274580
     11 C                    -0.529465
     12 O                    -0.257230
     13 O                    -0.158016
     14 C                    -0.277665
     15 H                     0.198190
     16 H                     0.192684
     17 H                     0.207291
     18 H                     0.207285
     19 H                     0.198330
     20 H                     0.193456
  ----------------------------------------
  Sum of atomic charges =     0.000000

                    Cartesian Multipole Moments
 -----------------------------------------------------------------
    Charge (ESU x 10^10)
                 0.0000
    Dipole Moment (Debye)
         X      -0.0115      Y       0.0156      Z      -1.1959
       Tot       1.1960
    Quadrupole Moments (Debye-Ang)
        XX     -80.0503     XY     -15.0624     YY    -106.9039
        XZ      -0.1170     YZ       0.0865     ZZ     -91.7330

 Total job time:  27.67s(wall), 208.70s(cpu)
        *  Thank you very much for using Q-Chem.  Have a nice day.  *
