 Q-Chem 5.4, Q-Chem, Inc., Pleasanton, CA (2021)
 Q-Chem 5.4.0 for Intel X86 EM64T Linux

User input:
--------------------------------------------------------------
$molecule
-2 1
C                 -1.3502310000      2.0065570000      0.7882860000
C                 -2.5863810000      1.4302110000      0.2961270000
C                 -2.6141120000      0.2205830000     -0.3960320000
C                 -1.4664350000     -0.5741560000     -0.6991960000
C                 -0.2119690000     -0.0316940000     -0.2136320000
C                 -0.2240510000      1.1797220000      0.4813460000
O                 -1.5351390000     -1.6924350000     -1.3516510000
H                 -3.5599730000     -0.1824770000     -0.7506980000
O                 -1.3062270000      3.1215560000      1.4284740000
I                  1.6558960000      2.0167180000      1.2258770000
C                  1.0348090000     -0.8253920000     -0.4995740000
C                 -3.8439100000      2.2339930000      0.5944290000
C                 -3.9477130000      3.4628950000     -0.3349520000
C                 -5.1505140000      1.4284400000      0.5562290000
H                  0.7354080000     -1.7177190000     -1.0550440000
H                  1.5562290000     -1.1270700000      0.4195850000
H                  1.7624580000     -0.2543410000     -1.0931290000
H                 -3.7145190000      2.6345990000      1.6092430000
H                 -4.8085170000      4.0975700000     -0.0666020000
H                 -4.0710670000      3.1444160000     -1.3777040000
H                 -3.0343270000      4.0544950000     -0.2499580000
H                 -5.9974510000      2.0509890000      0.8742750000
H                 -5.0990440000      0.5553920000      1.2146940000
H                 -5.3724200000      1.0633180000     -0.4533300000
$end
$rem
MAX_SCF_CYCLES=200
BASIS  =  6-311++G(d,p)
GUI  =  2
JOB_TYPE  =  SP
METHOD  =  B3LYP
SOLVENT_METHOD = COSMO
$end
$solvent
dielectric 37.219
opticaldielectric 1.43
$end

--------------------------------------------------------------

             Standard Nuclear Orientation (Angstroms)
    I     Atom           X                Y                Z
 ----------------------------------------------------------------
    1      C      -0.6361749165    -0.7459780612    -0.1122894499
    2      C      -1.9535730465    -0.1402500118    -0.1164980854
    3      C      -2.1331743135     1.2396344541    -0.0345515556
    4      C      -1.0773843793     2.1969227817     0.0633650310
    5      C       0.2560692778     1.6262915244     0.0614474466
    6      C       0.3970739110     0.2396662641    -0.0283144667
    7      O      -1.2880409870     3.4736921914     0.1436729175
    8      H      -3.1363880554     1.6596621288    -0.0406595110
    9      O      -0.4520966147    -2.0170183847    -0.1869317459
   10      I       2.3989818667    -0.6443021743    -0.0356475224
   11      C       1.4124386872     2.5851070503     0.1597190103
   12      C      -3.1180520000    -1.1144571858    -0.2229777621
   13      C      -3.3605515242    -1.8348539179     1.1212494362
   14      C      -4.4277916063    -0.5026154156    -0.7404917240
   15      H       0.9975606197     3.5945629580     0.2172543394
   16      H       2.0845508466     2.5169847297    -0.7070948648
   17      H       2.0334137276     2.3957824305     1.0465256618
   18      H      -2.7983298678    -1.8937696736    -0.9283318981
   19      H      -4.1441623062    -2.6049997212     1.0283129604
   20      H      -3.6775439737    -1.1169407339     1.8881218269
   21      H      -2.4337938793    -2.3129775317     1.4437499830
   22      H      -5.1890541194    -1.2816240681    -0.8806619883
   23      H      -4.2777391298     0.0077384416    -1.6972891541
   24      H      -4.8367325218     0.2334009305    -0.0384853223
 ----------------------------------------------------------------

   13   -7457.7784140562      9.56e-06  Convergence criterion met
 Total energy in the final basis set =    -7457.7784140562
    6   -7458.0579532613      3.95e-06  Convergence criterion met
 Total energy in the final basis set =    -7458.0579532613

                    Orbital Energies (a.u.)
 --------------------------------------------------------------

 Alpha MOs
 -- Occupied --
********-176.2658-165.6691-165.6676-165.6675 -35.7622 -31.2544 -31.2501
-31.2497 -22.9052 -22.9042 -22.9040 -22.9010 -22.9010 -19.0217 -19.0205
-10.1777 -10.1726 -10.1693 -10.1518 -10.1409 -10.1387 -10.1378 -10.1377
-10.1331 -10.1211  -6.3115  -4.7213  -4.7109  -4.7100  -1.9875  -1.9842
 -1.9836  -1.9746  -1.9745  -0.9408  -0.9340  -0.7987  -0.7735  -0.7191
 -0.6766  -0.6652  -0.6369  -0.6114  -0.5714  -0.5202  -0.5058  -0.4565
 -0.4331  -0.4209  -0.4065  -0.3979  -0.3884  -0.3765  -0.3692  -0.3623
 -0.3503  -0.3463  -0.3401  -0.3257  -0.3196  -0.3154  -0.3057  -0.2950
 -0.2597  -0.2411  -0.2278  -0.2043  -0.2029  -0.1973  -0.1221

          Ground-State Mulliken Net Atomic Charges

     Atom                 Charge (a.u.)
  ----------------------------------------
      1 C                    -0.834969
      2 C                     0.961719
      3 C                    -0.351790
      4 C                    -0.990802
      5 C                     0.802723
      6 C                     0.027058
      7 O                    -0.761158
      8 H                     0.123402
      9 O                    -0.634039
     10 I                    -0.192602
     11 C                    -0.443446
     12 C                     0.118409
     13 C                    -0.737352
     14 C                    -0.578565
     15 H                     0.168911
     16 H                     0.134970
     17 H                     0.135023
     18 H                     0.167734
     19 H                     0.127806
     20 H                     0.136514
     21 H                     0.181068
     22 H                     0.164175
     23 H                     0.134935
     24 H                     0.140275
  ----------------------------------------
  Sum of atomic charges =    -2.000000

                    Cartesian Multipole Moments
 -----------------------------------------------------------------
    Charge (ESU x 10^10)
                -9.6064
    Dipole Moment (Debye)
         X       4.3699      Y      -6.0354      Z       0.0896
       Tot       7.4518
    Quadrupole Moments (Debye-Ang)
        XX    -129.5487     XY      17.0925     YY    -175.4462
        XZ       1.0418     YZ      -2.8245     ZZ    -112.1018

 Total job time:  51.02s(wall), 387.21s(cpu)
        *  Thank you very much for using Q-Chem.  Have a nice day.  *
