 Gaussian 16, Revision A.03,
 Gaussian 16:  ES64L-G16RevA.03 25-Dec-2016

 -------------------------------
 #P UB3LYP/genecp nosym opt freq
 -------------------------------

 -------
 Reduced
 -------
 Symbolic Z-matrix:
 Charge = -2 Multiplicity = 1

 SCF Done:  E(UB3LYP) =  -836.059061244     A.U. after   32 cycles
 Optimization completed.
    -- Stationary point found.
 Normal termination of Gaussian 16 at Sat Jan  6 19:53:18 2024.

 ------------------------------------------------------------------
 #P Geom=AllCheck Guess=TCheck SCRF=Check GenChk UB3LYP/GenECP Freq
 ------------------------------------------------------------------

 Structure from the checkpoint file:  "007-an.chk"
 -------
 Reduced
 -------
 Charge = -2 Multiplicity = 1

                          Input orientation:
 ---------------------------------------------------------------------
 Center     Atomic      Atomic             Coordinates (Angstroms)
 Number     Number       Type             X           Y           Z
 ---------------------------------------------------------------------
      1          6           0       -1.350231    2.006557    0.788286
      2          6           0       -2.586381    1.430211    0.296127
      3          6           0       -2.614112    0.220583   -0.396032
      4          6           0       -1.466435   -0.574156   -0.699196
      5          6           0       -0.211969   -0.031694   -0.213632
      6          6           0       -0.224051    1.179722    0.481346
      7          8           0       -1.535139   -1.692435   -1.351651
      8          1           0       -3.559973   -0.182477   -0.750698
      9          8           0       -1.306227    3.121556    1.428474
     10         53           0        1.655896    2.016718    1.225877
     11          6           0        1.034809   -0.825392   -0.499574
     12          6           0       -3.843910    2.233993    0.594429
     13          6           0       -3.947713    3.462895   -0.334952
     14          6           0       -5.150514    1.428440    0.556229
     15          1           0        0.735408   -1.717719   -1.055044
     16          1           0        1.556229   -1.127070    0.419585
     17          1           0        1.762458   -0.254341   -1.093129
     18          1           0       -3.714519    2.634599    1.609243
     19          1           0       -4.808517    4.097570   -0.066602
     20          1           0       -4.071067    3.144416   -1.377704
     21          1           0       -3.034327    4.054495   -0.249958
     22          1           0       -5.997451    2.050989    0.874275
     23          1           0       -5.099044    0.555392    1.214694
     24          1           0       -5.372420    1.063318   -0.453330
 ---------------------------------------------------------------------

 SCF Done:  E(UB3LYP) =  -836.059061244     A.U. after    8 cycles

 Alpha  occ. eigenvalues --  -18.77237 -18.76644  -9.93855  -9.93518  -9.93352
 Alpha  occ. eigenvalues --   -9.92943  -9.92774  -9.92664  -9.91094  -9.89991
 Alpha  occ. eigenvalues --   -9.89573  -9.88007  -6.57811  -4.60041  -4.59226
 Alpha  occ. eigenvalues --   -4.59141  -1.64869  -1.64609  -1.64542  -1.63834
 Alpha  occ. eigenvalues --   -1.63832  -0.69012  -0.67803  -0.56919  -0.54316
 Alpha  occ. eigenvalues --   -0.48768  -0.45725  -0.45165  -0.40793  -0.39776
 Alpha  occ. eigenvalues --   -0.34692  -0.28704  -0.27409  -0.22666  -0.20580
 Alpha  occ. eigenvalues --   -0.20323  -0.17767  -0.16995  -0.16526  -0.16128
 Alpha  occ. eigenvalues --   -0.13600  -0.12413  -0.11392  -0.10807  -0.10447
 Alpha  occ. eigenvalues --   -0.10353  -0.09164  -0.07447  -0.06234  -0.05693
 Alpha  occ. eigenvalues --   -0.01998  -0.00377   0.02520   0.03597   0.05015
 Alpha  occ. eigenvalues --    0.05638   0.13174
 Alpha virt. eigenvalues --    0.14981   0.17622   0.18523   0.19123   0.20388
 Alpha virt. eigenvalues --    0.21420   0.21661   0.21969   0.22014   0.22651
 Alpha virt. eigenvalues --    0.23471   0.24009   0.26069   0.26221   0.27275

  Beta  occ. eigenvalues --  -18.77237 -18.76644  -9.93855  -9.93518  -9.93352
  Beta  occ. eigenvalues --   -9.92943  -9.92774  -9.92664  -9.91094  -9.89991
  Beta  occ. eigenvalues --   -9.89573  -9.88007  -6.57811  -4.60041  -4.59226
  Beta  occ. eigenvalues --   -4.59141  -1.64869  -1.64609  -1.64542  -1.63834
  Beta  occ. eigenvalues --   -1.63832  -0.69012  -0.67803  -0.56919  -0.54316
  Beta  occ. eigenvalues --   -0.48768  -0.45725  -0.45165  -0.40793  -0.39776
  Beta  occ. eigenvalues --   -0.34692  -0.28704  -0.27409  -0.22666  -0.20580
  Beta  occ. eigenvalues --   -0.20323  -0.17767  -0.16995  -0.16526  -0.16128
  Beta  occ. eigenvalues --   -0.13600  -0.12413  -0.11392  -0.10807  -0.10447
  Beta  occ. eigenvalues --   -0.10353  -0.09164  -0.07447  -0.06234  -0.05693
  Beta  occ. eigenvalues --   -0.01998  -0.00377   0.02520   0.03597   0.05015
  Beta  occ. eigenvalues --    0.05638   0.13174
  Beta virt. eigenvalues --    0.14981   0.17622   0.18523   0.19123   0.20388
  Beta virt. eigenvalues --    0.21420   0.21661   0.21969   0.22014   0.22651
  Beta virt. eigenvalues --    0.23471   0.24009   0.26069   0.26221   0.27275

 Mulliken charges and spin densities:
               1          2
     1  C   -1.191210   0.000000
     2  C    2.038486  -0.000000
     3  C    0.202584   0.000000
     4  C   -1.583404   0.000000
     5  C    1.270625  -0.000000
     6  C    0.228840   0.000000
     7  O   -0.542602   0.000000
     8  H    0.071155   0.000000
     9  O   -0.433128   0.000000
    10  I   -0.370001   0.000000
    11  C   -0.564047  -0.000000
    12  C   -1.092113   0.000000
    13  C   -0.186330   0.000000
    14  C   -0.148416  -0.000000
    15  H    0.176028  -0.000000
    16  H    0.064639   0.000000
    17  H    0.066657  -0.000000
    18  H    0.144556  -0.000000
    19  H   -0.337208   0.000000
    20  H    0.082602  -0.000000
    21  H    0.251114  -0.000000
    22  H   -0.358355  -0.000000
    23  H    0.114133   0.000000
    24  H    0.095394  -0.000000
 Sum of Mulliken charges =  -2.00000   0.00000

 Dipole moment (field-independent basis, Debye):
    X=             13.9143    Y=            -10.9513    Z=             -2.0779  Tot=             17.8286
 Quadrupole moment (field-independent basis, Debye-Ang):
   XX=           -187.5130   YY=           -175.3121   ZZ=           -128.8870
   XY=             25.1292   XZ=             -1.7847   YZ=            -26.0844

  Exact polarizability:1549.715-470.437 602.119-156.775  28.176 276.558
 Approx polarizability:2302.914******** 984.850-226.846 177.231 350.892

                      1                      2                      3
                      A                      A                      A
 Frequencies --     45.8579                77.0827                81.6907
 Red. masses --      3.1361                 4.5489                 2.2418
 Frc consts  --      0.0039                 0.0159                 0.0088
 IR Inten    --      4.4993                 0.6637                 2.2763

                      4                      5                      6
                      A                      A                      A
 Frequencies --    104.3417               121.1576               148.1891
 Red. masses --      1.3184                 6.1014                 5.8941
 Frc consts  --      0.0085                 0.0528                 0.0763
 IR Inten    --      0.0679                15.1679                 3.0047

                      7                      8                      9
                      A                      A                      A
 Frequencies --    176.3651               201.1111               230.9040
 Red. masses --      9.0275                 3.9359                 3.9844
 Frc consts  --      0.1654                 0.0938                 0.1252
 IR Inten    --      2.6590                10.7764                 1.7661

                     10                     11                     12
                      A                      A                      A
 Frequencies --    256.5633               279.7360               281.6753
 Red. masses --      1.1632                 1.4573                 1.8112
 Frc consts  --      0.0451                 0.0672                 0.0847
 IR Inten    --      2.5416                18.8307                29.1379

                     13                     14                     15
                      A                      A                      A
 Frequencies --    307.7601               329.7107               385.8522
 Red. masses --      4.6692                 3.2326                 4.6755
 Frc consts  --      0.2606                 0.2070                 0.4101
 IR Inten    --     21.7175                 3.1144                16.5722

                     16                     17                     18
                      A                      A                      A
 Frequencies --    396.1232               416.3549               463.9466
 Red. masses --      6.9231                 2.8617                 5.6239
 Frc consts  --      0.6400                 0.2923                 0.7132
 IR Inten    --     59.5151               219.6628               989.8409

                     19                     20                     21
                      A                      A                      A
 Frequencies --    503.0429               550.6265               660.0819
 Red. masses --      4.7372                 3.9226                 5.4739
 Frc consts  --      0.7063                 0.7007                 1.4052
 IR Inten    --    231.9127                15.4611                93.7650

                     22                     23                     24
                      A                      A                      A
 Frequencies --    669.3188               680.2129               743.6259
 Red. masses --      3.9220                 3.7290                 6.8912
 Frc consts  --      1.0352                 1.0166                 2.2452
 IR Inten    --     30.3911                51.8274               175.9379

                     25                     26                     27
                      A                      A                      A
 Frequencies --    745.8311               842.1284               847.2767
 Red. masses --      6.6293                 1.9318                 2.5683
 Frc consts  --      2.1727                 0.8072                 1.0863
 IR Inten    --     15.3569                90.9122                57.3884

                     28                     29                     30
                      A                      A                      A
 Frequencies --    893.7734               918.3099               950.9967
 Red. masses --      2.5797                 1.1997                 1.4691
 Frc consts  --      1.2142                 0.5961                 0.7828
 IR Inten    --      6.0854                29.2602                31.6298

                     31                     32                     33
                      A                      A                      A
 Frequencies --    995.2291              1041.2701              1055.0434
 Red. masses --      2.0057                 1.4219                 2.3365
 Frc consts  --      1.1705                 0.9084                 1.5323
 IR Inten    --    307.7240                 1.4655                17.0412

                     34                     35                     36
                      A                      A                      A
 Frequencies --   1099.1293              1120.4932              1134.3004
 Red. masses --      2.2549                 2.0569                 9.5221
 Frc consts  --      1.6050                 1.5215                 7.2184
 IR Inten    --    447.6582                16.6451               293.2627

                     37                     38                     39
                      A                      A                      A
 Frequencies --   1168.1423              1190.3794              1246.3057
 Red. masses --      2.4336                 1.9405                 1.9481
 Frc consts  --      1.9565                 1.6200                 1.7829
 IR Inten    --     39.5618               238.0928               254.6033

                     40                     41                     42
                      A                      A                      A
 Frequencies --   1320.7785              1333.7178              1355.0236
 Red. masses --      1.9625                 1.3340                 1.6738
 Frc consts  --      2.0171                 1.3981                 1.8107
 IR Inten    --     54.5958               138.4190               660.6680

                     43                     44                     45
                      A                      A                      A
 Frequencies --   1358.7911              1382.1442              1386.7400
 Red. masses --      1.2937                 2.5764                 1.4806
 Frc consts  --      1.4073                 2.8998                 1.6776
 IR Inten    --     18.1642              2747.4307               242.7133

                     46                     47                     48
                      A                      A                      A
 Frequencies --   1400.0171              1437.3642              1450.4290
 Red. masses --      3.2159                 6.9726                 3.5231
 Frc consts  --      3.7138                 8.4875                 4.3668
 IR Inten    --     69.3747                90.1035               475.1853

                     49                     50                     51
                      A                      A                      A
 Frequencies --   1474.8543              1476.2095              1480.4382
 Red. masses --      1.0852                 1.1691                 1.0519
 Frc consts  --      1.3908                 1.5011                 1.3583
 IR Inten    --     75.7176               158.3917                66.8792

                     52                     53                     54
                      A                      A                      A
 Frequencies --   1490.6063              1495.4183              1506.8398
 Red. masses --      1.0506                 1.0523                 1.0528
 Frc consts  --      1.3754                 1.3865                 1.4085
 IR Inten    --      3.4084                25.3238                 1.9081

                     55                     56                     57
                      A                      A                      A
 Frequencies --   1572.3460              2938.9271              2962.2235
 Red. masses --      6.5814                 1.0534                 1.0388
 Frc consts  --      9.5867                 5.3606                 5.3706
 IR Inten    --   3500.9826               115.8969               869.9319

                     58                     59                     60
                      A                      A                      A
 Frequencies --   2977.9390              2983.8041              2986.4447
 Red. masses --      1.0813                 1.0408                 1.0987
 Frc consts  --      5.6496                 5.4594                 5.7736
 IR Inten    --     27.4714               105.9361                86.6583

                     61                     62                     63
                      A                      A                      A
 Frequencies --   3020.1036              3035.6564              3061.6834
 Red. masses --      1.0862                 1.0930                 1.0993
 Frc consts  --      5.8372                 5.9346                 6.0713
 IR Inten    --     24.4695               202.1297                34.7427

                     64                     65                     66
                      A                      A                      A
 Frequencies --   3075.4180              3099.2743              3123.9631
 Red. masses --      1.0948                 1.0955                 1.0862
 Frc consts  --      6.1009                 6.1997                 6.2456
 IR Inten    --     15.0924                 4.0357               141.5256

 - Thermochemistry -
 -------------------
 Temperature   298.150 Kelvin.  Pressure   1.00000 Atm.
 Atom     1 has atomic number  6 and mass  12.00000

 Molecular mass:   289.97630 amu.
 Principal axes and moments of inertia in atomic units:
                           1         2         3
     Eigenvalues --  2295.833395532.824277564.57361
           X            0.97279  -0.17355  -0.15350
           Y            0.08935   0.89227  -0.44257
           Z            0.21377   0.41681   0.88350
 This molecule is an asymmetric top.
 Rotational symmetry number  1.
 Warning -- assumption of classical behavior for rotation
           may cause significant error
 Rotational temperatures (Kelvin)      0.03773     0.01565     0.01145
 Rotational constants (GHZ):           0.78609     0.32619     0.23858
 Zero-point vibrational energy     475797.3 (Joules/Mol)
                                  113.71828 (Kcal/Mol)
 Warning -- explicit consideration of  20 degrees of freedom as
           vibrations may cause significant error
 Vibrational temperatures:     65.98   110.90   117.53   150.12   174.32
          (Kelvin)            213.21   253.75   289.35   332.22   369.14
                              402.48   405.27   442.80   474.38   555.16
                              569.93   599.04   667.52   723.77   792.23
                              949.71   963.00   978.67  1069.91  1073.08
                             1211.63  1219.04  1285.94  1321.24  1368.27
                             1431.91  1498.16  1517.97  1581.40  1612.14
                             1632.01  1680.70  1712.69  1793.16  1900.31
                             1918.92  1949.58  1955.00  1988.60  1995.21
                             2014.31  2068.05  2086.84  2121.99  2123.94
                             2130.02  2144.65  2151.57  2168.01  2262.26
                             4228.46  4261.98  4284.59  4293.03  4296.83
                             4345.26  4367.63  4405.08  4424.84  4459.16
                             4494.69

 Zero-point correction=                           0.181222 (Hartree/Particle)
 Thermal correction to Energy=                    0.195120
 Thermal correction to Enthalpy=                  0.196065
 Thermal correction to Gibbs Free Energy=         0.139311
 Sum of electronic and zero-point Energies=           -835.877840
 Sum of electronic and thermal Energies=              -835.863941
 Sum of electronic and thermal Enthalpies=            -835.862997
 Sum of electronic and thermal Free Energies=         -835.919751

                     E (Thermal)             CV                S
                      KCal/Mol        Cal/Mol-Kelvin    Cal/Mol-Kelvin
 Total                  122.440             50.461            119.449
 Electronic               0.000              0.000              0.000
 Translational            0.889              2.981             42.891
 Rotational               0.889              2.981             32.930
 Vibrational            120.662             44.500             43.628
 Vibration     1          0.595              1.979              4.988
 Vibration     2          0.599              1.964              3.964
 Vibration     3          0.600              1.962              3.850
 Vibration     4          0.605              1.946              3.372
 Vibration     5          0.609              1.932              3.082
 Vibration     6          0.618              1.905              2.695
 Vibration     7          0.628              1.871              2.367
 Vibration     8          0.638              1.838              2.123
 Vibration     9          0.653              1.794              1.872
 Vibration    10          0.666              1.752              1.685
 Vibration    11          0.680              1.711              1.535
 Vibration    12          0.681              1.708              1.523
 Vibration    13          0.698              1.659              1.374
 Vibration    14          0.713              1.616              1.262
 Vibration    15          0.755              1.500              1.016
 Vibration    16          0.763              1.478              0.977
 Vibration    17          0.780              1.435              0.904
 Vibration    18          0.821              1.330              0.755
 Vibration    19          0.858              1.243              0.651
 Vibration    20          0.906              1.138              0.543

                           ! Non-Optimized Parameters !
 Normal termination of Gaussian 16 at Sat Jan  6 20:13:19 2024.
