 Q-Chem 5.4, Q-Chem, Inc., Pleasanton, CA (2021)
 Q-Chem 5.4.0 for Intel X86 EM64T Linux

User input:
--------------------------------------------------------------
$molecule
-1 2
C                 -2.0285940000      0.3608500000      1.5330510000
C                 -2.9129560000      1.1967960000      0.7109440000
C                 -2.5197000000      1.5056140000     -0.5661040000
C                 -1.2820710000      1.0750370000     -1.1996730000
C                 -0.3978270000      0.2389280000     -0.3776490000
C                 -0.7910690000     -0.0698940000      0.8994070000
O                 -0.9775530000      1.3910610000     -2.3745930000
O                 -2.3333050000      0.0444640000      2.7078250000
Br                 0.3154870000     -1.1722680000      2.0634190000
Br                -3.6263780000      2.6077380000     -1.7302340000
C                  0.9094660000     -0.2360100000     -0.9985960000
C                  1.8499050000      0.9348940000     -1.3459840000
C                  0.6782680000     -1.1556250000     -2.2138790000
C                 -4.2203940000      1.6715300000      1.3317750000
C                 -3.9894940000      2.5915250000      2.5468270000
C                 -5.1605350000      0.5004450000      1.6793610000
H                  1.4142650000     -0.8340690000     -0.2393540000
H                  2.0517180000      1.5446980000     -0.4600320000
H                  1.4091820000      1.5716940000     -2.1135780000
H                  2.8081480000      0.5481980000     -1.7129710000
H                  0.0580830000     -2.0136620000     -1.9370280000
H                  1.6380870000     -1.5391010000     -2.5801080000
H                  0.1833520000     -0.6145730000     -3.0208840000
H                 -4.7253260000      2.2692780000      0.5723740000
H                 -4.9494280000      2.9749030000      2.9128640000
H                 -3.3694830000      3.4496130000      2.2697570000
H                 -3.4945370000      2.0508120000      3.3540310000
H                 -6.1189270000      0.8869570000      2.0461560000
H                 -4.7197200000     -0.1360420000      2.4471590000
H                 -5.3620800000     -0.1096040000      0.7935180000
$end

$rem
BASIS  =  6-311++G(d,p)
GUI  =  2
JOB_TYPE  =  SP
METHOD  =  B3LYP
SCF_CONVERGENCE  = 8
SOLVENT_METHOD = sm12
$end

$smx
solvent dimethylformamide
charges CM5
$end

--------------------------------------------------------------

             Standard Nuclear Orientation (Angstroms)
    I     Atom           X                Y                Z
 ----------------------------------------------------------------
    1      C      -2.0285940000     0.3608500000     1.5330510000
    2      C      -2.9129560000     1.1967960000     0.7109440000
    3      C      -2.5197000000     1.5056140000    -0.5661040000
    4      C      -1.2820710000     1.0750370000    -1.1996730000
    5      C      -0.3978270000     0.2389280000    -0.3776490000
    6      C      -0.7910690000    -0.0698940000     0.8994070000
    7      O      -0.9775530000     1.3910610000    -2.3745930000
    8      O      -2.3333050000     0.0444640000     2.7078250000
    9      Br      0.3154870000    -1.1722680000     2.0634190000
   10      Br     -3.6263780000     2.6077380000    -1.7302340000
   11      C       0.9094660000    -0.2360100000    -0.9985960000
   12      C       1.8499050000     0.9348940000    -1.3459840000
   13      C       0.6782680000    -1.1556250000    -2.2138790000
   14      C      -4.2203940000     1.6715300000     1.3317750000
   15      C      -3.9894940000     2.5915250000     2.5468270000
   16      C      -5.1605350000     0.5004450000     1.6793610000
   17      H       1.4142650000    -0.8340690000    -0.2393540000
   18      H       2.0517180000     1.5446980000    -0.4600320000
   19      H       1.4091820000     1.5716940000    -2.1135780000
   20      H       2.8081480000     0.5481980000    -1.7129710000
   21      H       0.0580830000    -2.0136620000    -1.9370280000
   22      H       1.6380870000    -1.5391010000    -2.5801080000
   23      H       0.1833520000    -0.6145730000    -3.0208840000
   24      H      -4.7253260000     2.2692780000     0.5723740000
   25      H      -4.9494280000     2.9749030000     2.9128640000
   26      H      -3.3694830000     3.4496130000     2.2697570000
   27      H      -3.4945370000     2.0508120000     3.3540310000
   28      H      -6.1189270000     0.8869570000     2.0461560000
   29      H      -4.7197200000    -0.1360420000     2.4471590000
   30      H      -5.3620800000    -0.1096040000     0.7935180000
 ----------------------------------------------------------------

   17   -5764.6792949691      5.00e-09  Convergence criterion met
 Total energy in the final basis set =    -5764.7509700098

                    Orbital Energies (a.u.)
 --------------------------------------------------------------

 Alpha MOs
 -- Occupied --
********-482.8176 -62.4702 -62.4702 -56.2906 -56.2906 -56.2871 -56.2871
-56.2867 -56.2867 -19.0796 -19.0796 -10.2330 -10.2330 -10.2187 -10.2187
-10.1865 -10.1865 -10.1813 -10.1813 -10.1593 -10.1593 -10.1593 -10.1593
 -8.6788  -8.6788  -6.5098  -6.5098  -6.4978  -6.4978  -6.4969  -6.4969
 -2.6209  -2.6209  -2.6174  -2.6174  -2.6167  -2.6167  -2.6073  -2.6073
 -2.6073  -2.6073  -1.0104  -1.0078  -0.8553  -0.8297  -0.7914  -0.7868
 -0.7619  -0.7136  -0.6863  -0.6862  -0.6728  -0.6307  -0.5805  -0.5674
 -0.5400  -0.5135  -0.4640  -0.4525  -0.4466  -0.4364  -0.4352  -0.4173
 -0.4141  -0.4120  -0.4022  -0.3998  -0.3956  -0.3810  -0.3711  -0.3653
 -0.3535  -0.3500  -0.3492  -0.3453  -0.3390  -0.3390  -0.3147  -0.3084
 -0.2774  -0.2709  -0.2673  -0.2430  -0.2396  -0.2395  -0.1649

 Beta MOs
 -- Occupied --
********-482.8176 -62.4702 -62.4702 -56.2906 -56.2906 -56.2870 -56.2870
-56.2867 -56.2867 -19.0725 -19.0725 -10.2318 -10.2318 -10.2176 -10.2176
-10.1853 -10.1853 -10.1814 -10.1814 -10.1593 -10.1593 -10.1592 -10.1592
 -8.6788  -8.6788  -6.5099  -6.5099  -6.4978  -6.4978  -6.4969  -6.4969
 -2.6210  -2.6210  -2.6173  -2.6173  -2.6167  -2.6167  -2.6073  -2.6072
 -2.6072  -2.6072  -0.9984  -0.9955  -0.8504  -0.8284  -0.7907  -0.7854
 -0.7601  -0.7112  -0.6861  -0.6860  -0.6643  -0.6285  -0.5795  -0.5637
 -0.5371  -0.5120  -0.4623  -0.4510  -0.4453  -0.4344  -0.4265  -0.4140
 -0.4125  -0.4063  -0.3974  -0.3933  -0.3928  -0.3776  -0.3627  -0.3535
 -0.3527  -0.3484  -0.3477  -0.3438  -0.3384  -0.3383  -0.3081  -0.2953
 -0.2769  -0.2706  -0.2449  -0.2368  -0.2338  -0.2336

          Ground-State Mulliken Net Atomic Charges

     Atom                 Charge (a.u.)    Spin (a.u.)
  --------------------------------------------------------
      1 C                    -2.056261       0.043932
      2 C                     0.784718       0.128720
      3 C                    -0.149347       0.078739
      4 C                    -2.056137       0.043938
      5 C                     0.784462       0.128730
      6 C                    -0.149458       0.078746
      7 O                    -0.201736       0.261816
      8 O                    -0.201742       0.261816
      9 Br                    0.021313       0.004511
     10 Br                    0.021330       0.004510
     11 C                     1.005355      -0.036029
     12 C                    -0.479412       0.010213
     13 C                    -0.479689       0.010217
     14 C                     1.005348      -0.036017
     15 C                    -0.479437       0.010220
     16 C                    -0.479579       0.010204
     17 H                     0.166460      -0.000586
     18 H                     0.092450       0.000337
     19 H                     0.129262      -0.001408
     20 H                     0.222812       0.000280
     21 H                     0.092698       0.000343
     22 H                     0.222567       0.000280
     23 H                     0.128883      -0.001380
     24 H                     0.166450      -0.000585
     25 H                     0.222625       0.000282
     26 H                     0.092747       0.000341
     27 H                     0.128896      -0.001381
     28 H                     0.222788       0.000278
     29 H                     0.129238      -0.001407
     30 H                     0.092396       0.000339
  --------------------------------------------------------
  Sum of atomic charges =    -1.000000

                    Cartesian Multipole Moments
 -----------------------------------------------------------------
    Charge (ESU x 10^10)
                -4.8032
    Dipole Moment (Debye)
         X       7.9513      Y      -3.4473      Z      -0.8002
       Tot       8.7033
    Quadrupole Moments (Debye-Ang)
        XX    -150.1608     XY       9.2185     YY    -137.9844
        XZ       3.9091     YZ      10.7481     ZZ    -159.7915

 Total job time:  918.16s(wall), 7074.30s(cpu)
        *  Thank you very much for using Q-Chem.  Have a nice day.  *
