 Q-Chem 5.4, Q-Chem, Inc., Pleasanton, CA (2021)
 Q-Chem 5.4.0 for Intel X86 EM64T Linux

User input:
--------------------------------------------------------------
$molecule
-2 1
Cl                -2.5166040000      2.8736260000      1.6226190000
C                 -2.3869310000      1.1905610000      0.9984920000
C                 -3.6064410000      0.5592540000      0.8698190000
C                 -3.6597310000     -0.7444700000      0.3078770000
C                 -2.5005190000     -1.3322150000     -0.1351110000
C                 -1.2383660000     -0.6919230000     -0.0290580000
C                 -0.0937170000     -1.3923890000     -0.5522190000
O                 -0.1815000000     -2.5751230000     -1.0639340000
C                  1.1511880000     -0.6708420000     -0.4874450000
C                  2.2949920000     -1.2896410000     -1.0558620000
C                  3.5258330000     -0.6811940000     -1.0707900000
C                  3.6626230000      0.6224740000     -0.5231060000
C                  2.5669200000      1.2332640000      0.0502150000
Cl                 2.8908490000      2.9193440000      0.5899710000
C                  1.2741260000      0.6449250000      0.1445720000
C                  0.1525780000      1.2570990000      0.8535970000
O                  0.2947620000      2.2389740000      1.6415110000
C                 -1.1411250000      0.6239200000      0.6070990000
H                 -4.5097740000      1.0747280000      1.1751150000
H                 -4.6178410000     -1.2520650000      0.2158580000
H                 -2.4915480000     -2.3155650000     -0.5932160000
H                  2.1336320000     -2.2740530000     -1.4822490000
H                  4.3901430000     -1.1724200000     -1.5132190000
H                  4.6062540000      1.1537280000     -0.5709350000
$end
$rem
MAX_SCF_CYCLES=200
BASIS  =  6-311++G(d,p)
GUI  =  2
JOB_TYPE  =  SP
METHOD  =  B3LYP
SOLVENT_METHOD = PCM
$end
$pcm
theory = CPCM
$end
$solvent
dielectric 37.219
opticaldielectric 1.43
$end

--------------------------------------------------------------

             Standard Nuclear Orientation (Angstroms)
    I     Atom           X                Y                Z
 ----------------------------------------------------------------
    1      Cl     -2.5166040000     2.8736260000     1.6226190000
    2      C      -2.3869310000     1.1905610000     0.9984920000
    3      C      -3.6064410000     0.5592540000     0.8698190000
    4      C      -3.6597310000    -0.7444700000     0.3078770000
    5      C      -2.5005190000    -1.3322150000    -0.1351110000
    6      C      -1.2383660000    -0.6919230000    -0.0290580000
    7      C      -0.0937170000    -1.3923890000    -0.5522190000
    8      O      -0.1815000000    -2.5751230000    -1.0639340000
    9      C       1.1511880000    -0.6708420000    -0.4874450000
   10      C       2.2949920000    -1.2896410000    -1.0558620000
   11      C       3.5258330000    -0.6811940000    -1.0707900000
   12      C       3.6626230000     0.6224740000    -0.5231060000
   13      C       2.5669200000     1.2332640000     0.0502150000
   14      Cl      2.8908490000     2.9193440000     0.5899710000
   15      C       1.2741260000     0.6449250000     0.1445720000
   16      C       0.1525780000     1.2570990000     0.8535970000
   17      O       0.2947620000     2.2389740000     1.6415110000
   18      C      -1.1411250000     0.6239200000     0.6070990000
   19      H      -4.5097740000     1.0747280000     1.1751150000
   20      H      -4.6178410000    -1.2520650000     0.2158580000
   21      H      -2.4915480000    -2.3155650000    -0.5932160000
   22      H       2.1336320000    -2.2740530000    -1.4822490000
   23      H       4.3901430000    -1.1724200000    -1.5132190000
   24      H       4.6062540000     1.1537280000    -0.5709350000
 ----------------------------------------------------------------

    9   -1608.4262388643      5.48e-06  Convergence criterion met
 Total energy in the final basis set =    -1608.4262388643

                    Orbital Energies (a.u.)
 --------------------------------------------------------------

 Alpha MOs
 -- Occupied --
********-101.5323 -19.0279 -19.0248 -10.2187 -10.2187 -10.1961 -10.1791
-10.1593 -10.1592 -10.1591 -10.1591 -10.1573 -10.1573 -10.1509 -10.1508
-10.1482 -10.1481  -9.4471  -9.4471  -7.2113  -7.2113  -7.2025  -7.2024
 -7.2016  -7.2015  -0.9589  -0.9424  -0.8624  -0.8615  -0.8142  -0.8074
 -0.7622  -0.7195  -0.7180  -0.7135  -0.6468  -0.6162  -0.6042  -0.5550
 -0.5329  -0.5137  -0.5025  -0.4552  -0.4484  -0.4440  -0.4377  -0.4106
 -0.4098  -0.3986  -0.3958  -0.3825  -0.3770  -0.3709  -0.3645  -0.3462
 -0.3373  -0.3315  -0.3301  -0.3153  -0.3152  -0.3051  -0.2998  -0.2926
 -0.2358  -0.2335  -0.2266  -0.2265  -0.2080  -0.1965  -0.1132

          Ground-State Mulliken Net Atomic Charges

     Atom                 Charge (a.u.)
  ----------------------------------------
      1 Cl                    0.331508
      2 C                     0.693001
      3 C                    -0.395879
      4 C                    -0.822067
      5 C                     0.213202
      6 C                     0.232630
      7 C                    -0.703677
      8 O                    -0.668538
      9 C                     0.232953
     10 C                     0.215542
     11 C                    -0.823072
     12 C                    -0.396623
     13 C                     0.698212
     14 Cl                    0.331129
     15 C                     0.327613
     16 C                    -2.419547
     17 O                    -0.455770
     18 C                     0.340085
     19 H                     0.192393
     20 H                     0.180475
     21 H                     0.161449
     22 H                     0.162028
     23 H                     0.180415
     24 H                     0.192539
  ----------------------------------------
  Sum of atomic charges =    -2.000000

                    Cartesian Multipole Moments
 -----------------------------------------------------------------
    Charge (ESU x 10^10)
                -9.6064
    Dipole Moment (Debye)
         X      -0.6068      Y      -3.0956      Z      -3.2881
       Tot       4.5566
    Quadrupole Moments (Debye-Ang)
        XX    -141.8971     XY      -4.4905     YY    -178.8565
        XZ      -0.1300     YZ     -25.1473     ZZ    -143.6477

 Total job time:  82.17s(wall), 355.55s(cpu)
        *  Thank you very much for using Q-Chem.  Have a nice day.  *
