 Q-Chem 5.4, Q-Chem, Inc., Pleasanton, CA (2021)
 Q-Chem 5.4.0 for Intel X86 EM64T Linux

User input:
--------------------------------------------------------------
$molecule
-1 2
C                  3.4304930000      5.9716550000      0.6496610000
C                  2.1385670000      5.4358480000      1.0732140000
C                  1.9918310000      4.0947490000      1.3571030000
C                  3.1031870000      3.1770690000      1.2268010000
C                  4.3877230000      3.6986020000      0.8145130000
C                  4.5457560000      5.0383670000      0.5367570000
O                  3.5766410000      7.2010790000      0.3926380000
O                  2.9578200000      1.9234530000      1.4723610000
C                  5.8763950000      5.5979540000      0.1008820000
C                  5.5375140000      2.7280560000      0.6968240000
C                  1.0014910000      6.4248440000      1.1864610000
C                  0.6843290000      3.4951710000      1.8262860000
C                 -0.0069590000      2.5574930000      0.7838340000
C                 -0.2347150000      1.1295600000      1.2722940000
O                 -1.3292100000      0.5986630000      1.2560840000
O                  0.8452610000      0.4944980000      1.7118430000
H                  6.6522710000      5.4312780000      0.8584880000
H                  5.7812500000      6.6696760000     -0.0723280000
H                  6.2318730000      5.1224730000     -0.8217600000
H                  5.2038520000      1.7267640000      0.9669240000
H                  6.3699690000      3.0102590000      1.3528470000
H                  5.9372880000      2.7001420000     -0.3242700000
H                  1.3282790000      7.3863140000      0.7906920000
H                  0.6949550000      6.5767660000      2.2289510000
H                  0.1152280000      6.0968480000      0.6333640000
H                 -0.0140790000      4.2862870000      2.0976010000
H                  0.8758210000      2.9273470000      2.7421330000
H                  0.6127110000      2.5003170000     -0.1167080000
H                 -0.9786900000      2.9523680000      0.4859050000
H                  1.6773130000      1.0824320000      1.6367220000
$end
$rem
MAX_SCF_CYCLES=200
BASIS  =  6-311++G(d,p)
GUI  =  2
JOB_TYPE  =  SP
METHOD  =  B3LYP
SOLVENT_METHOD = COSMO
$end
$solvent
dielectric 37.219
opticaldielectric 1.43
$end

--------------------------------------------------------------

             Standard Nuclear Orientation (Angstroms)
    I     Atom           X                Y                Z
 ----------------------------------------------------------------
    1      C       2.3278094351     0.9694050554    -0.0658543284
    2      C       0.9693116863     1.4597107171     0.1569534343
    3      C      -0.0794366168     0.5790854317     0.3160038956
    4      C       0.1288119470    -0.8514152385     0.2487155577
    5      C       1.4707534157    -1.3469512088     0.0350616392
    6      C       2.5259467377    -0.4748057239    -0.1166696574
    7      O       3.2972213240     1.7689054519    -0.2070745033
    8      O      -0.8546936489    -1.6695198443     0.3768012734
    9      C       3.9302966755    -0.9741112081    -0.3451867468
   10      C       1.6695798625    -2.8420590414    -0.0192540645
   11      C       0.7927582622     2.9596816014     0.2098309860
   12      C      -1.4985726312     1.0341079769     0.5771463885
   13      C      -2.4847580667     0.7869772260    -0.6103678142
   14      C      -3.6795714328    -0.0977880248    -0.2653024717
   15      O      -4.8294501172     0.2519398102    -0.4537252582
   16      O      -3.3842114090    -1.2854068916     0.2496529741
   17      H       4.2750904428    -1.6036418538     0.4845961957
   18      H       4.6065504269    -0.1253260378    -0.4446197327
   19      H       3.9985200102    -1.5867252561    -1.2528015631
   20      H       0.7155937486    -3.3464817043     0.1302059005
   21      H       2.3717462049    -3.1820457629     0.7516917789
   22      H       2.0849303633    -3.1577062411    -0.9841800751
   23      H       1.7326528879     3.4364352335    -0.0679317296
   24      H       0.5255451737     3.3039836950     1.2167486823
   25      H       0.0062115272     3.3048654638    -0.4692508260
   26      H      -1.5118622926     2.0953956977     0.8236050010
   27      H      -1.8703997598     0.5087280643     1.4623523207
   28      H      -1.9463376161     0.3038740673    -1.4319216190
   29      H      -2.8830098726     1.7280156169    -0.9908823829
   30      H      -2.3737360824    -1.4177445703     0.3206912516
 ----------------------------------------------------------------

    9    -766.9283694172      6.02e-06  Convergence criterion met
 Total energy in the final basis set =     -766.9283694172
    4    -767.0077547860      7.89e-06  Convergence criterion met
 Total energy in the final basis set =     -767.0077547860

                    Orbital Energies (a.u.)
 --------------------------------------------------------------

 Alpha MOs
 -- Occupied --
-19.1472 -19.1107 -19.0903 -19.0816 -10.3033 -10.2245 -10.2201 -10.1792
-10.1734 -10.1722 -10.1692 -10.1686 -10.1677 -10.1525 -10.1521 -10.1516
 -1.0965  -1.0191  -1.0054  -1.0032  -0.8370  -0.8027  -0.7662  -0.7246
 -0.7097  -0.6820  -0.6409  -0.6297  -0.6006  -0.5506  -0.5463  -0.5178
 -0.5039  -0.4710  -0.4603  -0.4530  -0.4422  -0.4334  -0.4241  -0.4124
 -0.4054  -0.3984  -0.3911  -0.3877  -0.3864  -0.3831  -0.3746  -0.3683
 -0.3675  -0.3631  -0.3529  -0.3434  -0.3290  -0.3205  -0.2835  -0.2741
 -0.2618  -0.2416  -0.2335  -0.1662

 Beta MOs
 -- Occupied --
-19.1472 -19.1107 -19.0848 -19.0744 -10.3033 -10.2218 -10.2187 -10.1791
-10.1734 -10.1706 -10.1688 -10.1676 -10.1668 -10.1526 -10.1522 -10.1517
 -1.0965  -1.0173  -0.9961  -0.9914  -0.8319  -0.8013  -0.7645  -0.7210
 -0.7076  -0.6800  -0.6347  -0.6287  -0.5994  -0.5473  -0.5420  -0.5171
 -0.5025  -0.4705  -0.4591  -0.4497  -0.4377  -0.4283  -0.4197  -0.4100
 -0.4012  -0.3936  -0.3890  -0.3868  -0.3852  -0.3824  -0.3687  -0.3661
 -0.3581  -0.3515  -0.3427  -0.3406  -0.3274  -0.3201  -0.2818  -0.2569
 -0.2475  -0.2355  -0.2267

          Ground-State Mulliken Net Atomic Charges

     Atom                 Charge (a.u.)    Spin (a.u.)
  --------------------------------------------------------
      1 C                    -1.490958       0.062383
      2 C                     0.746742       0.126704
      3 C                     0.962102       0.033008
      4 C                    -1.130893       0.164864
      5 C                     0.576728       0.019221
      6 C                     0.859995       0.125326
      7 O                    -0.492887       0.256985
      8 O                    -0.562203       0.196533
      9 C                    -0.493960      -0.001359
     10 C                    -0.519928       0.000838
     11 C                    -0.645077      -0.004919
     12 C                    -0.457048      -0.001823
     13 C                    -0.450500       0.000019
     14 C                     0.012174       0.001038
     15 O                    -0.421290       0.000675
     16 O                    -0.392283       0.002217
     17 H                     0.164780       0.004624
     18 H                     0.180080      -0.001672
     19 H                     0.165528       0.004550
     20 H                     0.178431      -0.000630
     21 H                     0.158696       0.001945
     22 H                     0.159691       0.001918
     23 H                     0.175510      -0.001833
     24 H                     0.188432       0.006369
     25 H                     0.173190       0.004781
     26 H                     0.198161       0.000143
     27 H                     0.203362       0.002666
     28 H                     0.227787       0.001063
     29 H                     0.211312      -0.000077
     30 H                     0.514327      -0.005560
  --------------------------------------------------------
  Sum of atomic charges =    -1.000000

                    Cartesian Multipole Moments
 -----------------------------------------------------------------
    Charge (ESU x 10^10)
                -4.8032
    Dipole Moment (Debye)
         X       3.4748      Y       0.2092      Z      -0.0368
       Tot       3.4813
    Quadrupole Moments (Debye-Ang)
        XX    -177.3740     XY     -24.1034     YY    -110.6030
        XZ      -0.0795     YZ       3.7793     ZZ     -97.9592

 Total job time:  88.43s(wall), 596.98s(cpu)
        *  Thank you very much for using Q-Chem.  Have a nice day.  *
