 Gaussian 16, Revision A.03,
 Gaussian 16:  ES64L-G16RevA.03 25-Dec-2016

 ----------------------------------------------------------------
 #P UB3LYP/6-311++G(d,p) SCRF=(PCM,Solvent=n,n-DiMethylFormamide)
 ----------------------------------------------------------------

 ------------------
 Quinone PCM in DMF
 ------------------
 Symbolic Z-matrix:
 Charge =  0 Multiplicity = 1

                         Standard orientation:
 ---------------------------------------------------------------------
 Center     Atomic      Atomic             Coordinates (Angstroms)
 Number     Number       Type             X           Y           Z
 ---------------------------------------------------------------------
      1          7           0        3.782253   -2.316747   -0.000604
      2          6           0        3.596513   -0.973023    0.000028
      3          6           0        4.723860   -0.115575    0.000678
      4          6           0        4.579876    1.255088    0.001024
      5          6           0        3.308392    1.840976    0.000628
      6          6           0        2.183140    1.031726    0.000000
      7          6           0        0.849938    1.707719   -0.000582
      8          8           0        0.747928    2.923547   -0.001221
      9          6           0       -0.357829    0.837710   -0.000315
     10          6           0       -1.621766    1.427674   -0.000189
     11          6           0       -2.764073    0.638865    0.000060
     12         17           0       -4.324997    1.414451    0.000322
     13          6           0       -2.644361   -0.761120    0.000083
     14         17           0       -4.052344   -1.788622    0.000317
     15          6           0       -1.386191   -1.349018   -0.000089
     16          6           0       -0.237076   -0.558216   -0.000248
     17          6           0        1.097172   -1.229929   -0.000319
     18          8           0        1.145655   -2.464250   -0.000435
     19          6           0        2.294680   -0.385904   -0.000188
     20          1           0        2.969750   -2.920190   -0.000281
     21          1           0        4.712737   -2.697520    0.000766
     22          1           0        5.713637   -0.560549    0.000788
     23          1           0        5.463066    1.884034    0.001530
     24          1           0        3.180358    2.915058    0.000783
     25          1           0       -1.698761    2.507110   -0.000276
     26          1           0       -1.284072   -2.426018   -0.000111
 ---------------------------------------------------------------------

 SCF Done:  E(UB3LYP) =  -1663.58720639     A.U. after   16 cycles

 The electronic state is 1-A.
 Alpha  occ. eigenvalues -- -101.57746-101.57715 -19.13306 -19.13028 -14.33866
 Alpha  occ. eigenvalues --  -10.28634 -10.28401 -10.27370 -10.27278 -10.25211
 Alpha  occ. eigenvalues --  -10.21972 -10.21830 -10.21575 -10.21453 -10.20993
 Alpha  occ. eigenvalues --  -10.20550 -10.20009 -10.19546 -10.19017  -9.49209
 Alpha  occ. eigenvalues --   -9.49178  -7.25684  -7.25654  -7.24700  -7.24667
 Alpha  occ. eigenvalues --   -7.24628  -7.24598  -1.06892  -1.06394  -0.94877
 Alpha  occ. eigenvalues --   -0.94064  -0.88282  -0.88162  -0.86536  -0.80578
 Alpha  occ. eigenvalues --   -0.78509  -0.76392  -0.76060  -0.69213  -0.67322
 Alpha  occ. eigenvalues --   -0.65145  -0.63124  -0.59683  -0.57639  -0.56274
 Alpha  occ. eigenvalues --   -0.53211  -0.52063  -0.51277  -0.49999  -0.48281
 Alpha  occ. eigenvalues --   -0.47815  -0.46815  -0.46416  -0.46048  -0.45368
 Alpha  occ. eigenvalues --   -0.43971  -0.43402  -0.42408  -0.42352  -0.40159
 Alpha  occ. eigenvalues --   -0.39829  -0.38844  -0.38155  -0.36872  -0.35056
 Alpha  occ. eigenvalues --   -0.34918  -0.33819  -0.32977  -0.29149  -0.28851
 Alpha  occ. eigenvalues --   -0.28398  -0.27876  -0.27256  -0.23081
 Alpha virt. eigenvalues --   -0.12144  -0.07761  -0.04485  -0.02398  -0.02092
 Alpha virt. eigenvalues --   -0.00707   0.00277   0.00685   0.01807   0.02274
 Alpha virt. eigenvalues --    0.02369   0.02700   0.03500   0.03506   0.04322

  Beta  occ. eigenvalues -- -101.57746-101.57715 -19.13306 -19.13028 -14.33866
  Beta  occ. eigenvalues --  -10.28634 -10.28401 -10.27370 -10.27278 -10.25211
  Beta  occ. eigenvalues --  -10.21972 -10.21830 -10.21575 -10.21453 -10.20993
  Beta  occ. eigenvalues --  -10.20550 -10.20009 -10.19546 -10.19017  -9.49209
  Beta  occ. eigenvalues --   -9.49178  -7.25684  -7.25654  -7.24700  -7.24667
  Beta  occ. eigenvalues --   -7.24628  -7.24598  -1.06892  -1.06394  -0.94877
  Beta  occ. eigenvalues --   -0.94064  -0.88282  -0.88162  -0.86536  -0.80578
  Beta  occ. eigenvalues --   -0.78509  -0.76392  -0.76060  -0.69213  -0.67322
  Beta  occ. eigenvalues --   -0.65145  -0.63124  -0.59683  -0.57639  -0.56274
  Beta  occ. eigenvalues --   -0.53211  -0.52063  -0.51277  -0.49999  -0.48281
  Beta  occ. eigenvalues --   -0.47815  -0.46815  -0.46416  -0.46048  -0.45368
  Beta  occ. eigenvalues --   -0.43971  -0.43402  -0.42408  -0.42352  -0.40159
  Beta  occ. eigenvalues --   -0.39829  -0.38844  -0.38155  -0.36872  -0.35056
  Beta  occ. eigenvalues --   -0.34918  -0.33819  -0.32977  -0.29149  -0.28851
  Beta  occ. eigenvalues --   -0.28398  -0.27876  -0.27256  -0.23081
  Beta virt. eigenvalues --   -0.12144  -0.07761  -0.04485  -0.02398  -0.02092
  Beta virt. eigenvalues --   -0.00707   0.00277   0.00685   0.01807   0.02274
  Beta virt. eigenvalues --    0.02369   0.02700   0.03500   0.03506   0.04322

 Mulliken charges and spin densities:
               1          2
     1  N   -0.427552  -0.000000
     2  C    0.332933  -0.000000
     3  C   -0.214947   0.000000
     4  C   -0.505407  -0.000000
     5  C    0.107996   0.000000
     6  C    0.364434   0.000000
     7  C   -0.847124   0.000000
     8  O   -0.266329  -0.000000
     9  C   -0.459494   0.000000
    10  C   -0.352374  -0.000000
    11  C    0.464694   0.000000
    12  Cl   0.592210  -0.000000
    13  C    0.372140  -0.000000
    14  Cl   0.592673   0.000000
    15  C   -0.103169  -0.000000
    16  C   -0.122763  -0.000000
    17  C   -1.032182   0.000000
    18  O   -0.292950  -0.000000
    19  C    0.091363   0.000000
    20  H    0.336473   0.000000
    21  H    0.316882   0.000000
    22  H    0.190430   0.000000
    23  H    0.214273  -0.000000
    24  H    0.177610   0.000000
    25  H    0.230242  -0.000000
    26  H    0.239938   0.000000
 Sum of Mulliken charges =  -0.00000  -0.00000

 Dipole moment (field-independent basis, Debye):
    X=              5.6908    Y=             -2.1347    Z=              0.0057  Tot=              6.0780
 Quadrupole moment (field-independent basis, Debye-Ang):
   XX=            -94.5129   YY=           -128.8198   ZZ=           -125.0156
   XY=             -7.2924   XZ=              0.0208   YZ=             -0.0012

 Normal termination of Gaussian 16 at Sun Jan 14 01:05:56 2024.
