 Q-Chem 5.4, Q-Chem, Inc., Pleasanton, CA (2021)
 Q-Chem 5.4.0 for Intel X86 EM64T Linux

User input:
--------------------------------------------------------------
$molecule
-1 2
C                 -1.0906900000      1.6008730000      1.0331780000
C                 -2.3720870000      0.9232270000      0.9142270000
C                 -2.6880420000     -0.0504170000      0.0001710000
C                 -1.6635660000     -0.4722540000     -0.9639990000
C                 -0.3770810000      0.1878650000     -0.8675850000
C                 -0.1144410000      1.1511520000      0.0616690000
Br                 1.6387550000      1.9761720000      0.1094700000
C                 -4.0778920000     -0.7100720000     -0.0456520000
C                 -4.7290730000     -0.4598240000     -1.4278050000
C                 -5.0295860000     -0.1534990000      1.0301570000
C                 -3.9401360000     -2.2343390000      0.1887790000
O                 -0.8838500000      2.4850810000      1.9000570000
O                 -1.8536590000     -1.3602700000     -1.8443630000
H                 -3.0974890000      1.2646400000      1.6428450000
H                  0.3736380000     -0.1281600000     -1.5816080000
H                 -4.8646400000      0.6134120000     -1.5975790000
H                 -5.7156470000     -0.9377370000     -1.4738190000
H                 -4.1018410000     -0.8620570000     -2.2228070000
H                 -5.1992650000      0.9203040000      0.9085760000
H                 -4.6471530000     -0.3239300000      2.0407780000
H                 -5.9994370000     -0.6563770000      0.9504300000
H                 -3.2951970000     -2.6792540000     -0.5684240000
H                 -4.9257630000     -2.7146370000      0.1469620000
H                 -3.5090990000     -2.4315490000      1.1758490000
$end

$rem
BASIS  =  6-311++G(d,p)
GUI  =  2
JOB_TYPE  =  SP
METHOD  =  B3LYP
SCF_CONVERGENCE  = 8
SOLVENT_METHOD = sm12
$end

$smx
solvent dimethylformamide
charges CM5
$end

--------------------------------------------------------------

             Standard Nuclear Orientation (Angstroms)
    I     Atom           X                Y                Z
 ----------------------------------------------------------------
    1      C      -1.0906900000     1.6008730000     1.0331780000
    2      C      -2.3720870000     0.9232270000     0.9142270000
    3      C      -2.6880420000    -0.0504170000     0.0001710000
    4      C      -1.6635660000    -0.4722540000    -0.9639990000
    5      C      -0.3770810000     0.1878650000    -0.8675850000
    6      C      -0.1144410000     1.1511520000     0.0616690000
    7      Br      1.6387550000     1.9761720000     0.1094700000
    8      C      -4.0778920000    -0.7100720000    -0.0456520000
    9      C      -4.7290730000    -0.4598240000    -1.4278050000
   10      C      -5.0295860000    -0.1534990000     1.0301570000
   11      C      -3.9401360000    -2.2343390000     0.1887790000
   12      O      -0.8838500000     2.4850810000     1.9000570000
   13      O      -1.8536590000    -1.3602700000    -1.8443630000
   14      H      -3.0974890000     1.2646400000     1.6428450000
   15      H       0.3736380000    -0.1281600000    -1.5816080000
   16      H      -4.8646400000     0.6134120000    -1.5975790000
   17      H      -5.7156470000    -0.9377370000    -1.4738190000
   18      H      -4.1018410000    -0.8620570000    -2.2228070000
   19      H      -5.1992650000     0.9203040000     0.9085760000
   20      H      -4.6471530000    -0.3239300000     2.0407780000
   21      H      -5.9994370000    -0.6563770000     0.9504300000
   22      H      -3.2951970000    -2.6792540000    -0.5684240000
   23      H      -4.9257630000    -2.7146370000     0.1469620000
   24      H      -3.5090990000    -2.4315490000     1.1758490000
 ----------------------------------------------------------------

   18   -3112.4859568477      3.84e-09  Convergence criterion met
 Total energy in the final basis set =    -3112.5637309155

                    Orbital Energies (a.u.)
 --------------------------------------------------------------

 Alpha MOs
 -- Occupied --
******** -62.4733 -56.2937 -56.2901 -56.2898 -19.0806 -19.0796 -10.2299
-10.2275 -10.2193 -10.1955 -10.1815 -10.1753 -10.1706 -10.1642 -10.1603
-10.1602  -8.6818  -6.5127  -6.5007  -6.5000  -2.6237  -2.6202  -2.6198
 -2.6102  -2.6102  -1.0056  -1.0020  -0.8483  -0.8267  -0.7813  -0.7283
 -0.6935  -0.6894  -0.6830  -0.6096  -0.5828  -0.5334  -0.4912  -0.4769
 -0.4471  -0.4446  -0.4435  -0.4330  -0.4219  -0.4078  -0.3972  -0.3877
 -0.3786  -0.3768  -0.3699  -0.3648  -0.3434  -0.3400  -0.3322  -0.3184
 -0.2817  -0.2785  -0.2502  -0.2453  -0.2388  -0.1668

 Beta MOs
 -- Occupied --
******** -62.4733 -56.2937 -56.2900 -56.2898 -19.0732 -19.0723 -10.2290
-10.2264 -10.2179 -10.1956 -10.1804 -10.1741 -10.1697 -10.1643 -10.1602
-10.1602  -8.6817  -6.5127  -6.5006  -6.5000  -2.6237  -2.6202  -2.6198
 -2.6102  -2.6101  -0.9930  -0.9892  -0.8438  -0.8250  -0.7793  -0.7257
 -0.6923  -0.6892  -0.6745  -0.6059  -0.5796  -0.5308  -0.4893  -0.4746
 -0.4438  -0.4436  -0.4420  -0.4320  -0.4098  -0.4008  -0.3872  -0.3860
 -0.3763  -0.3718  -0.3679  -0.3468  -0.3418  -0.3369  -0.3318  -0.3086
 -0.2814  -0.2504  -0.2419  -0.2384  -0.2325

          Ground-State Mulliken Net Atomic Charges

     Atom                 Charge (a.u.)    Spin (a.u.)
  --------------------------------------------------------
      1 C                    -1.620831       0.077867
      2 C                    -0.799549       0.036013
      3 C                     0.500717       0.121876
      4 C                    -1.214916       0.060848
      5 C                    -0.762709       0.082653
      6 C                     1.319250       0.112879
      7 Br                    0.068260       0.007519
      8 C                     1.029940      -0.037818
      9 C                    -0.508651       0.012752
     10 C                     0.298164       0.000113
     11 C                    -0.508608       0.012819
     12 O                    -0.314665       0.267513
     13 O                    -0.300766       0.264680
     14 H                     0.132713      -0.007752
     15 H                     0.180891      -0.009719
     16 H                     0.098293       0.001038
     17 H                     0.262115       0.000172
     18 H                     0.093860      -0.002120
     19 H                     0.134530      -0.000288
     20 H                     0.134464      -0.000289
     21 H                     0.323568       0.000124
     22 H                     0.093284      -0.002091
     23 H                     0.262258       0.000194
     24 H                     0.098388       0.001020
  --------------------------------------------------------
  Sum of atomic charges =    -1.000000

                    Cartesian Multipole Moments
 -----------------------------------------------------------------
    Charge (ESU x 10^10)
                -4.8032
    Dipole Moment (Debye)
         X       4.5913      Y      -3.7372      Z      -0.3040
       Tot       5.9279
    Quadrupole Moments (Debye-Ang)
        XX    -108.9082     XY      -4.1008     YY    -117.7636
        XZ      -4.3583     YZ     -16.2790     ZZ    -112.1552

 Total job time:  505.31s(wall), 3806.71s(cpu)
        *  Thank you very much for using Q-Chem.  Have a nice day.  *
