 Q-Chem 5.4, Q-Chem, Inc., Pleasanton, CA (2021)
 Q-Chem 5.4.0 for Intel X86 EM64T Linux

User input:
--------------------------------------------------------------
$molecule
0 1
C                 -1.6505370000      0.7864660000      1.6295100000
C                 -2.9003030000      1.0617410000      0.7802280000
C                 -2.8634130000      0.9932610000     -0.5856880000
C                 -1.6594400000      0.6621960000     -1.2942880000
C                 -0.4097990000      0.3864210000     -0.4449840000
C                 -0.4466880000      0.4549060000      0.9209320000
O                 -1.5434420000      0.5787070000     -2.5079730000
O                 -1.7667550000      0.8690730000      2.8432340000
Br                 1.1234540000      0.1074930000      1.9491680000
Br                -4.4337210000      1.3400110000     -1.6138960000
N                  0.6600740000      0.0868740000     -1.1851680000
N                 -3.9702650000      1.3609320000      1.5204270000
H                  0.5400020000      0.0734650000     -2.1897340000
H                  1.5502130000     -0.1170800000     -0.7591750000
H                 -3.8501610000      1.3744700000      2.5249880000
H                 -4.8604870000      1.5645520000      1.0944490000
$end
$rem
MAX_SCF_CYCLES=200
BASIS  =  6-311++G(d,p)
GUI  =  2
JOB_TYPE  =  SP
METHOD  =  B3LYP
SOLVENT_METHOD = PCM
$end
$pcm
theory = CPCM
$end
$solvent
dielectric 37.219
opticaldielectric 1.43
$end

--------------------------------------------------------------

             Standard Nuclear Orientation (Angstroms)
    I     Atom           X                Y                Z
 ----------------------------------------------------------------
    1      C      -1.6505370000     0.7864660000     1.6295100000
    2      C      -2.9003030000     1.0617410000     0.7802280000
    3      C      -2.8634130000     0.9932610000    -0.5856880000
    4      C      -1.6594400000     0.6621960000    -1.2942880000
    5      C      -0.4097990000     0.3864210000    -0.4449840000
    6      C      -0.4466880000     0.4549060000     0.9209320000
    7      O      -1.5434420000     0.5787070000    -2.5079730000
    8      O      -1.7667550000     0.8690730000     2.8432340000
    9      Br      1.1234540000     0.1074930000     1.9491680000
   10      Br     -4.4337210000     1.3400110000    -1.6138960000
   11      N       0.6600740000     0.0868740000    -1.1851680000
   12      N      -3.9702650000     1.3609320000     1.5204270000
   13      H       0.5400020000     0.0734650000    -2.1897340000
   14      H       1.5502130000    -0.1170800000    -0.7591750000
   15      H      -3.8501610000     1.3744700000     2.5249880000
   16      H      -4.8604870000     1.5645520000     1.0944490000
 ----------------------------------------------------------------

    9   -5639.4485186300      3.64e-06  Convergence criterion met
 Total energy in the final basis set =    -5639.4485186300

                    Orbital Energies (a.u.)
 --------------------------------------------------------------

 Alpha MOs
 -- Occupied --
********-482.8447 -62.4975 -62.4975 -56.3180 -56.3180 -56.3141 -56.3141
-56.3140 -56.3140 -19.1355 -19.1355 -14.3643 -14.3643 -10.2936 -10.2935
-10.2715 -10.2715 -10.2354 -10.2354  -8.7062  -8.7062  -6.5378  -6.5378
 -6.5246  -6.5246  -6.5245  -6.5245  -2.6489  -2.6489  -2.6447  -2.6447
 -2.6446  -2.6446  -2.6343  -2.6343  -2.6343  -2.6343  -1.0768  -1.0741
 -0.9683  -0.9665  -0.8621  -0.8350  -0.7926  -0.7353  -0.7065  -0.6392
 -0.6250  -0.6012  -0.5424  -0.5357  -0.5249  -0.4873  -0.4727  -0.4626
 -0.4591  -0.4352  -0.4310  -0.4022  -0.4022  -0.3682  -0.3275  -0.3215
 -0.3116  -0.3112  -0.3016  -0.2903  -0.2617  -0.2313

          Ground-State Mulliken Net Atomic Charges

     Atom                 Charge (a.u.)
  ----------------------------------------
      1 C                    -0.532591
      2 C                    -0.154386
      3 C                     0.772938
      4 C                    -0.532374
      5 C                    -0.154048
      6 C                     0.772704
      7 O                    -0.325598
      8 O                    -0.325601
      9 Br                   -0.124059
     10 Br                   -0.124048
     11 N                    -0.309077
     12 N                    -0.309064
     13 H                     0.346804
     14 H                     0.325797
     15 H                     0.346807
     16 H                     0.325795
  ----------------------------------------
  Sum of atomic charges =     0.000000

                    Cartesian Multipole Moments
 -----------------------------------------------------------------
    Charge (ESU x 10^10)
                 0.0000
    Dipole Moment (Debye)
         X       0.0002      Y       0.0010      Z      -0.0000
       Tot       0.0010
    Quadrupole Moments (Debye-Ang)
        XX     -73.4108     XY      -6.2946     YY     -94.2080
        XZ     -15.5370     YZ       3.1993     ZZ    -111.2232

 Total job time:  41.29s(wall), 168.14s(cpu)
        *  Thank you very much for using Q-Chem.  Have a nice day.  *
