 Gaussian 16, Revision A.03,
 Gaussian 16:  ES64L-G16RevA.03 25-Dec-2016

 ---------------------------------------
 #P UB3LYP/genecp nosym opt freq SCF=YQC
 ---------------------------------------

 -------
 Reduced
 -------
 Symbolic Z-matrix:
 Charge = -2 Multiplicity = 1

 SCF Done:  E(UB3LYP) =  -1570.38489890     a.u. after    7 cycles
 SCF Done:  E(UB3LYP) =  -1570.38506316     A.U. after   13 cycles
 SCF Done:  E(UB3LYP) =  -1570.38502381     a.u. after   11 cycles
 SCF Done:  E(UB3LYP) =  -1570.38513208     A.U. after   13 cycles
 SCF Done:  E(UB3LYP) =  -1570.38507575     a.u. after    5 cycles
 SCF Done:  E(UB3LYP) =  -1570.38514528     A.U. after   14 cycles
 SCF Done:  E(UB3LYP) =  -1570.38513678     a.u. after    1 cycles
 SCF Done:  E(UB3LYP) =  -1570.38514759     A.U. after   13 cycles
 SCF Done:  E(UB3LYP) =  -1570.38513741     a.u. after    1 cycles
 SCF Done:  E(UB3LYP) =  -1570.38514810     A.U. after   13 cycles
 SCF Done:  E(UB3LYP) =  -1570.38511326     a.u. after    1 cycles
 SCF Done:  E(UB3LYP) =  -1570.38514924     A.U. after   13 cycles
 SCF Done:  E(UB3LYP) =  -1570.38510321     a.u. after    5 cycles
 SCF Done:  E(UB3LYP) =  -1570.38515010     A.U. after   13 cycles
 SCF Done:  E(UB3LYP) =  -1570.38510531     a.u. after    5 cycles
 SCF Done:  E(UB3LYP) =  -1570.38515078     A.U. after   13 cycles
 SCF Done:  E(UB3LYP) =  -1570.38510693     a.u. after    1 cycles
 SCF Done:  E(UB3LYP) =  -1570.38515110     A.U. after   13 cycles
 Optimization completed.
    -- Stationary point found.
 Normal termination of Gaussian 16 at Fri Jan 19 20:38:35 2024.

 ------------------------------------------------------------------
 #P Geom=AllCheck Guess=TCheck SCRF=Check GenChk UB3LYP/GenECP Freq
 ------------------------------------------------------------------

 Structure from the checkpoint file:  "031-an.chk"
 -------
 Reduced
 -------
 Charge = -2 Multiplicity = 1

                          Input orientation:
 ---------------------------------------------------------------------
 Center     Atomic      Atomic             Coordinates (Angstroms)
 Number     Number       Type             X           Y           Z
 ---------------------------------------------------------------------
      1         53           0       -3.342187   -1.083387   -0.147156
      2          6           0       -1.323223   -0.381745   -0.010916
      3          6           0       -0.975340    0.969499   -0.072863
      4         53           0       -2.414676    2.555560   -0.062878
      5          6           0        0.377215    1.469121   -0.042218
      6          8           0        0.691348    2.700466   -0.021271
      7          6           0        1.323230    0.381735    0.011180
      8          6           0        0.975345   -0.969491    0.073152
      9         53           0        2.414669   -2.555558    0.063539
     10          6           0       -0.377231   -1.469121    0.042413
     11          8           0       -0.691332   -2.700477    0.021641
     12         53           0        3.342179    1.083400    0.147377
 ---------------------------------------------------------------------

 SCF Done:  E(UB3LYP) =  -1570.38515110     a.u. after    1 cycles
 SCF Done:  E(UB3LYP) =  -1570.38515110     A.U. after    1 cycles

 Alpha  occ. eigenvalues --  -18.79268 -18.79268  -9.97073  -9.97072  -9.96244
 Alpha  occ. eigenvalues --   -9.96241  -9.96191  -9.96191  -6.59931  -6.59931
 Alpha  occ. eigenvalues --   -6.59930  -6.59930  -4.62279  -4.62278  -4.62278
 Alpha  occ. eigenvalues --   -4.62277  -4.61300  -4.61299  -4.61299  -4.61298
 Alpha  occ. eigenvalues --   -4.61194  -4.61193  -4.61193  -4.61192  -1.67104
 Alpha  occ. eigenvalues --   -1.67104  -1.67103  -1.67103  -1.66792  -1.66792
 Alpha  occ. eigenvalues --   -1.66791  -1.66790  -1.66710  -1.66709  -1.66705
 Alpha  occ. eigenvalues --   -1.66705  -1.65858  -1.65857  -1.65856  -1.65856
 Alpha  occ. eigenvalues --   -1.65856  -1.65856  -1.65853  -1.65853  -0.72196
 Alpha  occ. eigenvalues --   -0.71796  -0.58548  -0.52831  -0.47533  -0.46684
 Alpha  occ. eigenvalues --   -0.45481  -0.41175  -0.41117  -0.30868  -0.30440
 Alpha  occ. eigenvalues --   -0.23819  -0.18256  -0.15712  -0.14392  -0.12684
 Alpha  occ. eigenvalues --   -0.12317  -0.11324  -0.10301  -0.08155  -0.07553
 Alpha  occ. eigenvalues --   -0.04106  -0.03857  -0.03551  -0.03356  -0.02520
 Alpha  occ. eigenvalues --   -0.01369  -0.00537  -0.00079   0.01676   0.02688
 Alpha  occ. eigenvalues --    0.03560   0.10017
 Alpha virt. eigenvalues --    0.16588   0.19165   0.20721   0.22430   0.24022
 Alpha virt. eigenvalues --    0.24273   0.25680   0.25975   0.27623   0.28974
 Alpha virt. eigenvalues --    0.29057   0.29151   0.29871   0.31487   0.31691

  Beta  occ. eigenvalues --  -18.79268 -18.79268  -9.97073  -9.97072  -9.96244
  Beta  occ. eigenvalues --   -9.96241  -9.96191  -9.96191  -6.59931  -6.59931
  Beta  occ. eigenvalues --   -6.59930  -6.59930  -4.62279  -4.62278  -4.62278
  Beta  occ. eigenvalues --   -4.62277  -4.61300  -4.61299  -4.61299  -4.61298
  Beta  occ. eigenvalues --   -4.61194  -4.61193  -4.61193  -4.61192  -1.67104
  Beta  occ. eigenvalues --   -1.67104  -1.67103  -1.67103  -1.66792  -1.66792
  Beta  occ. eigenvalues --   -1.66791  -1.66790  -1.66710  -1.66709  -1.66705
  Beta  occ. eigenvalues --   -1.66705  -1.65858  -1.65857  -1.65856  -1.65856
  Beta  occ. eigenvalues --   -1.65856  -1.65856  -1.65853  -1.65853  -0.72196
  Beta  occ. eigenvalues --   -0.71796  -0.58548  -0.52831  -0.47533  -0.46684
  Beta  occ. eigenvalues --   -0.45481  -0.41175  -0.41117  -0.30868  -0.30440
  Beta  occ. eigenvalues --   -0.23819  -0.18256  -0.15712  -0.14392  -0.12684
  Beta  occ. eigenvalues --   -0.12317  -0.11324  -0.10301  -0.08155  -0.07553
  Beta  occ. eigenvalues --   -0.04106  -0.03857  -0.03551  -0.03356  -0.02520
  Beta  occ. eigenvalues --   -0.01369  -0.00537  -0.00079   0.01676   0.02688
  Beta  occ. eigenvalues --    0.03560   0.10017
  Beta virt. eigenvalues --    0.16588   0.19165   0.20721   0.22430   0.24022
  Beta virt. eigenvalues --    0.24273   0.25680   0.25975   0.27623   0.28974
  Beta virt. eigenvalues --    0.29057   0.29151   0.29871   0.31487   0.31691

 Mulliken charges and spin densities:
               1          2
     1  I   -0.245428   0.000000
     2  C    0.984171   0.000000
     3  C    0.985440   0.000000
     4  I   -0.245522  -0.000000
     5  C   -2.150329  -0.000000
     6  O   -0.328391   0.000000
     7  C    0.984184  -0.000000
     8  C    0.985209   0.000000
     9  I   -0.245508  -0.000000
    10  C   -2.150002  -0.000000
    11  O   -0.328399   0.000000
    12  I   -0.245424   0.000000
 Sum of Mulliken charges =  -2.00000   0.00000

 Dipole moment (field-independent basis, Debye):
    X=              0.0003    Y=             -0.0000    Z=             -0.0018  Tot=              0.0018
 Quadrupole moment (field-independent basis, Debye-Ang):
   XX=           -212.5658   YY=           -221.7761   ZZ=           -163.4516
   XY=             -2.5181   XZ=             -1.6565   YZ=              0.4615

  Exact polarizability: 349.635 -18.511 282.265   7.522  -0.182 147.581
 Approx polarizability: 548.230 -13.527 498.939  10.133  -1.744 262.698

                      1                      2                      3
                      A                      A                      A
 Frequencies --     24.8697                28.5748                57.6815
 Red. masses --    125.7754                15.7532                16.4570
 Frc consts  --      0.0458                 0.0076                 0.0323
 IR Inten    --      0.1696                 0.0000                10.9380

                      4                      5                      6
                      A                      A                      A
 Frequencies --     88.2731                95.5010                96.4299
 Red. masses --    124.2819                52.3061               104.3453
 Frc consts  --      0.5706                 0.2811                 0.5717
 IR Inten    --      0.0000                 4.6261                 4.2329

                      7                      8                      9
                      A                      A                      A
 Frequencies --    136.2252               137.0494               153.5309
 Red. masses --     39.5589               109.9375                13.3943
 Frc consts  --      0.4325                 1.2166                 0.1860
 IR Inten    --      0.0000                 0.0000                 0.8737

                     10                     11                     12
                      A                      A                      A
 Frequencies --    186.2997               241.5549               253.3633
 Red. masses --     17.5011                15.7669                18.6424
 Frc consts  --      0.3579                 0.5420                 0.7051
 IR Inten    --      0.0000                 0.0000                 2.4313

                     13                     14                     15
                      A                      A                      A
 Frequencies --    278.3168               283.8365               476.7606
 Red. masses --     12.2032                17.2557                12.0122
 Frc consts  --      0.5569                 0.8191                 1.6087
 IR Inten    --      0.0000                 1.2760                32.6893

                     16                     17                     18
                      A                      A                      A
 Frequencies --    479.0146               512.4750               666.6399
 Red. masses --     13.8122                13.3694                12.5999
 Frc consts  --      1.8673                 2.0687                 3.2991
 IR Inten    --      0.0000                22.7102                 0.0000

                     19                     20                     21
                      A                      A                      A
 Frequencies --    680.5481               682.8033               709.9173
 Red. masses --     12.2702                12.1746                12.2176
 Frc consts  --      3.3483                 3.3442                 3.6279
 IR Inten    --      6.8257                 0.0001                 0.0000

                     22                     23                     24
                      A                      A                      A
 Frequencies --    803.4499               885.5529              1045.8622
 Red. masses --     12.7958                12.4287                12.0050
 Frc consts  --      4.8667                 5.7425                 7.7368
 IR Inten    --    329.7229                 0.0000               357.5097

                     25                     26                     27
                      A                      A                      A
 Frequencies --   1072.1802              1296.0345              1304.5688
 Red. masses --     12.4370                12.0125                12.0421
 Frc consts  --      8.4237                11.8882                12.0750
 IR Inten    --     85.1147                 0.0000                50.0841

                     28                     29                     30
                      A                      A                      A
 Frequencies --   1403.1695              1465.1542              1545.5988
 Red. masses --     12.7931                12.8422                12.3251
 Frc consts  --     14.8404                16.2426                17.3475
 IR Inten    --      0.0000               647.5360                 0.0000

 - Thermochemistry -
 -------------------
 Temperature   298.150 Kelvin.  Pressure   1.00000 Atm.
 Atom     1 has atomic number 53 and mass 126.90040

 Molecular mass:   611.59143 amu.
 Principal axes and moments of inertia in atomic units:
                           1         2         3
     Eigenvalues --  7562.56947********************
           X            0.96822   0.24714  -0.03846
           Y           -0.24759   0.96883  -0.00752
           Z            0.03540   0.01680   0.99923
 This molecule is an asymmetric top.
 Rotational symmetry number  1.
 Warning -- assumption of classical behavior for rotation
           may cause significant error
 Rotational temperatures (Kelvin)      0.01145     0.00533     0.00364
 Rotational constants (GHZ):           0.23864     0.11097     0.07575
 Zero-point vibrational energy     102228.3 (Joules/Mol)
                                   24.43315 (Kcal/Mol)
 Warning -- explicit consideration of  17 degrees of freedom as
           vibrations may cause significant error
 Vibrational temperatures:     35.78    41.11    82.99   127.01   137.40
          (Kelvin)            138.74   196.00   197.18   220.90   268.04
                              347.54   364.53   400.44   408.38   685.95
                              689.20   737.34   959.15   979.16   982.40
                             1021.41  1155.99  1274.11  1504.76  1542.63
                             1864.70  1876.98  2018.85  2108.03  2223.77

 Zero-point correction=                           0.038937 (Hartree/Particle)
 Thermal correction to Energy=                    0.052427
 Thermal correction to Enthalpy=                  0.053372
 Thermal correction to Gibbs Free Energy=        -0.008382
 Sum of electronic and zero-point Energies=          -1570.346214
 Sum of electronic and thermal Energies=             -1570.332724
 Sum of electronic and thermal Enthalpies=           -1570.331780
 Sum of electronic and thermal Free Energies=        -1570.393533

                     E (Thermal)             CV                S
                      KCal/Mol        Cal/Mol-Kelvin    Cal/Mol-Kelvin
 Total                   32.899             41.911            129.972
 Electronic               0.000              0.000              0.000
 Translational            0.889              2.981             45.116
 Rotational               0.889              2.981             36.325
 Vibrational             31.121             35.950             48.531
 Vibration     1          0.593              1.985              6.202
 Vibration     2          0.593              1.984              5.926
 Vibration     3          0.596              1.974              4.535
 Vibration     4          0.601              1.957              3.698
 Vibration     5          0.603              1.952              3.544
 Vibration     6          0.603              1.952              3.525
 Vibration     7          0.614              1.917              2.856
 Vibration     8          0.614              1.916              2.845
 Vibration     9          0.619              1.899              2.628
 Vibration    10          0.632              1.859              2.264
 Vibration    11          0.658              1.777              1.791
 Vibration    12          0.665              1.757              1.707
 Vibration    13          0.679              1.714              1.544
 Vibration    14          0.682              1.704              1.510
 Vibration    15          0.833              1.302              0.719
 Vibration    16          0.835              1.297              0.713
 Vibration    17          0.868              1.222              0.628

 Optimization completed.
    -- Stationary point found.
 Normal termination of Gaussian 16 at Fri Jan 19 20:50:41 2024.
