 Q-Chem 5.4, Q-Chem, Inc., Pleasanton, CA (2021)
 Q-Chem 5.4.0 for Intel X86 EM64T Linux

User input:
--------------------------------------------------------------
$molecule
-2 1
I                 -3.3421870000     -1.0833870000     -0.1471560000
C                 -1.3232230000     -0.3817450000     -0.0109160000
C                 -0.9753400000      0.9694990000     -0.0728630000
I                 -2.4146760000      2.5555600000     -0.0628780000
C                  0.3772150000      1.4691210000     -0.0422180000
O                  0.6913480000      2.7004660000     -0.0212710000
C                  1.3232300000      0.3817350000      0.0111800000
C                  0.9753450000     -0.9694910000      0.0731520000
I                  2.4146690000     -2.5555580000      0.0635390000
C                 -0.3772310000     -1.4691210000      0.0424130000
O                 -0.6913320000     -2.7004770000      0.0216410000
I                  3.3421790000      1.0834000000      0.1473770000
$end

$rem
BASIS  =  6-311++G(d,p)
GUI  =  2
JOB_TYPE  =  SP
METHOD  =  B3LYP
SCF_CONVERGENCE  = 8
SOLVENT_METHOD = sm12
$end

$smx
solvent dimethylformamide
charges CM5
$end

--------------------------------------------------------------

             Standard Nuclear Orientation (Angstroms)
    I     Atom           X                Y                Z
 ----------------------------------------------------------------
    1      I      -3.3421870000    -1.0833870000    -0.1471560000
    2      C      -1.3232230000    -0.3817450000    -0.0109160000
    3      C      -0.9753400000     0.9694990000    -0.0728630000
    4      I      -2.4146760000     2.5555600000    -0.0628780000
    5      C       0.3772150000     1.4691210000    -0.0422180000
    6      O       0.6913480000     2.7004660000    -0.0212710000
    7      C       1.3232300000     0.3817350000     0.0111800000
    8      C       0.9753450000    -0.9694910000     0.0731520000
    9      I       2.4146690000    -2.5555580000     0.0635390000
   10      C      -0.3772310000    -1.4691210000     0.0424130000
   11      O      -0.6913320000    -2.7004770000     0.0216410000
   12      I       3.3421790000     1.0834000000     0.1473770000
 ----------------------------------------------------------------

   16  -28057.2489004906      3.40e-09  Convergence criterion met
 Total energy in the final basis set =   -28057.5315037095

                    Orbital Energies (a.u.)
 --------------------------------------------------------------

 Alpha MOs
 -- Occupied --
***********************************-176.3059-176.3058-176.3057-176.3057
********-165.7095-165.7093-165.7093-165.7077-165.7077-165.7075-165.7075
********-165.7075-165.7074-165.7074 -35.8021 -35.8021 -35.8020 -35.8020
-31.2948 -31.2948 -31.2946 -31.2946 -31.2898 -31.2898 -31.2896 -31.2896
-31.2893 -31.2893 -31.2892 -31.2892 -22.9455 -22.9455 -22.9453 -22.9453
-22.9443 -22.9443 -22.9442 -22.9442 -22.9440 -22.9440 -22.9439 -22.9439
-22.9405 -22.9405 -22.9405 -22.9405 -22.9404 -22.9404 -22.9404 -22.9404
-19.0562 -19.0562 -10.2326 -10.2326 -10.2214 -10.2213 -10.2208 -10.2208
 -6.3510  -6.3510  -6.3509  -6.3509  -4.7619  -4.7619  -4.7617  -4.7617
 -4.7496  -4.7496  -4.7494  -4.7494  -4.7485  -4.7485  -4.7484  -4.7484
 -2.0277  -2.0277  -2.0277  -2.0277  -2.0239  -2.0239  -2.0236  -2.0236
 -2.0230  -2.0230  -2.0229  -2.0229  -2.0125  -2.0125  -2.0124  -2.0124
 -2.0123  -2.0123  -2.0122  -2.0122  -0.9858  -0.9824  -0.8464  -0.7817
 -0.7199  -0.6905  -0.6727  -0.6363  -0.6308  -0.5622  -0.5532  -0.5022
 -0.4404  -0.4219  -0.4048  -0.3855  -0.3801  -0.3742  -0.3664  -0.3404
 -0.3341  -0.2938  -0.2918  -0.2870  -0.2829  -0.2750  -0.2677  -0.2583
 -0.2541  -0.2393  -0.2350  -0.2210  -0.1628

          Ground-State Mulliken Net Atomic Charges

     Atom                 Charge (a.u.)
  ----------------------------------------
      1 I                     0.126825
      2 C                     0.550988
      3 C                     0.522324
      4 I                     0.130618
      5 C                    -2.183814
      6 O                    -0.147186
      7 C                     0.551281
      8 C                     0.522109
      9 I                     0.130641
     10 C                    -2.183431
     11 O                    -0.147191
     12 I                     0.126835
  ----------------------------------------
  Sum of atomic charges =    -2.000000

                    Cartesian Multipole Moments
 -----------------------------------------------------------------
    Charge (ESU x 10^10)
                -9.6064
    Dipole Moment (Debye)
         X       0.0004      Y      -0.0001      Z      -0.0017
       Tot       0.0017
    Quadrupole Moments (Debye-Ang)
        XX    -209.1346     XY      -4.5803     YY    -225.7409
        XZ      -1.1713     YZ       0.6620     ZZ    -171.4228

 Total job time:  176.08s(wall), 1276.19s(cpu)
        *  Thank you very much for using Q-Chem.  Have a nice day.  *
