 Gaussian 16, Revision A.03,
 Gaussian 16:  ES64L-G16RevA.03 25-Dec-2016

 --------------------------------------
 #P UB3LYP/6-311++G(d,p) nosym opt freq
 --------------------------------------

 -------
 Radical
 -------
 Symbolic Z-matrix:
 Charge = -1 Multiplicity = 2

 SCF Done:  E(UB3LYP) =  -574.640532956     A.U. after   22 cycles
 SCF Done:  E(UB3LYP) =  -574.649704317     A.U. after   18 cycles
 SCF Done:  E(UB3LYP) =  -574.650387013     A.U. after   18 cycles
 SCF Done:  E(UB3LYP) =  -574.650813639     A.U. after   16 cycles
 SCF Done:  E(UB3LYP) =  -574.650834504     A.U. after   13 cycles
 SCF Done:  E(UB3LYP) =  -574.650835128     A.U. after   12 cycles
 Optimization completed.
    -- Stationary point found.
 Normal termination of Gaussian 16 at Tue Dec 26 20:24:08 2023.

 ----------------------------------------------------------------------
 #P Geom=AllCheck Guess=TCheck SCRF=Check GenChk UB3LYP/6-311++G(d,p) F
 req
 ----------------------------------------------------------------------

 Structure from the checkpoint file:  "237-rad.chk"
 -------
 Radical
 -------
 Charge = -1 Multiplicity = 2

                          Input orientation:
 ---------------------------------------------------------------------
 Center     Atomic      Atomic             Coordinates (Angstroms)
 Number     Number       Type             X           Y           Z
 ---------------------------------------------------------------------
      1          6           0        5.721585   -5.307483    1.208336
      2          6           0        6.674214   -5.203305    0.214688
      3          6           0        6.562121   -4.181357   -0.735873
      4          6           0        4.647940   -4.403656    1.274023
      5          6           0        4.523124   -3.352341    0.304988
      6          6           0        5.518023   -3.260162   -0.715641
      7          6           0        3.677155   -4.596818    2.376407
      8          6           0        2.593140   -3.663447    2.419976
      9          6           0        2.460209   -2.652002    1.499754
     10          6           0        3.370831   -2.417419    0.411885
     11          8           0        3.808378   -5.529355    3.215566
     12          8           0        3.161243   -1.458108   -0.385462
     13          1           0        5.763497   -6.080192    1.967045
     14          6           0        5.528385   -2.207569   -1.812271
     15          1           0        7.503190   -5.903897    0.166941
     16          1           0        7.310893   -4.095987   -1.520279
     17          1           0        1.870631   -3.790014    3.221563
     18          1           0        1.626929   -1.957106    1.556484
     19          1           0        4.686369   -1.528958   -1.721437
     20          1           0        5.495431   -2.691392   -2.796106
     21          1           0        6.461011   -1.631843   -1.769896
 ---------------------------------------------------------------------

 SCF Done:  E(UB3LYP) =  -574.650835128     A.U. after    2 cycles

 Alpha  occ. eigenvalues --  -18.93593 -18.93522 -10.08721 -10.08276 -10.06026
 Alpha  occ. eigenvalues --  -10.05057 -10.04952 -10.04687 -10.04319 -10.03974
 Alpha  occ. eigenvalues --  -10.03436 -10.02884 -10.02800  -0.86031  -0.85725
 Alpha  occ. eigenvalues --   -0.73126  -0.67175  -0.64512  -0.61089  -0.56435
 Alpha  occ. eigenvalues --   -0.53501  -0.48389  -0.47904  -0.41344  -0.37549
 Alpha  occ. eigenvalues --   -0.37094  -0.34050  -0.32599  -0.29989  -0.29461
 Alpha  occ. eigenvalues --   -0.28409  -0.27940  -0.27093  -0.26031  -0.25869
 Alpha  occ. eigenvalues --   -0.23849  -0.23609  -0.21964  -0.21735  -0.20956
 Alpha  occ. eigenvalues --   -0.14013  -0.12363  -0.11997  -0.10125  -0.09551
 Alpha  occ. eigenvalues --   -0.01612
 Alpha virt. eigenvalues --    0.08467   0.09291   0.09889   0.10581   0.10845
 Alpha virt. eigenvalues --    0.11794   0.12584   0.12722   0.13975   0.15671
 Alpha virt. eigenvalues --    0.15711   0.17083   0.17880   0.18574   0.18801

  Beta  occ. eigenvalues --  -18.92911 -18.92853 -10.08592 -10.08164 -10.06024
  Beta  occ. eigenvalues --  -10.05016 -10.04905 -10.04651 -10.04251 -10.03981
  Beta  occ. eigenvalues --  -10.03438 -10.02725 -10.02645  -0.84867  -0.84546
  Beta  occ. eigenvalues --   -0.72961  -0.66615  -0.64409  -0.60864  -0.56192
  Beta  occ. eigenvalues --   -0.52714  -0.48067  -0.47703  -0.41120  -0.37291
  Beta  occ. eigenvalues --   -0.36932  -0.33820  -0.32384  -0.29804  -0.29251
  Beta  occ. eigenvalues --   -0.28179  -0.27833  -0.25843  -0.25803  -0.25357
  Beta  occ. eigenvalues --   -0.23635  -0.21776  -0.21211  -0.20777  -0.20600
  Beta  occ. eigenvalues --   -0.11748  -0.11449  -0.10775  -0.09498  -0.08941
  Beta virt. eigenvalues --    0.05160   0.08466   0.09857   0.09888   0.10589
  Beta virt. eigenvalues --    0.11794   0.11920   0.12737   0.12775   0.13978
  Beta virt. eigenvalues --    0.15682   0.15735   0.17159   0.18412   0.18596

 Mulliken charges and spin densities:
               1          2
     1  C    0.455437   0.029906
     2  C   -0.423103   0.027605
     3  C    0.032484   0.026116
     4  C    0.179314   0.025789
     5  C   -0.103551   0.042070
     6  C    0.465887   0.010457
     7  C   -0.481754   0.074557
     8  C   -0.006103   0.111551
     9  C   -0.037354   0.108184
    10  C   -0.891994   0.071405
    11  O   -0.403383   0.243566
    12  O   -0.382829   0.247808
    13  H    0.160343  -0.001942
    14  C   -0.518942   0.012416
    15  H    0.119269  -0.002659
    16  H    0.112132  -0.002337
    17  H    0.139628  -0.010562
    18  H    0.144560  -0.011066
    19  H    0.204268  -0.003229
    20  H    0.118270   0.000200
    21  H    0.117421   0.000163
 Sum of Mulliken charges =  -1.00000   1.00000

 Dipole moment (field-independent basis, Debye):
    X=            -18.3860    Y=             17.4350    Z=             -5.9412  Tot=             26.0254
 Quadrupole moment (field-independent basis, Debye-Ang):
   XX=           -155.0031   YY=           -163.2276   ZZ=           -104.7242
   XY=             69.8658   XZ=            -23.5396   YZ=             37.1725

  Exact polarizability: 162.747 -34.842 152.178 -40.588 -41.689 161.212
 Approx polarizability: 251.783 -62.271 264.057 -53.444 -85.477 263.127

 ******    1 imaginary frequencies (negative Signs) ******

                      1                      2                      3
                      A                      A                      A
 Frequencies --   -168.8464                56.3644                92.5170
 Red. masses --      1.0280                 4.7843                 5.9654
 Frc consts  --      0.0173                 0.0090                 0.0301
 IR Inten    --      0.0104                 2.6474                 6.9941

                      4                      5                      6
                      A                      A                      A
 Frequencies --    185.2364               235.9043               292.3728
 Red. masses --      4.6817                 3.7629                 6.2764
 Frc consts  --      0.0946                 0.1234                 0.3161
 IR Inten    --      1.0675                 1.2082                 1.2173

                      7                      8                      9
                      A                      A                      A
 Frequencies --    326.6225               359.1676               383.5636
 Red. masses --      5.1812                 3.6459                 9.5387
 Frc consts  --      0.3257                 0.2771                 0.8268
 IR Inten    --      0.0255                 4.2454                12.0338

                     10                     11                     12
                      A                      A                      A
 Frequencies --    445.7674               458.6212               476.2682
 Red. masses --      4.7298                11.2549                 4.1133
 Frc consts  --      0.5537                 1.3948                 0.5497
 IR Inten    --      0.5614                 1.7429                 0.0435

                     13                     14                     15
                      A                      A                      A
 Frequencies --    488.8944               531.5939               608.5149
 Red. masses --      3.3930                 6.4272                 5.0718
 Frc consts  --      0.4778                 1.0701                 1.1065
 IR Inten    --      0.3336                 0.9791                 3.7872

                     16                     17                     18
                      A                      A                      A
 Frequencies --    626.8391               637.2420               671.8142
 Red. masses --      4.9760                 2.3652                 4.1775
 Frc consts  --      1.1520                 0.5659                 1.1109
 IR Inten    --      0.6571                 0.4004                 2.3490

                     19                     20                     21
                      A                      A                      A
 Frequencies --    765.2368               766.5320               794.8563
 Red. masses --      6.7197                 1.5774                 5.5277
 Frc consts  --      2.3184                 0.5461                 2.0577
 IR Inten    --     27.0453                51.8906                 7.0635

                     22                     23                     24
                      A                      A                      A
 Frequencies --    801.6396               831.7594               897.9414
 Red. masses --      3.1335                 2.0121                 1.3461
 Frc consts  --      1.1864                 0.8202                 0.6395
 IR Inten    --     18.6628                23.1371                 0.0001

                     25                     26                     27
                      A                      A                      A
 Frequencies --    906.6553               932.2317               978.7469
 Red. masses --      5.0156                 1.2850                 1.2931
 Frc consts  --      2.4292                 0.6579                 0.7298
 IR Inten    --      8.4848                 0.0004                 1.5528

                     28                     29                     30
                      A                      A                      A
 Frequencies --   1006.5888              1056.0414              1060.9686
 Red. masses --      1.5424                 3.0899                 1.4683
 Frc consts  --      0.9207                 2.0303                 0.9738
 IR Inten    --     26.4717                27.4804                 0.5899

                     31                     32                     33
                      A                      A                      A
 Frequencies --   1105.1645              1129.4024              1166.7442
 Red. masses --      1.7354                 2.0732                 2.1317
 Frc consts  --      1.2488                 1.5581                 1.7098
 IR Inten    --      5.6908                14.3290                19.4992

                     34                     35                     36
                      A                      A                      A
 Frequencies --   1172.1598              1226.1867              1250.5701
 Red. masses --      1.3660                 2.5515                 2.4796
 Frc consts  --      1.1058                 2.2602                 2.2848
 IR Inten    --     10.6816                15.2655                11.8942

                     37                     38                     39
                      A                      A                      A
 Frequencies --   1304.7816              1323.9500              1385.9694
 Red. masses --      2.1339                 6.2091                 1.2651
 Frc consts  --      2.1404                 6.4124                 1.4318
 IR Inten    --      1.2711                 3.7422                40.1736

                     40                     41                     42
                      A                      A                      A
 Frequencies --   1410.0273              1419.4624              1454.1770
 Red. masses --      2.5468                 3.6111                 2.5206
 Frc consts  --      2.9833                 4.2868                 3.1404
 IR Inten    --     11.4650                90.6357               147.6599

                     43                     44                     45
                      A                      A                      A
 Frequencies --   1478.9775              1493.3244              1517.4107
 Red. masses --      1.2329                 8.0642                 1.0474
 Frc consts  --      1.5889                10.5955                 1.4209
 IR Inten    --      6.9348                 5.7741                 4.8652

                     46                     47                     48
                      A                      A                      A
 Frequencies --   1544.0519              1562.5191              1614.3907
 Red. masses --      4.6474                 5.1152                 5.9425
 Frc consts  --      6.5281                 7.3581                 9.1250
 IR Inten    --    436.4138                83.8218                 7.5826

                     49                     50                     51
                      A                      A                      A
 Frequencies --   1629.2487              2994.7147              3032.4684
 Red. masses --      6.9113                 1.0427                 1.0991
 Frc consts  --     10.8090                 5.5094                 5.9549
 IR Inten    --      4.1954                94.5453                42.5729

                     52                     53                     54
                      A                      A                      A
 Frequencies --   3119.0882              3134.0186              3144.5374
 Red. masses --      1.0854                 1.0849                 1.0918
 Frc consts  --      6.2214                 6.2782                 6.3607
 IR Inten    --     29.7139                23.8375                59.5888

                     55                     56                     57
                      A                      A                      A
 Frequencies --   3155.6931              3156.1706              3183.9273
 Red. masses --      1.0942                 1.0940                 1.0919
 Frc consts  --      6.4201                 6.4211                 6.5216
 IR Inten    --     42.4524                17.5525                14.6602

 - Thermochemistry -
 -------------------
 Temperature   298.150 Kelvin.  Pressure   1.00000 Atm.
 Atom     1 has atomic number  6 and mass  12.00000

 Molecular mass:   172.05243 amu.
 Principal axes and moments of inertia in atomic units:
                           1         2         3
     Eigenvalues --  1593.785162030.583013613.18201
           X           -0.48702  -0.68392   0.54320
           Y           -0.34046   0.72141   0.60304
           Z            0.80430  -0.10875   0.58418
 This molecule is an asymmetric top.
 Rotational symmetry number  1.
 Warning -- assumption of classical behavior for rotation
           may cause significant error
 Rotational temperatures (Kelvin)      0.05434     0.04265     0.02397
 Rotational constants (GHZ):           1.13236     0.88878     0.49949
    1 imaginary frequencies ignored.
 Zero-point vibrational energy     411429.5 (Joules/Mol)
                                   98.33401 (Kcal/Mol)
 Warning -- explicit consideration of  14 degrees of freedom as
           vibrations may cause significant error
 Vibrational temperatures:     81.10   133.11   266.51   339.41   420.66
          (Kelvin)            469.94   516.76   551.86   641.36   659.85
                              685.24   703.41   764.84   875.52   901.88
                              916.85   966.59  1101.01  1102.87  1143.62
                             1153.38  1196.72  1291.94  1304.47  1341.27
                             1408.20  1448.26  1519.41  1526.50  1590.09
                             1624.96  1678.68  1686.48  1764.21  1799.29
                             1877.29  1904.87  1994.10  2028.71  2042.29
                             2092.24  2127.92  2148.56  2183.22  2221.55
                             2248.12  2322.75  2344.13  4308.73  4363.05
                             4487.67  4509.15  4524.29  4540.34  4541.03
                             4580.96

 Zero-point correction=                           0.156705 (Hartree/Particle)
 Thermal correction to Energy=                    0.166346
 Thermal correction to Enthalpy=                  0.167290
 Thermal correction to Gibbs Free Energy=         0.120653
 Sum of electronic and zero-point Energies=           -574.494130
 Sum of electronic and thermal Energies=              -574.484489
 Sum of electronic and thermal Enthalpies=            -574.483545
 Sum of electronic and thermal Free Energies=         -574.530182

                     E (Thermal)             CV                S
                      KCal/Mol        Cal/Mol-Kelvin    Cal/Mol-Kelvin
 Total                  104.384             38.865             98.157
 Electronic               0.000              0.000              1.377
 Translational            0.889              2.981             41.335
 Rotational               0.889              2.981             30.837
 Vibrational            102.606             32.904             24.607
 Vibration     1          0.596              1.975              4.581
 Vibration     2          0.602              1.955              3.606
 Vibration     3          0.631              1.860              2.275
 Vibration     4          0.655              1.786              1.834
 Vibration     5          0.688              1.688              1.460
 Vibration     6          0.710              1.622              1.277
 Vibration     7          0.734              1.556              1.126
 Vibration     8          0.753              1.505              1.025
 Vibration     9          0.805              1.370              0.809
 Vibration    10          0.817              1.342              0.770
 Vibration    11          0.833              1.303              0.720
 Vibration    12          0.845              1.275              0.686
 Vibration    13          0.887              1.180              0.584
 Vibration    14          0.967              1.014              0.435

                           ! Non-Optimized Parameters !
 Normal termination of Gaussian 16 at Tue Dec 26 20:47:14 2023.
