 Gaussian 16, Revision A.03,
 Gaussian 16:  ES64L-G16RevA.03 25-Dec-2016

 ----------------------------------------------------------------------
 #P UB3LYP/6-311++G(d,p) nosym opt freq SCRF=(PCM,Solvent=n,n-DiMethylF
 ormamide)
 ----------------------------------------------------------------------

 --------
 Oxidized
 --------
 Symbolic Z-matrix:
 Charge =  0 Multiplicity = 1

 SCF Done:  E(UB3LYP) =  -1300.80947965     A.U. after   15 cycles
 SCF Done:  E(UB3LYP) =  -1300.80953307     A.U. after   10 cycles
 SCF Done:  E(UB3LYP) =  -1300.80953933     A.U. after   10 cycles
 SCF Done:  E(UB3LYP) =  -1300.80954057     A.U. after   10 cycles
 Optimization completed.
    -- Stationary point found.
 Normal termination of Gaussian 16 at Sat Feb 10 10:05:40 2024.

 ----------------------------------------------------------------------
 #P Geom=AllCheck Guess=TCheck SCRF=Check GenChk UB3LYP/6-311++G(d,p) F
 req
 ----------------------------------------------------------------------

 Structure from the checkpoint file:  "010.chk"
 --------
 Oxidized
 --------
 Charge =  0 Multiplicity = 1

                          Input orientation:
 ---------------------------------------------------------------------
 Center     Atomic      Atomic             Coordinates (Angstroms)
 Number     Number       Type             X           Y           Z
 ---------------------------------------------------------------------
      1         17           0       -3.082682    0.694195    0.104509
      2          6           0       -1.407933    0.256360    0.048174
      3          6           0       -1.009661   -1.021782    0.036545
      4          6           0        0.421290   -1.387933   -0.013275
      5          8           0        0.773039   -2.551636   -0.025756
      6          6           0        1.407931   -0.256362   -0.048171
      7          6           0        1.009662    1.021784   -0.036541
      8          6           0       -0.421292    1.387931    0.013302
      9          8           0       -0.773039    2.551634    0.025749
     10         17           0        3.082683   -0.694187   -0.104527
     11          1           0       -1.708573   -1.848079    0.060814
     12          1           0        1.708577    1.848077   -0.060824
 ---------------------------------------------------------------------

 SCF Done:  E(UB3LYP) =  -1300.80954057     A.U. after    2 cycles

 Alpha  occ. eigenvalues -- -101.58497-101.58497 -19.16156 -19.16155 -10.31255
 Alpha  occ. eigenvalues --  -10.31254 -10.28478 -10.28477 -10.23036 -10.23035
 Alpha  occ. eigenvalues --   -9.49940  -9.49940  -7.26418  -7.26418  -7.25447
 Alpha  occ. eigenvalues --   -7.25447  -7.25343  -7.25343  -1.09531  -1.09328
 Alpha  occ. eigenvalues --   -0.92614  -0.91126  -0.84666  -0.78626  -0.72103
 Alpha  occ. eigenvalues --   -0.65838  -0.61774  -0.55889  -0.52747  -0.50540
 Alpha  occ. eigenvalues --   -0.48303  -0.47921  -0.47090  -0.45900  -0.44395
 Alpha  occ. eigenvalues --   -0.43761  -0.39680  -0.38041  -0.34574  -0.34524
 Alpha  occ. eigenvalues --   -0.31354  -0.31253  -0.30529  -0.29326
 Alpha virt. eigenvalues --   -0.15423  -0.05101  -0.01985  -0.00810  -0.00250
 Alpha virt. eigenvalues --   -0.00141   0.01179   0.02750   0.04515   0.04885
 Alpha virt. eigenvalues --    0.05175   0.06197   0.06214   0.07597   0.08154

  Beta  occ. eigenvalues -- -101.58497-101.58497 -19.16156 -19.16155 -10.31255
  Beta  occ. eigenvalues --  -10.31254 -10.28478 -10.28477 -10.23036 -10.23035
  Beta  occ. eigenvalues --   -9.49940  -9.49940  -7.26418  -7.26418  -7.25447
  Beta  occ. eigenvalues --   -7.25447  -7.25343  -7.25343  -1.09531  -1.09328
  Beta  occ. eigenvalues --   -0.92614  -0.91126  -0.84666  -0.78626  -0.72103
  Beta  occ. eigenvalues --   -0.65838  -0.61774  -0.55889  -0.52747  -0.50540
  Beta  occ. eigenvalues --   -0.48303  -0.47921  -0.47090  -0.45900  -0.44395
  Beta  occ. eigenvalues --   -0.43761  -0.39680  -0.38041  -0.34574  -0.34524
  Beta  occ. eigenvalues --   -0.31354  -0.31253  -0.30529  -0.29326
  Beta virt. eigenvalues --   -0.15423  -0.05101  -0.01985  -0.00810  -0.00250
  Beta virt. eigenvalues --   -0.00141   0.01179   0.02750   0.04515   0.04885
  Beta virt. eigenvalues --    0.05175   0.06197   0.06214   0.07597   0.08154

 Mulliken charges and spin densities:
               1          2
     1  Cl   0.344563  -0.000000
     2  C    0.920657   0.000000
     3  C   -0.210839   0.000000
     4  C   -1.086584  -0.000000
     5  O   -0.227160   0.000000
     6  C    0.920649   0.000000
     7  C   -0.210838  -0.000000
     8  C   -1.086601  -0.000000
     9  O   -0.227158   0.000000
    10  Cl   0.344563  -0.000000
    11  H    0.259374   0.000000
    12  H    0.259374  -0.000000
 Sum of Mulliken charges =  -0.00000   0.00000

 Dipole moment (field-independent basis, Debye):
    X=             -0.0000    Y=              0.0000    Z=              0.0001  Tot=              0.0001
 Quadrupole moment (field-independent basis, Debye-Ang):
   XX=            -69.4817   YY=            -85.4234   ZZ=            -68.9911
   XY=             10.0510   XZ=              0.0187   YZ=             -0.3491

  Exact polarizability: 170.087 -50.925 185.137  -3.528   1.658  65.693
 Approx polarizability: 184.958 -76.698 259.031  -3.617   2.476  77.304

                      1                      2                      3
                      A                      A                      A
 Frequencies --     56.0403               133.6861               157.4641
 Red. masses --     20.2402                 9.5409                 5.9867
 Frc consts  --      0.0375                 0.1005                 0.0875
 IR Inten    --      3.8698                15.5335                 0.0000

                      4                      5                      6
                      A                      A                      A
 Frequencies --    211.3347               249.8982               303.5986
 Red. masses --     18.2787                16.9234                21.8960
 Frc consts  --      0.4810                 0.6227                 1.1891
 IR Inten    --      0.4364                 0.0000                 0.0000

                      7                      8                      9
                      A                      A                      A
 Frequencies --    370.2738               378.6802               392.1097
 Red. masses --     17.4835                 9.6245                 3.4069
 Frc consts  --      1.4123                 0.8132                 0.3086
 IR Inten    --     12.0954                 0.0000                 0.7275

                     10                     11                     12
                      A                      A                      A
 Frequencies --    469.3800               586.0501               600.8558
 Red. masses --     12.4021                10.8158                 6.3282
 Frc consts  --      1.6099                 2.1887                 1.3461
 IR Inten    --      0.0000               139.2379                 0.0000

                     13                     14                     15
                      A                      A                      A
 Frequencies --    654.5126               708.8881               780.1777
 Red. masses --      7.0178                 6.6355                 3.4455
 Frc consts  --      1.7713                 1.9646                 1.2356
 IR Inten    --      0.0000                 3.8792                 0.0000

                     16                     17                     18
                      A                      A                      A
 Frequencies --    805.8388               881.6928               918.3809
 Red. masses --      4.3768                 1.6023                 1.4999
 Frc consts  --      1.6746                 0.7339                 0.7454
 IR Inten    --     43.5717                 0.0000                78.7505

                     19                     20                     21
                      A                      A                      A
 Frequencies --    941.2208              1011.2409              1202.4165
 Red. masses --     12.1334                 4.4827                 1.8608
 Frc consts  --      6.3331                 2.7009                 1.5851
 IR Inten    --      0.0000               590.7002                 0.0000

                     22                     23                     24
                      A                      A                      A
 Frequencies --   1209.3255              1315.2574              1330.0673
 Red. masses --      5.2426                 2.5263                 1.7317
 Frc consts  --      4.5174                 2.5749                 1.8050
 IR Inten    --    165.0115                 0.0000                61.9361

                     25                     26                     27
                      A                      A                      A
 Frequencies --   1625.2971              1665.9846              1713.1167
 Red. masses --      8.8837                 8.6551                12.6001
 Frc consts  --     13.8264                14.1535                21.7871
 IR Inten    --    407.5315                 0.0000              1144.1414

                     28                     29                     30
                      A                      A                      A
 Frequencies --   1718.5188              3209.0381              3210.1362
 Red. masses --     12.3223                 1.0938                 1.0942
 Frc consts  --     21.4412                 6.6364                 6.6432
 IR Inten    --      0.0000                 3.9046                 0.0001

 - Thermochemistry -
 -------------------
 Temperature   298.150 Kelvin.  Pressure   1.00000 Atm.
 Atom     1 has atomic number 17 and mass  34.96885

 Molecular mass:   175.94318 amu.
 Principal axes and moments of inertia in atomic units:
                           1         2         3
     Eigenvalues --   864.465223022.759283887.22386
           X            0.93124   0.36282   0.03411
           Y           -0.36305   0.93177   0.00056
           Z           -0.03158  -0.01291   0.99942
 This molecule is an asymmetric top.
 Rotational symmetry number  1.
 Warning -- assumption of classical behavior for rotation
           may cause significant error
 Rotational temperatures (Kelvin)      0.10019     0.02865     0.02228
 Rotational constants (GHZ):           2.08770     0.59705     0.46428
 Zero-point vibrational energy     172325.0 (Joules/Mol)
                                   41.18665 (Kcal/Mol)
 Warning -- explicit consideration of  12 degrees of freedom as
           vibrations may cause significant error
 Vibrational temperatures:     80.63   192.34   226.56   304.06   359.55
          (Kelvin)            436.81   532.74   544.84   564.16   675.33
                              843.20   864.50   941.70  1019.93  1122.50
                             1159.42  1268.56  1321.35  1354.21  1454.95
                             1730.01  1739.95  1892.36  1913.67  2338.44
                             2396.98  2464.79  2472.57  4617.09  4618.67

 Zero-point correction=                           0.065635 (Hartree/Particle)
 Thermal correction to Energy=                    0.074255
 Thermal correction to Enthalpy=                  0.075199
 Thermal correction to Gibbs Free Energy=         0.030618
 Sum of electronic and zero-point Energies=          -1300.743905
 Sum of electronic and thermal Energies=             -1300.735286
 Sum of electronic and thermal Enthalpies=           -1300.734341
 Sum of electronic and thermal Free Energies=        -1300.778922

                     E (Thermal)             CV                S
                      KCal/Mol        Cal/Mol-Kelvin    Cal/Mol-Kelvin
 Total                   46.596             30.653             93.828
 Electronic               0.000              0.000              0.000
 Translational            0.889              2.981             41.402
 Rotational               0.889              2.981             30.697
 Vibrational             44.818             24.692             21.729
 Vibration     1          0.596              1.975              4.592
 Vibration     2          0.613              1.920              2.892
 Vibration     3          0.621              1.894              2.580
 Vibration     4          0.643              1.824              2.032
 Vibration     5          0.663              1.763              1.731
 Vibration     6          0.695              1.667              1.397
 Vibration     7          0.742              1.533              1.079
 Vibration     8          0.749              1.516              1.044
 Vibration     9          0.760              1.487              0.992
 Vibration    10          0.826              1.318              0.739
 Vibration    11          0.943              1.062              0.474
 Vibration    12          0.959              1.030              0.448

 Optimization completed.
    -- Stationary point found.
 Normal termination of Gaussian 16 at Sat Feb 10 10:09:02 2024.
