 Gaussian 16, Revision A.03,
 Gaussian 16:  ES64L-G16RevA.03 25-Dec-2016

 ----------------------------------------------------------------------
 #P UB3LYP/6-311++G(d,p) nosym opt freq SCRF=(PCM,Solvent=n,n-DiMethylF
 ormamide)
 ----------------------------------------------------------------------

 -------
 Radical
 -------
 Symbolic Z-matrix:
 Charge = -1 Multiplicity = 2

 SCF Done:  E(UB3LYP) =  -669.425622999     A.U. after   19 cycles
 SCF Done:  E(UB3LYP) =  -669.426716288     A.U. after   15 cycles
 SCF Done:  E(UB3LYP) =  -669.427007209     A.U. after   15 cycles
 SCF Done:  E(UB3LYP) =  -669.426958855     A.U. after   15 cycles
 SCF Done:  E(UB3LYP) =  -669.427117646     A.U. after   14 cycles
 SCF Done:  E(UB3LYP) =  -669.427148344     A.U. after   13 cycles
 SCF Done:  E(UB3LYP) =  -669.427169505     A.U. after   13 cycles
 SCF Done:  E(UB3LYP) =  -669.427171048     A.U. after   11 cycles
 SCF Done:  E(UB3LYP) =  -669.427171523     A.U. after   10 cycles
 SCF Done:  E(UB3LYP) =  -669.427171625     A.U. after    9 cycles
 Optimization completed.
    -- Stationary point found.
 Normal termination of Gaussian 16 at Sun Feb 11 15:50:54 2024.

 ----------------------------------------------------------------------
 #P Geom=AllCheck Guess=TCheck SCRF=Check GenChk UB3LYP/6-311++G(d,p) F
 req
 ----------------------------------------------------------------------

 Structure from the checkpoint file:  "324-rad.chk"
 -------
 Radical
 -------
 Charge = -1 Multiplicity = 2

                          Input orientation:
 ---------------------------------------------------------------------
 Center     Atomic      Atomic             Coordinates (Angstroms)
 Number     Number       Type             X           Y           Z
 ---------------------------------------------------------------------
      1          6           0       -1.779395    2.777619   -0.674536
      2          6           0       -2.879678    1.966223   -0.468362
      3          6           0       -2.695661    0.601462   -0.185646
      4          6           0       -0.461480    2.274414   -0.599496
      5          6           0       -0.273484    0.891951   -0.291047
      6          6           0       -1.413653    0.081709   -0.103417
      7          6           0        0.662589    3.177100   -0.850907
      8          6           0        2.026914    2.610761   -0.753945
      9          6           0        2.151943    1.219128   -0.418977
     10          6           0        1.084215    0.374186   -0.188581
     11          8           0        0.476409    4.396300   -1.139740
     12          8           0        3.049919    3.335362   -0.947016
     13          1           0       -1.903876    3.828926   -0.904195
     14          1           0       -3.881192    2.378143   -0.531185
     15          1           0       -3.551672   -0.047038   -0.036582
     16          1           0       -1.307115   -0.978321    0.095577
     17          1           0        3.166555    0.846999   -0.339891
     18          7           0        1.261977   -0.969549    0.100981
     19          6           0        2.573518   -1.534745    0.399383
     20          6           0        2.454330   -3.016800    0.737879
     21          1           0        0.511516   -1.399324    0.621318
     22          1           0        3.054266   -0.997205    1.230119
     23          1           0        3.218588   -1.406985   -0.475230
     24          1           0        1.826229   -3.171810    1.620584
     25          1           0        3.440624   -3.433140    0.953857
     26          1           0        2.021125   -3.577087   -0.094797
 ---------------------------------------------------------------------

 SCF Done:  E(UB3LYP) =  -669.427171625     A.U. after    1 cycles

 Alpha  occ. eigenvalues --  -19.07031 -19.06234 -14.32621 -10.21424 -10.20952
 Alpha  occ. eigenvalues --  -10.20805 -10.20235 -10.18207 -10.17566 -10.17166
 Alpha  occ. eigenvalues --  -10.17102 -10.17033 -10.16751 -10.16404 -10.14652
 Alpha  occ. eigenvalues --   -0.99881  -0.96895  -0.94038  -0.85776  -0.79847
 Alpha  occ. eigenvalues --   -0.76117  -0.74088  -0.72578  -0.67226  -0.63408
 Alpha  occ. eigenvalues --   -0.61014  -0.59643  -0.56665  -0.52741  -0.49813
 Alpha  occ. eigenvalues --   -0.49143  -0.47429  -0.45473  -0.44583  -0.43588
 Alpha  occ. eigenvalues --   -0.42374  -0.41527  -0.41065  -0.39485  -0.38813
 Alpha  occ. eigenvalues --   -0.38305  -0.37750  -0.36559  -0.36418  -0.34662
 Alpha  occ. eigenvalues --   -0.34081  -0.33667  -0.31846  -0.25908  -0.25411
 Alpha  occ. eigenvalues --   -0.24788  -0.22012  -0.21219  -0.14465
 Alpha virt. eigenvalues --   -0.03361  -0.00597  -0.00424   0.00464   0.01104
 Alpha virt. eigenvalues --    0.02237   0.02402   0.02558   0.03810   0.04645
 Alpha virt. eigenvalues --    0.04720   0.05098   0.05360   0.05730   0.06088

  Beta  occ. eigenvalues --  -19.06342 -19.05790 -14.32473 -10.21237 -10.20811
  Beta  occ. eigenvalues --  -10.20563 -10.20242 -10.18087 -10.17595 -10.17081
  Beta  occ. eigenvalues --  -10.17067 -10.17017 -10.16705 -10.16404 -10.14742
  Beta  occ. eigenvalues --   -0.98841  -0.95872  -0.93738  -0.85564  -0.79558
  Beta  occ. eigenvalues --   -0.75850  -0.73987  -0.72442  -0.66451  -0.63226
  Beta  occ. eigenvalues --   -0.60915  -0.59333  -0.56379  -0.52562  -0.49633
  Beta  occ. eigenvalues --   -0.48949  -0.47215  -0.45329  -0.44423  -0.43411
  Beta  occ. eigenvalues --   -0.42259  -0.40806  -0.40187  -0.39156  -0.38595
  Beta  occ. eigenvalues --   -0.37953  -0.37270  -0.36359  -0.35462  -0.34517
  Beta  occ. eigenvalues --   -0.33608  -0.32571  -0.30065  -0.24905  -0.24415
  Beta  occ. eigenvalues --   -0.24182  -0.21496  -0.20359
  Beta virt. eigenvalues --   -0.07933  -0.02710  -0.00569   0.00464   0.00901
  Beta virt. eigenvalues --    0.01142   0.02244   0.02418   0.02591   0.03842
  Beta virt. eigenvalues --    0.04675   0.05116   0.05251   0.05777   0.06049

 Mulliken charges and spin densities:
               1          2
     1  C    0.104161   0.072471
     2  C   -0.429430   0.001834
     3  C   -0.487608   0.075386
     4  C    0.518771   0.014118
     5  C    0.362915   0.068161
     6  C   -0.217908  -0.008553
     7  C   -0.653086   0.143186
     8  C   -0.024298   0.141177
     9  C    0.022933  -0.087781
    10  C   -0.285439   0.097483
    11  O   -0.510590   0.258923
    12  O   -0.555734   0.160519
    13  H    0.166851  -0.004658
    14  H    0.176645  -0.001002
    15  H    0.183029  -0.005472
    16  H    0.119209   0.002577
    17  H    0.197383   0.002447
    18  N    0.014738   0.062350
    19  C   -0.065497  -0.006540
    20  C   -0.686838   0.003958
    21  H    0.264361  -0.000977
    22  H    0.164796   0.008399
    23  H    0.158504   0.002271
    24  H    0.146256  -0.000125
    25  H    0.158128  -0.000409
    26  H    0.157747   0.000258
 Sum of Mulliken charges =  -1.00000   1.00000

 Dipole moment (field-independent basis, Debye):
    X=             -8.1525    Y=            -21.6262    Z=              6.5592  Tot=             24.0246
 Quadrupole moment (field-independent basis, Debye-Ang):
   XX=           -112.3903   YY=           -168.3806   ZZ=           -100.1737
   XY=            -36.9814   XZ=             10.4603   YZ=             18.7217

  Exact polarizability: 339.238  19.206 311.420  -7.633 -43.019 142.253
 Approx polarizability: 367.605  35.468 344.238 -12.652 -45.908 159.320

                      1                      2                      3
                      A                      A                      A
 Frequencies --     53.3291                84.6306               100.2160
 Red. masses --      4.3569                 6.0378                 1.7315
 Frc consts  --      0.0073                 0.0255                 0.0102
 IR Inten    --      0.3406                 0.3591                 2.2258

                      4                      5                      6
                      A                      A                      A
 Frequencies --    120.7347               127.3396               185.2055
 Red. masses --      3.6604                 3.7248                 4.3115
 Frc consts  --      0.0314                 0.0356                 0.0871
 IR Inten    --      7.2866                 3.4950                 0.6312

                      7                      8                      9
                      A                      A                      A
 Frequencies --    220.9316               258.7448               264.8168
 Red. masses --      4.1905                 1.5689                 2.5871
 Frc consts  --      0.1205                 0.0619                 0.1069
 IR Inten    --      1.1846                 6.3011                 9.8200

                     10                     11                     12
                      A                      A                      A
 Frequencies --    309.5136               347.7015               369.0683
 Red. masses --      3.5131                 4.3736                14.2601
 Frc consts  --      0.1983                 0.3115                 1.1444
 IR Inten    --     28.9616                58.9836                 2.7025

                     13                     14                     15
                      A                      A                      A
 Frequencies --    402.8213               423.4884               444.7286
 Red. masses --      4.0991                 3.2333                 2.2451
 Frc consts  --      0.3919                 0.3417                 0.2616
 IR Inten    --      2.8487               121.4422               133.9694

                     16                     17                     18
                      A                      A                      A
 Frequencies --    449.8839               476.8121               527.2076
 Red. masses --      3.6467                 7.5532                 3.7615
 Frc consts  --      0.4349                 1.0118                 0.6160
 IR Inten    --     58.7587                 1.4792                23.9610

                     19                     20                     21
                      A                      A                      A
 Frequencies --    601.6829               631.1932               639.4269
 Red. masses --      5.8180                 4.0108                 4.5103
 Frc consts  --      1.2410                 0.9415                 1.0865
 IR Inten    --     16.5057                 5.8184                 8.3211

                     22                     23                     24
                      A                      A                      A
 Frequencies --    695.1054               716.8068               722.7486
 Red. masses --      6.1069                 3.1543                 6.4028
 Frc consts  --      1.7385                 0.9549                 1.9706
 IR Inten    --     16.0937                38.1075                27.4830

                     25                     26                     27
                      A                      A                      A
 Frequencies --    758.1852               773.6530               818.5498
 Red. masses --      2.5914                 2.4146                 1.2507
 Frc consts  --      0.8777                 0.8515                 0.4937
 IR Inten    --     43.4464                28.6088                37.7634

                     28                     29                     30
                      A                      A                      A
 Frequencies --    839.3028               856.6037               865.5126
 Red. masses --      1.3139                 3.8263                 1.4247
 Frc consts  --      0.5453                 1.6542                 0.6288
 IR Inten    --     30.2577                14.2140                 0.4138

                     31                     32                     33
                      A                      A                      A
 Frequencies --    925.1278               959.7943               992.4454
 Red. masses --      1.9254                 1.3600                 1.4217
 Frc consts  --      0.9709                 0.7381                 0.8250
 IR Inten    --      1.2915                 1.6803                 3.3358

                     34                     35                     36
                      A                      A                      A
 Frequencies --    993.9596              1049.0411              1057.9436
 Red. masses --      4.2734                 3.0858                 2.2565
 Frc consts  --      2.4875                 2.0008                 1.4880
 IR Inten    --     22.6893                 5.5050                35.2209

                     37                     38                     39
                      A                      A                      A
 Frequencies --   1100.6479              1137.8442              1150.8287
 Red. masses --      2.4696                 1.6467                 1.5491
 Frc consts  --      1.7627                 1.2561                 1.2088
 IR Inten    --     38.7801                 8.0270                24.0182

                     40                     41                     42
                      A                      A                      A
 Frequencies --   1168.2753              1189.6018              1239.7885
 Red. masses --      1.7788                 1.7097                 2.3171
 Frc consts  --      1.4304                 1.4255                 2.0984
 IR Inten    --     44.2485                24.9688                84.6049

                     43                     44                     45
                      A                      A                      A
 Frequencies --   1256.9964              1267.9987              1285.0659
 Red. masses --      2.7155                 2.8350                 2.0450
 Frc consts  --      2.5280                 2.6856                 1.9897
 IR Inten    --     12.4346               189.6533               136.9756

                     46                     47                     48
                      A                      A                      A
 Frequencies --   1298.0165              1345.1042              1359.8566
 Red. masses --      1.1662                 6.2893                 1.6820
 Frc consts  --      1.1577                 6.7045                 1.8326
 IR Inten    --      1.9758                82.0778               110.7474

                     49                     50                     51
                      A                      A                      A
 Frequencies --   1404.5008              1417.2161              1444.2664
 Red. masses --      1.4442                 1.6873                 2.5760
 Frc consts  --      1.6785                 1.9967                 3.1659
 IR Inten    --     41.5651                10.1334               226.1600

                     52                     53                     54
                      A                      A                      A
 Frequencies --   1465.3493              1482.9641              1487.7871
 Red. masses --      3.5564                 1.0700                 1.0671
 Frc consts  --      4.4993                 1.3865                 1.3916
 IR Inten    --    167.2400                56.9155                95.4702

                     55                     56                     57
                      A                      A                      A
 Frequencies --   1502.3577              1508.9971              1517.1380
 Red. masses --      3.1301                 2.7751                 1.2064
 Frc consts  --      4.1625                 3.7231                 1.6360
 IR Inten    --    459.8702               977.2851                 6.5834

                     58                     59                     60
                      A                      A                      A
 Frequencies --   1543.6094              1568.0857              1601.3908
 Red. masses --      2.2119                 4.4867                 5.4875
 Frc consts  --      3.1052                 6.5000                 8.2912
 IR Inten    --    350.3371               380.3838               205.6427

                     61                     62                     63
                      A                      A                      A
 Frequencies --   1622.1164              2966.3385              3025.7397
 Red. masses --      5.2438                 1.0721                 1.0376
 Frc consts  --      8.1294                 5.5582                 5.5967
 IR Inten    --     12.2311                99.9447                38.8186

                     64                     65                     66
                      A                      A                      A
 Frequencies --   3040.2428              3087.7515              3102.4594
 Red. masses --      1.0879                 1.1017                 1.1014
 Frc consts  --      5.9247                 6.1886                 6.2460
 IR Inten    --     29.7898                63.7448                43.6750

                     67                     68                     69
                      A                      A                      A
 Frequencies --   3159.1120              3168.7608              3179.3745
 Red. masses --      1.0852                 1.0886                 1.0883
 Frc consts  --      6.3812                 6.4399                 6.4815
 IR Inten    --      3.2837                25.7163                36.2527

                     70                     71                     72
                      A                      A                      A
 Frequencies --   3182.6046              3189.9490              3602.6282
 Red. masses --      1.0933                 1.0947                 1.0754
 Frc consts  --      6.5245                 6.5631                 8.2237
 IR Inten    --     38.9333                30.8632                36.1239

 - Thermochemistry -
 -------------------
 Temperature   298.150 Kelvin.  Pressure   1.00000 Atm.
 Atom     1 has atomic number  6 and mass  12.00000

 Molecular mass:   201.07898 amu.
 Principal axes and moments of inertia in atomic units:
                           1         2         3
     Eigenvalues --  2300.736613599.463235874.05465
           X           -0.51738   0.85567   0.01224
           Y            0.83080   0.49881   0.24691
           Z           -0.20517  -0.13792   0.96896
 This molecule is an asymmetric top.
 Rotational symmetry number  1.
 Warning -- assumption of classical behavior for rotation
           may cause significant error
 Rotational temperatures (Kelvin)      0.03765     0.02406     0.01475
 Rotational constants (GHZ):           0.78442     0.50139     0.30724
 Zero-point vibrational energy     533145.8 (Joules/Mol)
                                  127.42491 (Kcal/Mol)
 Warning -- explicit consideration of  19 degrees of freedom as
           vibrations may cause significant error
 Vibrational temperatures:     76.73   121.76   144.19   173.71   183.21
          (Kelvin)            266.47   317.87   372.28   381.01   445.32
                              500.26   531.01   579.57   609.31   639.87
                              647.28   686.03   758.53   865.69   908.15
                              919.99  1000.10  1031.33  1039.87  1090.86
                             1113.11  1177.71  1207.57  1232.46  1245.28
                             1331.05  1380.93  1427.91  1430.09  1509.34
                             1522.14  1583.59  1637.10  1655.79  1680.89
                             1711.57  1783.78  1808.54  1824.37  1848.92
                             1867.56  1935.30  1956.53  2020.76  2039.06
                             2077.98  2108.31  2133.65  2140.59  2161.56
                             2171.11  2182.82  2220.91  2256.13  2304.04
                             2333.86  4267.90  4353.36  4374.23  4442.59
                             4463.75  4545.26  4559.14  4574.41  4579.06
                             4589.63  5183.38

 Zero-point correction=                           0.203065 (Hartree/Particle)
 Thermal correction to Energy=                    0.216029
 Thermal correction to Enthalpy=                  0.216974
 Thermal correction to Gibbs Free Energy=         0.162902
 Sum of electronic and zero-point Energies=           -669.224107
 Sum of electronic and thermal Energies=              -669.211142
 Sum of electronic and thermal Enthalpies=            -669.210198
 Sum of electronic and thermal Free Energies=         -669.264269

                     E (Thermal)             CV                S
                      KCal/Mol        Cal/Mol-Kelvin    Cal/Mol-Kelvin
 Total                  135.560             50.400            113.803
 Electronic               0.000              0.000              1.377
 Translational            0.889              2.981             41.800
 Rotational               0.889              2.981             32.253
 Vibrational            133.783             44.439             38.372
 Vibration     1          0.596              1.976              4.690
 Vibration     2          0.601              1.960              3.781
 Vibration     3          0.604              1.949              3.450
 Vibration     4          0.609              1.932              3.089
 Vibration     5          0.611              1.926              2.986
 Vibration     6          0.631              1.860              2.275
 Vibration     7          0.648              1.809              1.951
 Vibration     8          0.668              1.748              1.670
 Vibration     9          0.671              1.737              1.630
 Vibration    10          0.699              1.656              1.365
 Vibration    11          0.725              1.580              1.177
 Vibration    12          0.741              1.536              1.084
 Vibration    13          0.768              1.464              0.952
 Vibration    14          0.786              1.419              0.880
 Vibration    15          0.804              1.373              0.812
 Vibration    16          0.809              1.361              0.796
 Vibration    17          0.833              1.301              0.719
 Vibration    18          0.882              1.190              0.593
 Vibration    19          0.960              1.028              0.447

 Optimization completed.
    -- Stationary point found.
 Normal termination of Gaussian 16 at Sun Feb 11 16:34:31 2024.
