 Gaussian 16, Revision A.03,

 -------------------------
 #P HF/6-311++G(d,p) nosym
 -------------------------

 -------
 Reduced
 -------
 Symbolic Z-matrix:
 Charge = -2 Multiplicity = 1

 SCF Done:  E(RHF) =  -3770.33240542     A.U. after   62 cycles
 Normal termination of Gaussian 16 at Thu Dec 21 18:39:51 2023.
 Gaussian 16:  ES64L-G16RevA.03 25-Dec-2016

 -----------------------------------------------------------------
 #P B3LYP/6-311++G(d,p) nosym guess=read geom=check nosym opt freq
 -----------------------------------------------------------------

 -------------------------------------------
 Then here read in HF orbitals and run B3LYP
 -------------------------------------------
 Structure from the checkpoint file:  "160-an.chk"
 Charge = -2 Multiplicity = 1

 SCF Done:  E(RB3LYP) =  -3777.44794585     A.U. after   35 cycles
 SCF Done:  E(RB3LYP) =  -3777.46887089     A.U. after   29 cycles
 SCF Done:  E(RB3LYP) =  -3777.47317695     A.U. after   23 cycles
 SCF Done:  E(RB3LYP) =  -3777.47346422     A.U. after   22 cycles
 SCF Done:  E(RB3LYP) =  -3777.47365904     A.U. after   22 cycles
 SCF Done:  E(RB3LYP) =  -3777.47375512     A.U. after   22 cycles
 SCF Done:  E(RB3LYP) =  -3777.47383527     A.U. after   22 cycles
 SCF Done:  E(RB3LYP) =  -3777.47395950     A.U. after   22 cycles
 SCF Done:  E(RB3LYP) =  -3777.47402115     A.U. after   21 cycles
 SCF Done:  E(RB3LYP) =  -3777.47406837     A.U. after   21 cycles
 SCF Done:  E(RB3LYP) =  -3777.47417455     A.U. after   20 cycles
 SCF Done:  E(RB3LYP) =  -3777.47417683     A.U. after   19 cycles
 SCF Done:  E(RB3LYP) =  -3777.47417812     A.U. after   17 cycles
 SCF Done:  E(RB3LYP) =  -3777.47417859     A.U. after   20 cycles
 SCF Done:  E(RB3LYP) =  -3777.47417878     A.U. after   17 cycles
 SCF Done:  E(RB3LYP) =  -3777.47417882     A.U. after   15 cycles
 Optimization completed.
    -- Stationary point found.
 Normal termination of Gaussian 16 at Thu Dec 21 20:43:01 2023.

 ----------------------------------------------------------------------
 #P Geom=AllCheck Guess=TCheck SCRF=Check GenChk RB3LYP/6-311++G(d,p) F
 req
 ----------------------------------------------------------------------

 Structure from the checkpoint file:  "160-an.chk"
 -------------------------------------------
 Then here read in HF orbitals and run B3LYP
 -------------------------------------------
 Charge = -2 Multiplicity = 1

                         Standard orientation:
 ---------------------------------------------------------------------
 Center     Atomic      Atomic             Coordinates (Angstroms)
 Number     Number       Type             X           Y           Z
 ---------------------------------------------------------------------
      1          6           0        4.214627    0.787150   -0.218053
      2          6           0        5.307250   -0.053611   -0.152988
      3          6           0        5.112548   -1.450519    0.024930
      4          6           0        2.883821    0.310351   -0.105931
      5          6           0        2.690552   -1.106096    0.075710
      6          6           0        3.829938   -1.946928    0.135895
      7          6           0        1.794510    1.279023   -0.192997
      8          6           0        1.371005   -1.686015    0.196630
      9          6           0        0.474718    0.717500   -0.013142
     10          6           0        0.285707   -0.728617    0.118783
     11          6           0       -0.734213    1.491963    0.025329
     12          6           0       -2.017652    0.973559    0.065467
     13          6           0       -2.117934   -0.448896    0.083801
     14          6           0       -1.021515   -1.260584    0.102931
     15          8           0        2.038394    2.514822   -0.412459
     16          8           0        1.177556   -2.944774    0.335557
     17          1           0        4.328385    1.857462   -0.357312
     18          1           0        6.314875    0.349991   -0.237703
     19          1           0        5.968725   -2.121234    0.071104
     20          1           0        3.641420   -3.007496    0.270775
     21         35           0       -3.909988   -1.279307   -0.184986
     22          1           0       -1.099260   -2.341704    0.104872
     23          7           0       -3.182133    1.772766    0.138531
     24         17           0       -0.664913    3.280813    0.248539
     25          1           0       -2.973415    2.698645    0.493623
     26          1           0       -3.920451    1.326811    0.671296
 ---------------------------------------------------------------------

 SCF Done:  E(RB3LYP) =  -3777.47417882     A.U. after    2 cycles

 The electronic state is 1-A.
 Alpha  occ. eigenvalues -- -482.61682-101.31718 -62.26960 -56.08955 -56.08628
 Alpha  occ. eigenvalues --  -56.08620 -18.79641 -18.78387 -14.10871  -9.99565
 Alpha  occ. eigenvalues --   -9.99468  -9.99180  -9.95610  -9.95323  -9.94314
 Alpha  occ. eigenvalues --   -9.94128  -9.94081  -9.93308  -9.93019  -9.92895
 Alpha  occ. eigenvalues --   -9.92251  -9.91828  -9.91788  -9.23166  -8.47906
 Alpha  occ. eigenvalues --   -6.99576  -6.98694  -6.98630  -6.30908  -6.29828
 Alpha  occ. eigenvalues --   -6.29801  -2.42021  -2.41719  -2.41697  -2.40841
 Alpha  occ. eigenvalues --   -2.40839  -0.71658  -0.71224  -0.70616  -0.62759
 Alpha  occ. eigenvalues --   -0.61080  -0.60788  -0.56725  -0.52828  -0.50690
 Alpha  occ. eigenvalues --   -0.49631  -0.48480  -0.41750  -0.39487  -0.37583
 Alpha  occ. eigenvalues --   -0.35350  -0.31831  -0.30237  -0.29257  -0.27364
 Alpha  occ. eigenvalues --   -0.25141  -0.22110  -0.21616  -0.21092  -0.19541
 Alpha  occ. eigenvalues --   -0.18494  -0.18269  -0.17560  -0.16044  -0.14902
 Alpha  occ. eigenvalues --   -0.14797  -0.12994  -0.12127  -0.11748  -0.11091
 Alpha  occ. eigenvalues --   -0.10451  -0.09594  -0.09318  -0.08625  -0.08345
 Alpha  occ. eigenvalues --   -0.07486  -0.06022  -0.01367  -0.00316   0.00185
 Alpha  occ. eigenvalues --    0.01524   0.02602   0.04114   0.12174
 Alpha virt. eigenvalues --    0.15075   0.15548   0.16592   0.17364   0.18598
 Alpha virt. eigenvalues --    0.19215   0.19632   0.20398   0.21114   0.21299
 Alpha virt. eigenvalues --    0.21471   0.22391   0.23042   0.23253   0.24099

 Mulliken charges:
               1
     1  C    0.053007
     2  C   -0.418654
     3  C   -0.485265
     4  C    0.241584
     5  C    0.459977
     6  C    0.062460
     7  C   -2.105955
     8  C   -0.918561
     9  C    0.798376
    10  C    0.987314
    11  C    1.313113
    12  C   -2.133740
    13  C    0.061867
    14  C    0.303139
    15  O   -0.393436
    16  O   -0.475437
    17  H    0.138977
    18  H    0.081361
    19  H    0.076091
    20  H    0.133752
    21  Br  -0.356335
    22  H    0.191759
    23  N   -0.096867
    24  Cl   0.223878
    25  H    0.146839
    26  H    0.110755
 Sum of Mulliken charges =  -2.00000

 Dipole moment (field-independent basis, Debye):
    X=             -7.5748    Y=              0.4638    Z=              1.0356  Tot=              7.6593
 Quadrupole moment (field-independent basis, Debye-Ang):
   XX=           -222.2777   YY=           -195.3515   ZZ=           -143.7371
   XY=             -1.8441   XZ=             -2.7747   YZ=              6.0636

  Exact polarizability:1147.083 -97.557 411.087 -55.608  42.232 173.272
 Approx polarizability:1787.763-105.840 638.944 -59.986   8.736 245.483

                      1                      2                      3
                      A                      A                      A
 Frequencies --     30.0904                42.5736                81.2687
 Red. masses --     11.1793                 8.1529                 7.9372
 Frc consts  --      0.0060                 0.0087                 0.0309
 IR Inten    --      7.3210                 5.0364                22.3315

                      4                      5                      6
                      A                      A                      A
 Frequencies --    119.9125               124.0402               139.3281
 Red. masses --     10.2873                 5.6567                 6.7206
 Frc consts  --      0.0872                 0.0513                 0.0769
 IR Inten    --      4.0234                 3.0802                 1.8595

                      7                      8                      9
                      A                      A                      A
 Frequencies --    172.8045               187.9441               191.4992
 Red. masses --     18.5669                 7.0605                 9.7050
 Frc consts  --      0.3267                 0.1469                 0.2097
 IR Inten    --    106.3370                 1.4635                23.2955

                     10                     11                     12
                      A                      A                      A
 Frequencies --    262.8496               268.2232               289.4063
 Red. masses --      5.4713                 4.8764                 1.3332
 Frc consts  --      0.2227                 0.2067                 0.0658
 IR Inten    --     27.9868                31.6490                14.0660

                     13                     14                     15
                      A                      A                      A
 Frequencies --    304.0406               311.8809               335.0476
 Red. masses --      7.0662                 7.4460                 5.5314
 Frc consts  --      0.3849                 0.4267                 0.3658
 IR Inten    --      9.3088                17.3858                11.2901

                     16                     17                     18
                      A                      A                      A
 Frequencies --    359.4414               371.6296               404.7453
 Red. masses --      7.5639                10.3048                 7.1204
 Frc consts  --      0.5758                 0.8385                 0.6873
 IR Inten    --      1.3016                20.0018                65.6634

                     19                     20                     21
                      A                      A                      A
 Frequencies --    438.9554               462.8577               479.1365
 Red. masses --      4.1096                 7.0844                 6.9495
 Frc consts  --      0.4665                 0.8942                 0.9400
 IR Inten    --     97.7392                21.3699               297.2034

                     22                     23                     24
                      A                      A                      A
 Frequencies --    499.2853               527.4961               541.3931
 Red. masses --      5.2004                 5.3892                 5.1930
 Frc consts  --      0.7638                 0.8835                 0.8968
 IR Inten    --     59.7087                15.8574                16.5969

                     25                     26                     27
                      A                      A                      A
 Frequencies --    601.3010               628.7649               653.5363
 Red. masses --      6.8933                 4.6497                 7.0268
 Frc consts  --      1.4685                 1.0831                 1.7683
 IR Inten    --     17.9535               120.9200                52.8846

                     28                     29                     30
                      A                      A                      A
 Frequencies --    686.4422               690.7594               703.7977
 Red. masses --      6.7416                 1.9445                 4.6304
 Frc consts  --      1.8716                 0.5467                 1.3513
 IR Inten    --     12.1278                70.8334                16.3443

                     31                     32                     33
                      A                      A                      A
 Frequencies --    734.1441               741.5189               758.3225
 Red. masses --      4.4458                 5.3798                 2.6278
 Frc consts  --      1.4118                 1.7429                 0.8903
 IR Inten    --     17.7556                87.8897                14.1391

                     34                     35                     36
                      A                      A                      A
 Frequencies --    778.9489               783.4887               821.0293
 Red. masses --      2.1877                 2.1104                 2.5214
 Frc consts  --      0.7821                 0.7633                 1.0014
 IR Inten    --     19.1498                20.0394                 5.3544

                     37                     38                     39
                      A                      A                      A
 Frequencies --    869.7162               932.3421               938.9072
 Red. masses --      5.1310                 1.4336                 8.2310
 Frc consts  --      2.2867                 0.7342                 4.2751
 IR Inten    --     36.5165                33.8918                25.2193

                     40                     41                     42
                      A                      A                      A
 Frequencies --    958.8856               969.0357               992.0720
 Red. masses --      1.2739                 1.3239                 3.8146
 Frc consts  --      0.6901                 0.7325                 2.2120
 IR Inten    --      1.7884                 2.6819               133.2187

                     43                     44                     45
                      A                      A                      A
 Frequencies --   1017.8220              1093.4135              1111.7649
 Red. masses --      2.0087                 2.5200                 2.2824
 Frc consts  --      1.2261                 1.7751                 1.6621
 IR Inten    --    176.8896                66.7626               107.7885

                     46                     47                     48
                      A                      A                      A
 Frequencies --   1122.5376              1138.4800              1173.5575
 Red. masses --      1.9777                 2.0991                 1.7824
 Frc consts  --      1.4683                 1.6030                 1.4463
 IR Inten    --     57.8886                23.9699                 3.0744

                     49                     50                     51
                      A                      A                      A
 Frequencies --   1202.2613              1213.7856              1249.1394
 Red. masses --      2.3908                 2.0919                 3.4785
 Frc consts  --      2.0360                 1.8159                 3.1979
 IR Inten    --    278.4673               173.4437               112.9081

                     52                     53                     54
                      A                      A                      A
 Frequencies --   1290.4089              1322.7726              1349.8967
 Red. masses --      2.7707                 5.3183                 8.5734
 Frc consts  --      2.7183                 5.4827                 9.2046
 IR Inten    --     93.9417               429.3000                 2.4430

                     55                     56                     57
                      A                      A                      A
 Frequencies --   1367.2474              1413.5573              1457.2830
 Red. masses --      2.7973                 5.0434                 4.4986
 Frc consts  --      3.0809                 5.9374                 5.6287
 IR Inten    --    422.8156               203.6094               164.6157

                     58                     59                     60
                      A                      A                      A
 Frequencies --   1463.7853              1472.4394              1483.3380
 Red. masses --      3.1459                 7.1842                 4.5735
 Frc consts  --      3.9714                 9.1771                 5.9290
 IR Inten    --    190.4683               411.6092               478.9085

                     61                     62                     63
                      A                      A                      A
 Frequencies --   1508.9320              1557.2974              1568.6012
 Red. masses --      6.2690                 5.7320                 8.1777
 Frc consts  --      8.4098                 8.1903                11.8552
 IR Inten    --    216.8406               733.6649               813.5345

                     64                     65                     66
                      A                      A                      A
 Frequencies --   1591.1767              1607.8942              3093.5951
 Red. masses --      5.3945                 1.2057                 1.0828
 Frc consts  --      8.0471                 1.8366                 6.1053
 IR Inten    --      2.7574                12.0675                40.7489

                     67                     68                     69
                      A                      A                      A
 Frequencies --   3117.2155              3159.9966              3163.9261
 Red. masses --      1.0907                 1.0906                 1.0910
 Frc consts  --      6.2445                 6.4166                 6.4345
 IR Inten    --    215.9288                45.5615               100.0654

                     70                     71                     72
                      A                      A                      A
 Frequencies --   3177.7227              3482.7640              3588.8555
 Red. masses --      1.0893                 1.0464                 1.0969
 Frc consts  --      6.4806                 7.4783                 8.3242
 IR Inten    --      0.9798              1002.5703                58.0188

 - Thermochemistry -
 -------------------
 Temperature   298.150 Kelvin.  Pressure   1.00000 Atm.
 Atom     1 has atomic number  6 and mass  12.00000

 Molecular mass:   334.93487 amu.
 Principal axes and moments of inertia in atomic units:
                           1         2         3
     Eigenvalues --  3757.08366********************
           X            0.99943  -0.03340  -0.00389
           Y            0.03339   0.99944  -0.00228
           Z            0.00397   0.00215   0.99999
 This molecule is an asymmetric top.
 Rotational symmetry number  1.
 Warning -- assumption of classical behavior for rotation
           may cause significant error
 Rotational temperatures (Kelvin)      0.02305     0.00806     0.00601
 Rotational constants (GHZ):           0.48036     0.16795     0.12526
 Zero-point vibrational energy     447106.3 (Joules/Mol)
                                  106.86096 (Kcal/Mol)
 Warning -- explicit consideration of  25 degrees of freedom as
           vibrations may cause significant error
 Vibrational temperatures:     43.29    61.25   116.93   172.53   178.47
          (Kelvin)            200.46   248.63   270.41   275.52   378.18
                              385.91   416.39   437.45   448.73   482.06
                              517.16   534.69   582.34   631.56   665.95
                              689.37   718.36   758.95   778.94   865.14
                              904.65   940.29   987.64   993.85  1012.61
                             1056.27  1066.88  1091.06  1120.73  1127.27
                             1181.28  1251.33  1341.43  1350.88  1379.62
                             1394.23  1427.37  1464.42  1573.18  1599.58
                             1615.08  1638.02  1688.49  1729.79  1746.37
                             1797.23  1856.61  1903.17  1942.20  1967.16
                             2033.79  2096.71  2106.06  2118.51  2134.19
                             2171.02  2240.60  2256.87  2289.35  2313.40
                             4450.99  4484.98  4546.53  4552.18  4572.03
                             5010.92  5163.56

 Zero-point correction=                           0.170294 (Hartree/Particle)
 Thermal correction to Energy=                    0.186249
 Thermal correction to Enthalpy=                  0.187193
 Thermal correction to Gibbs Free Energy=         0.125608
 Sum of electronic and zero-point Energies=          -3777.303885
 Sum of electronic and thermal Energies=             -3777.287930
 Sum of electronic and thermal Enthalpies=           -3777.286986
 Sum of electronic and thermal Free Energies=        -3777.348571

                     E (Thermal)             CV                S
                      KCal/Mol        Cal/Mol-Kelvin    Cal/Mol-Kelvin
 Total                  116.873             61.321            129.617
 Electronic               0.000              0.000              0.000
 Translational            0.889              2.981             43.321
 Rotational               0.889              2.981             34.719
 Vibrational            115.096             55.359             51.577
 Vibration     1          0.594              1.984              5.823
 Vibration     2          0.595              1.980              5.136
 Vibration     3          0.600              1.962              3.860
 Vibration     4          0.609              1.933              3.102
 Vibration     5          0.610              1.929              3.036
 Vibration     6          0.615              1.914              2.813
 Vibration     7          0.626              1.876              2.405
 Vibration     8          0.633              1.856              2.248
 Vibration     9          0.634              1.852              2.213
 Vibration    10          0.670              1.741              1.643
 Vibration    11          0.673              1.732              1.608
 Vibration    12          0.686              1.693              1.477
 Vibration    13          0.695              1.666              1.395
 Vibration    14          0.700              1.651              1.352
 Vibration    15          0.716              1.606              1.236
 Vibration    16          0.734              1.556              1.125
 Vibration    17          0.743              1.530              1.073
 Vibration    18          0.770              1.460              0.945
 Vibration    19          0.799              1.385              0.830
 Vibration    20          0.820              1.332              0.758
 Vibration    21          0.836              1.296              0.712
 Vibration    22          0.855              1.252              0.660
 Vibration    23          0.882              1.189              0.593
 Vibration    24          0.896              1.159              0.562
 Vibration    25          0.960              1.029              0.447

 Optimization completed.
    -- Stationary point found.
 Normal termination of Gaussian 16 at Thu Dec 21 21:31:58 2023.
