 Gaussian 16, Revision A.03,
 Gaussian 16:  ES64L-G16RevA.03 25-Dec-2016

 --------------------------------------
 #P UB3LYP/6-311++G(d,p) nosym opt freq
 --------------------------------------

 --------
 Oxidized
 --------
 Symbolic Z-matrix:
 Charge =  0 Multiplicity = 1

 SCF Done:  E(UB3LYP) =  -1292.91349397     A.U. after   17 cycles
 SCF Done:  E(UB3LYP) =  -1292.94840611     A.U. after   14 cycles
 SCF Done:  E(UB3LYP) =  -1292.96021039     A.U. after   14 cycles
 SCF Done:  E(UB3LYP) =  -1292.96224527     A.U. after   13 cycles
 SCF Done:  E(UB3LYP) =  -1292.96430055     A.U. after   14 cycles
 SCF Done:  E(UB3LYP) =  -1292.96473343     A.U. after   13 cycles
 SCF Done:  E(UB3LYP) =  -1292.96500684     A.U. after   13 cycles
 SCF Done:  E(UB3LYP) =  -1292.96522754     A.U. after   13 cycles
 SCF Done:  E(UB3LYP) =  -1292.96548552     A.U. after   13 cycles
 SCF Done:  E(UB3LYP) =  -1292.96566172     A.U. after   15 cycles
 SCF Done:  E(UB3LYP) =  -1292.96630823     A.U. after   16 cycles
 SCF Done:  E(UB3LYP) =  -1292.96541432     A.U. after   17 cycles
 SCF Done:  E(UB3LYP) =  -1292.96661373     A.U. after   14 cycles
 SCF Done:  E(UB3LYP) =  -1292.96661858     A.U. after   15 cycles
 SCF Done:  E(UB3LYP) =  -1292.96666238     A.U. after   14 cycles
 SCF Done:  E(UB3LYP) =  -1292.96668334     A.U. after   12 cycles
 SCF Done:  E(UB3LYP) =  -1292.96669570     A.U. after   12 cycles
 SCF Done:  E(UB3LYP) =  -1292.96669677     A.U. after   11 cycles
 SCF Done:  E(UB3LYP) =  -1292.96669697     A.U. after   11 cycles
 Optimization completed.
    -- Stationary point found.
 Normal termination of Gaussian 16 at Thu Dec 21 20:59:42 2023.

 ----------------------------------------------------------------------
 #P Geom=AllCheck Guess=TCheck SCRF=Check GenChk UB3LYP/6-311++G(d,p) F
 req
 ----------------------------------------------------------------------

 Structure from the checkpoint file:  "218.chk"
 --------
 Oxidized
 --------
 Charge =  0 Multiplicity = 1

                          Input orientation:
 ---------------------------------------------------------------------
 Center     Atomic      Atomic             Coordinates (Angstroms)
 Number     Number       Type             X           Y           Z
 ---------------------------------------------------------------------
      1          6           0        5.060793   -2.480511    0.116061
      2          6           0        5.780601   -1.536189   -0.605970
      3          6           0        5.111174   -0.530107   -1.308592
      4          6           0        3.663633   -2.429382    0.141796
      5          6           0        2.989650   -1.416834   -0.565604
      6          6           0        3.722991   -0.470596   -1.288600
      7          6           0        2.918149   -3.457034    0.923129
      8          6           0        1.425285   -3.374082    0.919175
      9          6           0        0.750718   -2.364157    0.212898
     10          6           0        1.502100   -1.327807   -0.561746
     11          6           0        0.697719   -4.329269    1.633711
     12          6           0       -0.646618   -2.318978    0.224029
     13          6           0       -1.373041   -3.264703    0.935185
     14          8           0        3.496676   -4.330910    1.545110
     15          8           0        0.912576   -0.447798   -1.165262
     16          1           0        5.559280   -3.268219    0.667183
     17          1           0       -2.455664   -3.252015    0.937718
     18          1           0        3.184555    0.300310   -1.825716
     19          1           0        1.225766   -5.115290    2.158530
     20          1           0       -1.145123   -1.537506   -0.335570
     21          6           0       -0.687283   -4.255600    1.639778
     22          1           0        5.675237    0.205102   -1.871008
     23          1           0        6.863530   -1.580632   -0.623697
     24         16           0       -1.630533   -5.481396    2.569475
     25          8           0       -0.816087   -6.688381    2.655508
     26          8           0       -2.988036   -5.481862    2.031987
     27          7           0       -1.708879   -4.806099    4.115920
     28          1           0       -1.213670   -5.384920    4.786610
     29          1           0       -2.673857   -4.646986    4.386782
 ---------------------------------------------------------------------

 SCF Done:  E(UB3LYP) =  -1292.96669697     A.U. after    2 cycles

 Alpha  occ. eigenvalues --  -89.08751 -19.13944 -19.13839 -19.13802 -19.13767
 Alpha  occ. eigenvalues --  -14.36351 -10.29162 -10.29095 -10.24290 -10.22707
 Alpha  occ. eigenvalues --  -10.22632 -10.22324 -10.22166 -10.21985 -10.21935
 Alpha  occ. eigenvalues --  -10.21617 -10.21166 -10.21113 -10.20873 -10.20853
 Alpha  occ. eigenvalues --   -8.14898  -6.11198  -6.11131  -6.10991  -1.14368
 Alpha  occ. eigenvalues --   -1.07435  -1.07230  -1.03457  -0.93235  -0.91333
 Alpha  occ. eigenvalues --   -0.89786  -0.83357  -0.80232  -0.79069  -0.78947
 Alpha  occ. eigenvalues --   -0.71813  -0.69703  -0.67354  -0.64607  -0.63280
 Alpha  occ. eigenvalues --   -0.60052  -0.57810  -0.57530  -0.55537  -0.53832
 Alpha  occ. eigenvalues --   -0.52307  -0.51386  -0.50639  -0.50178  -0.47230
 Alpha  occ. eigenvalues --   -0.46833  -0.46658  -0.46583  -0.46141  -0.46079
 Alpha  occ. eigenvalues --   -0.45339  -0.43312  -0.42704  -0.41151  -0.40041
 Alpha  occ. eigenvalues --   -0.39292  -0.38420  -0.37981  -0.37840  -0.34673
 Alpha  occ. eigenvalues --   -0.34137  -0.33223  -0.32720  -0.30092  -0.29588
 Alpha  occ. eigenvalues --   -0.29482  -0.29019  -0.28849  -0.28301
 Alpha virt. eigenvalues --   -0.12952  -0.09012  -0.05874  -0.04302  -0.02242
 Alpha virt. eigenvalues --   -0.01313   0.00129   0.00755   0.00917   0.01259
 Alpha virt. eigenvalues --    0.02401   0.02509   0.03047   0.03251   0.03965

  Beta  occ. eigenvalues --  -89.08751 -19.13944 -19.13839 -19.13802 -19.13767
  Beta  occ. eigenvalues --  -14.36351 -10.29162 -10.29095 -10.24290 -10.22707
  Beta  occ. eigenvalues --  -10.22632 -10.22324 -10.22166 -10.21985 -10.21935
  Beta  occ. eigenvalues --  -10.21617 -10.21166 -10.21113 -10.20873 -10.20853
  Beta  occ. eigenvalues --   -8.14898  -6.11198  -6.11131  -6.10991  -1.14368
  Beta  occ. eigenvalues --   -1.07435  -1.07230  -1.03457  -0.93235  -0.91333
  Beta  occ. eigenvalues --   -0.89786  -0.83357  -0.80232  -0.79069  -0.78947
  Beta  occ. eigenvalues --   -0.71813  -0.69703  -0.67354  -0.64607  -0.63280
  Beta  occ. eigenvalues --   -0.60052  -0.57810  -0.57530  -0.55537  -0.53832
  Beta  occ. eigenvalues --   -0.52307  -0.51386  -0.50639  -0.50178  -0.47230
  Beta  occ. eigenvalues --   -0.46833  -0.46658  -0.46583  -0.46141  -0.46079
  Beta  occ. eigenvalues --   -0.45339  -0.43312  -0.42704  -0.41151  -0.40041
  Beta  occ. eigenvalues --   -0.39292  -0.38420  -0.37981  -0.37840  -0.34673
  Beta  occ. eigenvalues --   -0.34137  -0.33223  -0.32720  -0.30092  -0.29588
  Beta  occ. eigenvalues --   -0.29482  -0.29019  -0.28849  -0.28301
  Beta virt. eigenvalues --   -0.12952  -0.09012  -0.05874  -0.04302  -0.02242
  Beta virt. eigenvalues --   -0.01313   0.00129   0.00755   0.00917   0.01259
  Beta virt. eigenvalues --    0.02401   0.02509   0.03047   0.03251   0.03965

 Mulliken charges and spin densities:
               1          2
     1  C    0.056132  -0.000000
     2  C   -0.328241   0.000000
     3  C   -0.389768  -0.000000
     4  C    0.410410   0.000000
     5  C    0.294868   0.000000
     6  C    0.127775   0.000000
     7  C   -0.817633   0.000000
     8  C    0.378336  -0.000000
     9  C    0.478770   0.000000
    10  C   -0.625346   0.000000
    11  C   -0.130806  -0.000000
    12  C    0.055162  -0.000000
    13  C   -0.389540  -0.000000
    14  O   -0.193992  -0.000000
    15  O   -0.197474  -0.000000
    16  H    0.184168   0.000000
    17  H    0.253738   0.000000
    18  H    0.186750  -0.000000
    19  H    0.248564   0.000000
    20  H    0.191823   0.000000
    21  C   -0.428143   0.000000
    22  H    0.180219   0.000000
    23  H    0.181823  -0.000000
    24  S    0.396836  -0.000000
    25  O   -0.185078   0.000000
    26  O   -0.198279   0.000000
    27  N   -0.365500   0.000000
    28  H    0.311332   0.000000
    29  H    0.313095  -0.000000
 Sum of Mulliken charges =  -0.00000  -0.00000

 Dipole moment (field-independent basis, Debye):
    X=              2.1043    Y=              3.4309    Z=              1.0667  Tot=              4.1637
 Quadrupole moment (field-independent basis, Debye-Ang):
   XX=           -105.6839   YY=           -160.0847   ZZ=           -108.1287
   XY=             -0.5279   XZ=            -12.6609   YZ=             -2.2269

  Exact polarizability: 269.274  32.324 193.985 -33.439 -67.079 160.972
 Approx polarizability: 413.210  -8.133 332.342  -4.673-114.309 257.530

                      1                      2                      3
                      A                      A                      A
 Frequencies --     25.0690                33.0214                71.0589
 Red. masses --      7.4097                 7.6987                 6.9738
 Frc consts  --      0.0027                 0.0049                 0.0207
 IR Inten    --      1.5762                 2.3271                 4.9547

                      4                      5                      6
                      A                      A                      A
 Frequencies --    105.3151               114.3917               130.3758
 Red. masses --      7.6367                 4.4861                 4.0796
 Frc consts  --      0.0499                 0.0346                 0.0409
 IR Inten    --      0.0222                 0.3427                 3.8393

                      7                      8                      9
                      A                      A                      A
 Frequencies --    156.5644               162.5328               209.4950
 Red. masses --      1.4449                 6.8253                 7.7201
 Frc consts  --      0.0209                 0.1062                 0.1996
 IR Inten    --     19.2127                 2.9683                 0.5215

                     10                     11                     12
                      A                      A                      A
 Frequencies --    222.2570               239.2549               291.2801
 Red. masses --      6.5577                 6.7965                 7.4492
 Frc consts  --      0.1909                 0.2292                 0.3724
 IR Inten    --      1.5706                 4.5775                 0.5285

                     13                     14                     15
                      A                      A                      A
 Frequencies --    315.3045               368.5473               382.7440
 Red. masses --      6.2871                 3.1868                 9.0581
 Frc consts  --      0.3683                 0.2550                 0.7818
 IR Inten    --      1.2311                 1.9314                 8.6261

                     16                     17                     18
                      A                      A                      A
 Frequencies --    405.7956               416.1114               431.9118
 Red. masses --      8.8267                 3.4037                 6.1907
 Frc consts  --      0.8564                 0.3472                 0.6804
 IR Inten    --     24.3961                 0.5230                10.3181

                     19                     20                     21
                      A                      A                      A
 Frequencies --    439.3031               447.1874               454.6716
 Red. masses --      6.8299                 3.4346                 7.1526
 Frc consts  --      0.7766                 0.4047                 0.8712
 IR Inten    --      1.0038                 0.7022                 8.7757

                     22                     23                     24
                      A                      A                      A
 Frequencies --    473.5043               486.0467               551.6694
 Red. masses --      5.6638                 9.9553                 4.3006
 Frc consts  --      0.7482                 1.3857                 0.7711
 IR Inten    --      1.7613                12.0374                25.5345

                     25                     26                     27
                      A                      A                      A
 Frequencies --    571.5000               623.1723               644.1032
 Red. masses --      5.4709                 2.4197                 7.0483
 Frc consts  --      1.0528                 0.5536                 1.7228
 IR Inten    --    112.1468               182.6824                 6.7552

                     28                     29                     30
                      A                      A                      A
 Frequencies --    657.4078               673.8282               696.8552
 Red. masses --      6.8934                 4.1961                 6.7466
 Frc consts  --      1.7553                 1.1225                 1.9303
 IR Inten    --     14.4158                24.5293                 0.0147

                     31                     32                     33
                      A                      A                      A
 Frequencies --    715.1950               728.5326               735.5332
 Red. masses --      7.0109                 3.4272                 2.6310
 Frc consts  --      2.1129                 1.0717                 0.8386
 IR Inten    --      1.7304                34.9197                42.2149

                     34                     35                     36
                      A                      A                      A
 Frequencies --    809.6167               810.7119               815.9283
 Red. masses --      1.8782                 4.0205                 4.4603
 Frc consts  --      0.7253                 1.5569                 1.7495
 IR Inten    --      6.6607                 1.8403                43.7290

                     37                     38                     39
                      A                      A                      A
 Frequencies --    853.8314               877.3225               918.7020
 Red. masses --      3.5411                 1.5118                 1.3916
 Frc consts  --      1.5210                 0.6856                 0.6920
 IR Inten    --    171.8072                14.5103                 0.2054

                     40                     41                     42
                      A                      A                      A
 Frequencies --    943.1717               953.7978               971.0159
 Red. masses --      7.0089                 1.4297                 6.0369
 Frc consts  --      3.6735                 0.7663                 3.3537
 IR Inten    --     37.4497                 5.7965                85.6632

                     43                     44                     45
                      A                      A                      A
 Frequencies --   1005.4056              1012.6715              1021.2400
 Red. masses --      1.3746                 1.3612                 1.3302
 Frc consts  --      0.8187                 0.8224                 0.8174
 IR Inten    --      1.3238                 1.2707                 0.0012

                     46                     47                     48
                      A                      A                      A
 Frequencies --   1057.3631              1081.8783              1089.6879
 Red. masses --      2.0334                 2.6458                 1.3002
 Frc consts  --      1.3394                 1.8246                 0.9096
 IR Inten    --      0.2012                34.5823                 6.4959

                     49                     50                     51
                      A                      A                      A
 Frequencies --   1107.3657              1114.8396              1136.2894
 Red. masses --      4.9058                 2.2554                 2.3288
 Frc consts  --      3.5444                 1.6515                 1.7716
 IR Inten    --    165.8249                33.0588                70.5675

                     52                     53                     54
                      A                      A                      A
 Frequencies --   1178.0288              1185.2297              1192.7225
 Red. masses --      1.5681                 1.9471                 1.8223
 Frc consts  --      1.2821                 1.6115                 1.5273
 IR Inten    --     10.8247                28.6596                 0.2346

                     55                     56                     57
                      A                      A                      A
 Frequencies --   1233.3390              1277.6496              1301.9404
 Red. masses --      1.7365                 1.4897                 4.4952
 Frc consts  --      1.5563                 1.4328                 4.4893
 IR Inten    --      0.5996                30.2993               576.8482

                     58                     59                     60
                      A                      A                      A
 Frequencies --   1312.4933              1322.3114              1351.6905
 Red. masses --      2.3653                 9.8790                 7.8278
 Frc consts  --      2.4007                10.1773                 8.4265
 IR Inten    --     67.3017               153.6230                55.7362

                     61                     62                     63
                      A                      A                      A
 Frequencies --   1363.1152              1431.3866              1481.9282
 Red. masses --      8.0574                 4.1736                 2.4090
 Frc consts  --      8.8208                 5.0381                 3.1170
 IR Inten    --      1.4069                 2.4098                 0.6570

                     64                     65                     66
                      A                      A                      A
 Frequencies --   1496.7640              1507.3794              1585.4808
 Red. masses --      2.6097                 2.5599                 1.0965
 Frc consts  --      3.4446                 3.4270                 1.6239
 IR Inten    --      7.4258                 1.6216                35.1083

                     67                     68                     69
                      A                      A                      A
 Frequencies --   1602.1009              1616.3446              1622.8538
 Red. masses --      7.2026                 7.4427                 6.2526
 Frc consts  --     10.8923                11.4564                 9.7021
 IR Inten    --      1.9448                 0.8782               112.7738

                     70                     71                     72
                      A                      A                      A
 Frequencies --   1630.3179              1723.9420              1733.5485
 Red. masses --      5.7946                12.6809                12.2181
 Frc consts  --      9.0744                22.2047                21.6334
 IR Inten    --     11.2665                 2.9371               325.5503

                     73                     74                     75
                      A                      A                      A
 Frequencies --   3172.4114              3186.3692              3196.9375
 Red. masses --      1.0872                 1.0917                 1.0885
 Frc consts  --      6.4465                 6.5308                 6.5548
 IR Inten    --      2.8720                 8.5872                 3.2785

                     76                     77                     78
                      A                      A                      A
 Frequencies --   3201.0945              3203.6821              3208.1817
 Red. masses --      1.0926                 1.0952                 1.0917
 Frc consts  --      6.5966                 6.6226                 6.6202
 IR Inten    --      0.0972                11.1483                 5.1504

                     79                     80                     81
                      A                      A                      A
 Frequencies --   3209.2448              3511.4149              3619.6571
 Red. masses --      1.0944                 1.0460                 1.0996
 Frc consts  --      6.6410                 7.5988                 8.4881
 IR Inten    --      1.2451                61.6905                50.0914

 - Thermochemistry -
 -------------------
 Temperature   298.150 Kelvin.  Pressure   1.00000 Atm.
 Atom     1 has atomic number  6 and mass  12.00000

 Molecular mass:   287.02523 amu.
 Principal axes and moments of inertia in atomic units:
                           1         2         3
     Eigenvalues --  2168.77860********************
           X            0.75112   0.65906   0.03816
           Y            0.51076  -0.61678   0.59892
           Z           -0.41826   0.43037   0.79990
 This molecule is an asymmetric top.
 Rotational symmetry number  1.
 Warning -- assumption of classical behavior for rotation
           may cause significant error
 Rotational temperatures (Kelvin)      0.03994     0.00797     0.00685
 Rotational constants (GHZ):           0.83215     0.16607     0.14265
 Zero-point vibrational energy     539635.1 (Joules/Mol)
                                  128.97588 (Kcal/Mol)
 Warning -- explicit consideration of  25 degrees of freedom as
           vibrations may cause significant error
 Vibrational temperatures:     36.07    47.51   102.24   151.52   164.58
          (Kelvin)            187.58   225.26   233.85   301.42   319.78
                              344.23   419.09   453.65   530.26   550.68
                              583.85   598.69   621.42   632.06   643.40
                              654.17   681.27   699.31   793.73   822.26
                              896.61   926.72   945.86   969.49  1002.62
                             1029.01  1048.20  1058.27  1164.86  1166.43
                             1173.94  1228.47  1262.27  1321.81  1357.01
                             1372.30  1397.08  1446.55  1457.01  1469.34
                             1521.31  1556.58  1567.82  1593.25  1604.01
                             1634.87  1694.92  1705.28  1716.06  1774.50
                             1838.25  1873.20  1888.39  1902.51  1944.78
                             1961.22  2059.45  2132.16  2153.51  2168.78
                             2281.15  2305.07  2325.56  2334.92  2345.66
                             2480.37  2494.19  4564.39  4584.47  4599.68
                             4605.66  4609.38  4615.86  4617.39  5052.14
                             5207.88

 Zero-point correction=                           0.205536 (Hartree/Particle)
 Thermal correction to Energy=                    0.221796
 Thermal correction to Enthalpy=                  0.222740
 Thermal correction to Gibbs Free Energy=         0.160583
 Sum of electronic and zero-point Energies=          -1292.761161
 Sum of electronic and thermal Energies=             -1292.744901
 Sum of electronic and thermal Enthalpies=           -1292.743957
 Sum of electronic and thermal Free Energies=        -1292.806114

                     E (Thermal)             CV                S
                      KCal/Mol        Cal/Mol-Kelvin    Cal/Mol-Kelvin
 Total                  139.179             63.219            130.822
 Electronic               0.000              0.000              0.000
 Translational            0.889              2.981             42.861
 Rotational               0.889              2.981             34.055
 Vibrational            137.402             57.258             53.906
 Vibration     1          0.593              1.985              6.186
 Vibration     2          0.594              1.983              5.639
 Vibration     3          0.598              1.968              4.124
 Vibration     4          0.605              1.945              3.353
 Vibration     5          0.607              1.938              3.193
 Vibration     6          0.612              1.923              2.940
 Vibration     7          0.620              1.895              2.591
 Vibration     8          0.623              1.888              2.520
 Vibration     9          0.642              1.826              2.048
 Vibration    10          0.648              1.807              1.941
 Vibration    11          0.657              1.780              1.808
 Vibration    12          0.687              1.690              1.467
 Vibration    13          0.703              1.644              1.334
 Vibration    14          0.741              1.537              1.086
 Vibration    15          0.752              1.507              1.028
 Vibration    16          0.771              1.458              0.942
 Vibration    17          0.779              1.435              0.905
 Vibration    18          0.793              1.401              0.852
 Vibration    19          0.799              1.384              0.829
 Vibration    20          0.806              1.367              0.804
 Vibration    21          0.813              1.351              0.782
 Vibration    22          0.830              1.309              0.728
 Vibration    23          0.842              1.281              0.694
 Vibration    24          0.907              1.136              0.541
 Vibration    25          0.928              1.093              0.501

 Optimization completed.
    -- Stationary point found.
 Normal termination of Gaussian 16 at Thu Dec 21 21:43:51 2023.
