 Q-Chem 5.4, Q-Chem, Inc., Pleasanton, CA (2021)
 Q-Chem 5.4.0 for Intel X86 EM64T Linux

User input:
--------------------------------------------------------------
$molecule
0 1
C                 -2.0260430000      0.3635840000      1.5090390000
C                 -2.9526580000      1.2245100000      0.6965350000
C                 -2.5700790000      1.5348240000     -0.5572100000
C                 -1.2845530000      1.0721450000     -1.1755790000
C                 -0.3580980000      0.2109700000     -0.3631980000
C                 -0.7406240000     -0.0992770000      0.8905940000
O                 -0.9941820000      1.3858630000     -2.3116360000
O                 -2.3161710000      0.0501620000      2.6452380000
Br                 0.3129650000     -1.1814940000      2.0610130000
Br                -3.6237640000      2.6169620000     -1.7275960000
C                  0.9367640000     -0.2450260000     -1.0117380000
C                  1.8688050000      0.9363430000     -1.3506710000
C                  0.6909370000     -1.1572050000     -2.2310310000
C                 -4.2477090000      1.6803440000      1.3448370000
C                 -4.0022870000      2.5933160000      2.5636360000
C                 -5.1794630000      0.4988870000      1.6842710000
H                  1.4477910000     -0.8481270000     -0.2611590000
H                  2.0521210000      1.5601510000     -0.4715200000
H                  1.4560890000      1.5609870000     -2.1426060000
H                  2.8333060000      0.5463570000     -1.6872800000
H                  0.0475450000     -2.0017830000     -1.9695350000
H                  1.6470400000     -1.5624250000     -2.5735220000
H                  0.2338820000     -0.6119740000     -3.0565390000
H                 -4.7588750000      2.2828910000      0.5939010000
H                 -4.9585520000      2.9984130000      2.9058200000
H                 -3.3591570000      3.4379580000      2.3017030000
H                 -3.5451250000      2.0487080000      3.3894890000
H                 -6.1441580000      0.8887910000      2.0204200000
H                 -4.7667600000     -0.1251630000      2.4766710000
H                 -5.3624050000     -0.1255020000      0.8054520000
$end
$rem
MAX_SCF_CYCLES=200
BASIS  =  6-311++G(d,p)
GUI  =  2
JOB_TYPE  =  SP
METHOD  =  B3LYP
SOLVENT_METHOD = PCM
$end
$pcm
theory = CPCM
$end
$solvent
dielectric 37.219
opticaldielectric 1.43
$end

--------------------------------------------------------------

             Standard Nuclear Orientation (Angstroms)
    I     Atom           X                Y                Z
 ----------------------------------------------------------------
    1      C      -2.0260430000     0.3635840000     1.5090390000
    2      C      -2.9526580000     1.2245100000     0.6965350000
    3      C      -2.5700790000     1.5348240000    -0.5572100000
    4      C      -1.2845530000     1.0721450000    -1.1755790000
    5      C      -0.3580980000     0.2109700000    -0.3631980000
    6      C      -0.7406240000    -0.0992770000     0.8905940000
    7      O      -0.9941820000     1.3858630000    -2.3116360000
    8      O      -2.3161710000     0.0501620000     2.6452380000
    9      Br      0.3129650000    -1.1814940000     2.0610130000
   10      Br     -3.6237640000     2.6169620000    -1.7275960000
   11      C       0.9367640000    -0.2450260000    -1.0117380000
   12      C       1.8688050000     0.9363430000    -1.3506710000
   13      C       0.6909370000    -1.1572050000    -2.2310310000
   14      C      -4.2477090000     1.6803440000     1.3448370000
   15      C      -4.0022870000     2.5933160000     2.5636360000
   16      C      -5.1794630000     0.4988870000     1.6842710000
   17      H       1.4477910000    -0.8481270000    -0.2611590000
   18      H       2.0521210000     1.5601510000    -0.4715200000
   19      H       1.4560890000     1.5609870000    -2.1426060000
   20      H       2.8333060000     0.5463570000    -1.6872800000
   21      H       0.0475450000    -2.0017830000    -1.9695350000
   22      H       1.6470400000    -1.5624250000    -2.5735220000
   23      H       0.2338820000    -0.6119740000    -3.0565390000
   24      H      -4.7588750000     2.2828910000     0.5939010000
   25      H      -4.9585520000     2.9984130000     2.9058200000
   26      H      -3.3591570000     3.4379580000     2.3017030000
   27      H      -3.5451250000     2.0487080000     3.3894890000
   28      H      -6.1441580000     0.8887910000     2.0204200000
   29      H      -4.7667600000    -0.1251630000     2.4766710000
   30      H      -5.3624050000    -0.1255020000     0.8054520000
 ----------------------------------------------------------------

    9   -5764.5964913198      3.68e-06  Convergence criterion met
 Total energy in the final basis set =    -5764.5964913198

                    Orbital Energies (a.u.)
 --------------------------------------------------------------

 Alpha MOs
 -- Occupied --
********-482.8475 -62.5004 -62.5004 -56.3209 -56.3209 -56.3171 -56.3171
-56.3167 -56.3167 -19.1504 -19.1504 -10.3033 -10.3033 -10.2627 -10.2626
-10.2309 -10.2309 -10.1943 -10.1943 -10.1610 -10.1610 -10.1610 -10.1610
 -8.7092  -8.7092  -6.5409  -6.5409  -6.5280  -6.5280  -6.5268  -6.5268
 -2.6519  -2.6519  -2.6481  -2.6481  -2.6473  -2.6473  -2.6372  -2.6372
 -2.6372  -2.6372  -1.0887  -1.0868  -0.8937  -0.8643  -0.8108  -0.8091
 -0.7879  -0.7436  -0.6995  -0.6889  -0.6888  -0.6527  -0.6058  -0.5962
 -0.5681  -0.5544  -0.4927  -0.4879  -0.4716  -0.4701  -0.4573  -0.4399
 -0.4399  -0.4392  -0.4354  -0.4204  -0.4129  -0.4069  -0.3858  -0.3856
 -0.3719  -0.3632  -0.3602  -0.3536  -0.3528  -0.3494  -0.3427  -0.3418
 -0.3088  -0.2982  -0.2919  -0.2913  -0.2858  -0.2695

          Ground-State Mulliken Net Atomic Charges

     Atom                 Charge (a.u.)
  ----------------------------------------
      1 C                    -1.132041
      2 C                     1.360274
      3 C                    -0.053754
      4 C                    -1.128890
      5 C                     1.363252
      6 C                    -0.055061
      7 O                    -0.163356
      8 O                    -0.163360
      9 Br                   -0.103722
     10 Br                   -0.104262
     11 C                     0.354229
     12 C                    -0.734302
     13 C                    -0.732497
     14 C                     0.355132
     15 C                    -0.732500
     16 C                    -0.734712
     17 H                     0.192645
     18 H                     0.144283
     19 H                     0.187487
     20 H                     0.173533
     21 H                     0.144639
     22 H                     0.173231
     23 H                     0.186904
     24 H                     0.192702
     25 H                     0.173262
     26 H                     0.144639
     27 H                     0.186923
     28 H                     0.173536
     29 H                     0.187483
     30 H                     0.144302
  ----------------------------------------
  Sum of atomic charges =     0.000000

                    Cartesian Multipole Moments
 -----------------------------------------------------------------
    Charge (ESU x 10^10)
                 0.0000
    Dipole Moment (Debye)
         X      -0.0009      Y      -0.0006      Z      -0.0007
       Tot       0.0012
    Quadrupole Moments (Debye-Ang)
        XX    -110.7141     XY      -4.5565     YY    -121.0534
        XZ      -1.8358     YZ       8.0649     ZZ    -136.9767

 Total job time:  58.57s(wall), 429.34s(cpu)
        *  Thank you very much for using Q-Chem.  Have a nice day.  *
