 Q-Chem 5.4, Q-Chem, Inc., Pleasanton, CA (2021)
 Q-Chem 5.4.0 for Intel X86 EM64T Linux

User input:
--------------------------------------------------------------
$molecule
-1 2
C                 -1.0338830000      2.6347150000      0.5709650000
C                  0.2872950000      2.7739240000     -0.0225700000
C                  0.9462360000      1.7074730000     -0.5979590000
C                  0.3472150000      0.3785010000     -0.6379980000
C                 -0.9750040000      0.2409670000     -0.0426580000
C                 -1.6305330000      1.3080850000      0.5256750000
O                 -1.6441520000      3.6166940000      1.0879490000
O                  0.9404170000     -0.6164830000     -1.1480530000
O                 -2.9138740000      1.1294030000      0.9968550000
O                 -1.5567090000     -1.0073450000      0.0208620000
C                 -3.0857900000      1.3383120000      2.3958940000
C                 -1.8846960000     -1.5937490000     -1.2355800000
C                  2.3211180000      1.8439880000     -1.2076220000
C                  0.8882410000      4.1688250000      0.0268220000
C                  1.6698930000      4.4122800000      1.2937480000
C                  2.9182320000      4.8760430000      1.4434160000
C                  3.8333080000      5.2747120000      0.3116240000
C                  3.5234910000      5.0432090000      2.8179230000
H                 -2.7981470000      2.3540450000      2.6756210000
H                 -2.5001310000      0.6064980000      2.9685060000
H                 -4.1476690000      1.1814260000      2.6003740000
H                 -2.3091690000     -2.5758000000     -1.0132720000
H                 -0.9937300000     -1.7045600000     -1.8573190000
H                 -2.6388510000     -0.9887430000     -1.7568500000
H                  3.0351040000      2.2831070000     -0.5032010000
H                  2.3096160000      2.4849790000     -2.0990290000
H                  2.6775890000      0.8576000000     -1.5060120000
H                  0.0509350000      4.8758440000      0.0131620000
H                  1.4999760000      4.3531390000     -0.8584630000
H                  1.1123230000      4.1688490000      2.1961780000
H                  3.3907310000      5.1073220000     -0.6698690000
H                  4.7756110000      4.7132530000      0.3561560000
H                  4.1007560000      6.3376150000      0.3837590000
H                  2.8227260000      4.7495900000      3.6026130000
H                  3.8216400000      6.0848960000      2.9994880000
H                  4.4316060000      4.4353380000      2.9285250000
$end
$rem
MAX_SCF_CYCLES=200
BASIS  =  6-311++G(d,p)
GUI  =  2
JOB_TYPE  =  SP
METHOD  =  B3LYP
SOLVENT_METHOD = PCM
$end
$pcm
theory = CPCM
$end
$solvent
dielectric 37.219
opticaldielectric 1.43
$end

--------------------------------------------------------------

             Standard Nuclear Orientation (Angstroms)
    I     Atom           X                Y                Z
 ----------------------------------------------------------------
    1      C      -1.0338830000     2.6347150000     0.5709650000
    2      C       0.2872950000     2.7739240000    -0.0225700000
    3      C       0.9462360000     1.7074730000    -0.5979590000
    4      C       0.3472150000     0.3785010000    -0.6379980000
    5      C      -0.9750040000     0.2409670000    -0.0426580000
    6      C      -1.6305330000     1.3080850000     0.5256750000
    7      O      -1.6441520000     3.6166940000     1.0879490000
    8      O       0.9404170000    -0.6164830000    -1.1480530000
    9      O      -2.9138740000     1.1294030000     0.9968550000
   10      O      -1.5567090000    -1.0073450000     0.0208620000
   11      C      -3.0857900000     1.3383120000     2.3958940000
   12      C      -1.8846960000    -1.5937490000    -1.2355800000
   13      C       2.3211180000     1.8439880000    -1.2076220000
   14      C       0.8882410000     4.1688250000     0.0268220000
   15      C       1.6698930000     4.4122800000     1.2937480000
   16      C       2.9182320000     4.8760430000     1.4434160000
   17      C       3.8333080000     5.2747120000     0.3116240000
   18      C       3.5234910000     5.0432090000     2.8179230000
   19      H      -2.7981470000     2.3540450000     2.6756210000
   20      H      -2.5001310000     0.6064980000     2.9685060000
   21      H      -4.1476690000     1.1814260000     2.6003740000
   22      H      -2.3091690000    -2.5758000000    -1.0132720000
   23      H      -0.9937300000    -1.7045600000    -1.8573190000
   24      H      -2.6388510000    -0.9887430000    -1.7568500000
   25      H       3.0351040000     2.2831070000    -0.5032010000
   26      H       2.3096160000     2.4849790000    -2.0990290000
   27      H       2.6775890000     0.8576000000    -1.5060120000
   28      H       0.0509350000     4.8758440000     0.0131620000
   29      H       1.4999760000     4.3531390000    -0.8584630000
   30      H       1.1123230000     4.1688490000     2.1961780000
   31      H       3.3907310000     5.1073220000    -0.6698690000
   32      H       4.7756110000     4.7132530000     0.3561560000
   33      H       4.1007560000     6.3376150000     0.3837590000
   34      H       2.8227260000     4.7495900000     3.6026130000
   35      H       3.8216400000     6.0848960000     2.9994880000
   36      H       4.4316060000     4.4353380000     2.9285250000
 ----------------------------------------------------------------

    8    -845.5522459757      5.69e-06  Convergence criterion met
 Total energy in the final basis set =     -845.5522459757

                    Orbital Energies (a.u.)
 --------------------------------------------------------------

 Alpha MOs
 -- Occupied --
-19.1355 -19.1352 -19.0762 -19.0758 -10.2198 -10.2195 -10.2135 -10.2129
-10.2031 -10.2030 -10.1700 -10.1670 -10.1649 -10.1598 -10.1558 -10.1554
-10.1551 -10.1499  -1.0603  -1.0414  -0.9963  -0.9938  -0.8299  -0.8058
 -0.7710  -0.7352  -0.7047  -0.6970  -0.6856  -0.6658  -0.6427  -0.6243
 -0.5626  -0.5593  -0.5190  -0.5078  -0.4949  -0.4854  -0.4666  -0.4537
 -0.4438  -0.4399  -0.4363  -0.4342  -0.4254  -0.4153  -0.4102  -0.4092
 -0.3879  -0.3852  -0.3810  -0.3775  -0.3698  -0.3654  -0.3609  -0.3574
 -0.3537  -0.3451  -0.3371  -0.3260  -0.2904  -0.2865  -0.2659  -0.2419
 -0.2391  -0.2294  -0.2223  -0.1584

 Beta MOs
 -- Occupied --
-19.1353 -19.1350 -19.0698 -19.0696 -10.2179 -10.2176 -10.2126 -10.2120
-10.2030 -10.2030 -10.1700 -10.1659 -10.1640 -10.1599 -10.1557 -10.1554
-10.1551 -10.1500  -1.0593  -1.0403  -0.9854  -0.9829  -0.8257  -0.8045
 -0.7694  -0.7332  -0.7022  -0.6955  -0.6856  -0.6632  -0.6370  -0.6229
 -0.5597  -0.5558  -0.5178  -0.5072  -0.4928  -0.4837  -0.4631  -0.4531
 -0.4423  -0.4377  -0.4354  -0.4320  -0.4252  -0.4133  -0.4056  -0.4028
 -0.3864  -0.3816  -0.3779  -0.3720  -0.3646  -0.3621  -0.3556  -0.3531
 -0.3450  -0.3392  -0.3328  -0.3252  -0.2875  -0.2830  -0.2428  -0.2360
 -0.2340  -0.2256  -0.2168

          Ground-State Mulliken Net Atomic Charges

     Atom                 Charge (a.u.)    Spin (a.u.)
  --------------------------------------------------------
      1 C                    -0.424421       0.100077
      2 C                     0.813491       0.072034
      3 C                     0.635939       0.084344
      4 C                    -0.633211       0.094394
      5 C                    -0.327285       0.075055
      6 C                    -0.150132       0.073455
      7 O                    -0.493984       0.232885
      8 O                    -0.511865       0.237693
      9 O                    -0.211988       0.000597
     10 O                    -0.208406       0.000624
     11 C                    -0.266041       0.001627
     12 C                    -0.280312       0.002182
     13 C                    -0.635783       0.002494
     14 C                     0.299730       0.012839
     15 C                    -0.694075      -0.007706
     16 C                     0.445400       0.008966
     17 C                    -0.707067      -0.001440
     18 C                    -0.638971       0.001497
     19 H                     0.165824      -0.000383
     20 H                     0.146562       0.000779
     21 H                     0.163937       0.000626
     22 H                     0.164604       0.000751
     23 H                     0.170371      -0.000427
     24 H                     0.146108       0.000533
     25 H                     0.178134       0.003577
     26 H                     0.177407       0.004542
     27 H                     0.179140      -0.001842
     28 H                     0.195408       0.002114
     29 H                     0.191329      -0.000043
     30 H                     0.205142      -0.002541
     31 H                     0.130970       0.000297
     32 H                     0.156673       0.000144
     33 H                     0.155867      -0.000115
     34 H                     0.156610       0.000125
     35 H                     0.148830      -0.000013
     36 H                     0.156066       0.000260
  --------------------------------------------------------
  Sum of atomic charges =    -1.000000

                    Cartesian Multipole Moments
 -----------------------------------------------------------------
    Charge (ESU x 10^10)
                -4.8032
    Dipole Moment (Debye)
         X       3.5588      Y      -5.9271      Z      -0.5439
       Tot       6.9348
    Quadrupole Moments (Debye-Ang)
        XX    -122.1254     XY      21.5305     YY    -143.0598
        XZ       6.0787     YZ      -9.0297     ZZ    -111.5134

 Total job time:  83.57s(wall), 524.85s(cpu)
        *  Thank you very much for using Q-Chem.  Have a nice day.  *
