 Q-Chem 5.4, Q-Chem, Inc., Pleasanton, CA (2021)
 Q-Chem 5.4.0 for Intel X86 EM64T Linux

User input:
--------------------------------------------------------------
$molecule
-2 1
C                 -4.1724830000      3.5187030000      1.5292550000
C                 -4.6892190000      3.6661470000      0.2598200000
C                 -4.0879320000      3.0109170000     -0.8425750000
C                 -2.9744450000      2.2103490000     -0.6156410000
C                 -2.4179170000      2.0225220000      0.6571600000
C                 -3.0398780000      2.6974390000      1.7777240000
C                 -2.5261960000      2.5374460000      3.1037640000
C                 -1.3802720000      1.6962310000      3.2206750000
C                 -0.7591300000      1.0441520000      2.1627580000
C                 -1.2324560000      1.1637680000      0.8200450000
O                 -2.9923190000      3.0868780000      4.1934610000
O                 -0.6813640000      0.5728130000     -0.1707580000
O                 -0.9238960000      1.5860870000      4.5165120000
O                 -5.8498180000      4.4325510000      0.1302060000
C                 -6.0667530000      5.0836860000     -1.1070360000
H                 -4.6382750000      4.0242670000      2.3675760000
H                 -4.4828450000      3.1262480000     -1.8452180000
H                 -2.4920750000      1.6929530000     -1.4396000000
H                  0.1131670000      0.4221670000      2.3460330000
H                 -1.5846760000      2.1715160000      4.9674300000
H                 -6.9148620000      5.7591990000     -0.9694570000
H                 -6.3215320000      4.3819250000     -1.9122990000
H                 -5.1900740000      5.6726250000     -1.4177340000
$end
$rem
MAX_SCF_CYCLES=200
BASIS  =  6-311++G(d,p)
GUI  =  2
JOB_TYPE  =  SP
METHOD  =  B3LYP
SOLVENT_METHOD = PCM
$end
$pcm
theory = CPCM
$end
$solvent
dielectric 37.219
opticaldielectric 1.43
$end

--------------------------------------------------------------

             Standard Nuclear Orientation (Angstroms)
    I     Atom           X                Y                Z
 ----------------------------------------------------------------
    1      C      -4.1724830000     3.5187030000     1.5292550000
    2      C      -4.6892190000     3.6661470000     0.2598200000
    3      C      -4.0879320000     3.0109170000    -0.8425750000
    4      C      -2.9744450000     2.2103490000    -0.6156410000
    5      C      -2.4179170000     2.0225220000     0.6571600000
    6      C      -3.0398780000     2.6974390000     1.7777240000
    7      C      -2.5261960000     2.5374460000     3.1037640000
    8      C      -1.3802720000     1.6962310000     3.2206750000
    9      C      -0.7591300000     1.0441520000     2.1627580000
   10      C      -1.2324560000     1.1637680000     0.8200450000
   11      O      -2.9923190000     3.0868780000     4.1934610000
   12      O      -0.6813640000     0.5728130000    -0.1707580000
   13      O      -0.9238960000     1.5860870000     4.5165120000
   14      O      -5.8498180000     4.4325510000     0.1302060000
   15      C      -6.0667530000     5.0836860000    -1.1070360000
   16      H      -4.6382750000     4.0242670000     2.3675760000
   17      H      -4.4828450000     3.1262480000    -1.8452180000
   18      H      -2.4920750000     1.6929530000    -1.4396000000
   19      H       0.1131670000     0.4221670000     2.3460330000
   20      H      -1.5846760000     2.1715160000     4.9674300000
   21      H      -6.9148620000     5.7591990000    -0.9694570000
   22      H      -6.3215320000     4.3819250000    -1.9122990000
   23      H      -5.1900740000     5.6726250000    -1.4177340000
 ----------------------------------------------------------------

    9    -725.3342069442      3.43e-06  Convergence criterion met
 Total energy in the final basis set =     -725.3342069442

                    Orbital Energies (a.u.)
 --------------------------------------------------------------

 Alpha MOs
 -- Occupied --
-19.1369 -19.1142 -19.0281 -19.0255 -10.2105 -10.2072 -10.1819 -10.1809
-10.1624 -10.1517 -10.1480 -10.1436 -10.1419 -10.1358 -10.1192  -1.0455
 -1.0271  -0.9456  -0.9309  -0.8283  -0.7654  -0.7351  -0.7092  -0.6763
 -0.6371  -0.5944  -0.5726  -0.5411  -0.5144  -0.4954  -0.4586  -0.4540
 -0.4510  -0.4452  -0.4127  -0.4038  -0.3960  -0.3910  -0.3748  -0.3688
 -0.3582  -0.3558  -0.3385  -0.3320  -0.3195  -0.3105  -0.3040  -0.2825
 -0.2317  -0.2179  -0.2169  -0.2040  -0.1978  -0.1122

          Ground-State Mulliken Net Atomic Charges

     Atom                 Charge (a.u.)
  ----------------------------------------
      1 C                    -0.371435
      2 C                    -0.488729
      3 C                     0.152278
      4 C                    -0.040226
      5 C                     0.347015
      6 C                     0.416676
      7 C                    -0.850455
      8 C                    -0.199040
      9 C                     0.450451
     10 C                    -0.473018
     11 O                    -0.754528
     12 O                    -0.696760
     13 O                    -0.366586
     14 O                    -0.226407
     15 C                    -0.332355
     16 H                     0.166112
     17 H                     0.201048
     18 H                     0.144214
     19 H                     0.154208
     20 H                     0.285163
     21 H                     0.169543
     22 H                     0.149347
     23 H                     0.163485
  ----------------------------------------
  Sum of atomic charges =    -2.000000

                    Cartesian Multipole Moments
 -----------------------------------------------------------------
    Charge (ESU x 10^10)
                -9.6064
    Dipole Moment (Debye)
         X      18.7236      Y     -17.6129      Z     -20.5784
       Tot      32.9281
    Quadrupole Moments (Debye-Ang)
        XX    -153.3909     XY      47.6619     YY    -140.3374
        XZ      56.5099     YZ     -57.8319     ZZ    -170.5200

 Total job time:  188.74s(wall), 217.58s(cpu)
        *  Thank you very much for using Q-Chem.  Have a nice day.  *
