 Q-Chem 5.4, Q-Chem, Inc., Pleasanton, CA (2021)
 Q-Chem 5.4.0 for Intel X86 EM64T Linux

User input:
--------------------------------------------------------------
$molecule
-2 1
C                  1.8198350000      0.9016420000     -0.9106720000
C                  0.6110830000      1.3504190000     -0.2987200000
C                 -0.3853440000      0.4897630000      0.2062670000
C                 -0.2672530000     -0.9319410000      0.2484850000
C                  0.9633200000     -1.3875710000     -0.3587070000
C                  1.9344690000     -0.5394090000     -0.8815620000
O                  2.7024300000      1.6515440000     -1.4723220000
O                 -1.1079140000     -1.7410520000      0.7920310000
O                  3.0336290000     -1.1267680000     -1.5114340000
C                  4.2814150000     -0.7704520000     -0.9405950000
Br                 0.3207580000      3.2801900000     -0.4158450000
Br                -1.9619270000      1.1916770000      1.1248460000
H                  4.3975680000      0.3179580000     -0.9337540000
H                  5.0565820000     -1.2298670000     -1.5667710000
H                  4.3706530000     -1.1709370000      0.0826620000
O                  1.2498720000     -2.7538120000     -0.3242850000
C                  0.3173650000     -3.5547340000     -1.0305220000
H                 -0.6947250000     -3.3803310000     -0.6518110000
H                  0.6094100000     -4.5991410000     -0.8633080000
H                  0.3625430000     -3.3440890000     -2.1117210000
$end
$rem
MAX_SCF_CYCLES=200
BASIS  =  6-311++G(d,p)
GUI  =  2
JOB_TYPE  =  SP
METHOD  =  B3LYP
SOLVENT_METHOD = COSMO
$end
$solvent
dielectric 37.219
opticaldielectric 1.43
$end

--------------------------------------------------------------

             Standard Nuclear Orientation (Angstroms)
    I     Atom           X                Y                Z
 ----------------------------------------------------------------
    1      C       0.7050477066    -1.5030725943     0.0782788853
    2      C      -0.4764754856    -0.7049363550     0.0154383444
    3      C      -0.4764931085     0.7048999891    -0.0156883217
    4      C       0.7049920216     1.5030844834    -0.0786526586
    5      C       1.9030442903     0.6951216593    -0.0290788094
    6      C       1.9030670959    -0.6950267825     0.0290057724
    7      O       0.7424816553    -2.7829173394     0.2100885741
    8      O       0.7423371653     2.7829548668    -0.2103755622
    9      O       3.1370715323    -1.3361090174     0.1560044173
   10      C       3.4179941916    -2.2540823888    -0.8871616799
   11      Br     -2.1387687543    -1.7154959705     0.2092767723
   12      Br     -2.1388712246     1.7154155381    -0.2091874764
   13      H       2.6200266043    -2.9997862177    -0.9602929036
   14      H       4.3679107883    -2.7401164854    -0.6312872588
   15      H       3.5383389698    -1.7273673786    -1.8481481399
   16      O       3.1370980654     1.3361855580    -0.1558058822
   17      C       3.4177873291     2.2542551929     0.8873516984
   18      H       2.6201203982     3.0003403761     0.9598014249
   19      H       4.3681516409     2.7396898644     0.6320134132
   20      H       3.5371592635     1.7276832065     1.8485363476
 ----------------------------------------------------------------

   10   -5757.7561531328      8.65e-06  Convergence criterion met
 Total energy in the final basis set =    -5757.7561531328
    5   -5758.0356105753      8.40e-06  Convergence criterion met
 Total energy in the final basis set =    -5758.0356105753

                    Orbital Energies (a.u.)
 --------------------------------------------------------------

 Alpha MOs
 -- Occupied --
********-482.8094 -62.4622 -62.4622 -56.2825 -56.2825 -56.2790 -56.2790
-56.2787 -56.2787 -19.1222 -19.1222 -19.0335 -19.0335 -10.1965 -10.1965
-10.1948 -10.1942 -10.1936 -10.1931 -10.1921 -10.1921  -8.6709  -8.6709
 -6.5016  -6.5016  -6.4901  -6.4901  -6.4892  -6.4892  -2.6128  -2.6127
 -2.6094  -2.6094  -2.6088  -2.6087  -2.5997  -2.5997  -2.5997  -2.5997
 -1.0428  -1.0245  -0.9516  -0.9486  -0.8244  -0.7709  -0.7672  -0.7056
 -0.6893  -0.6483  -0.6391  -0.5574  -0.5482  -0.4956  -0.4746  -0.4673
 -0.4508  -0.4311  -0.4253  -0.4130  -0.4047  -0.3815  -0.3802  -0.3591
 -0.3565  -0.3369  -0.3346  -0.3332  -0.3047  -0.2889  -0.2848  -0.2715
 -0.2701  -0.2585  -0.2367  -0.2127  -0.2121  -0.2026  -0.1381

          Ground-State Mulliken Net Atomic Charges

     Atom                 Charge (a.u.)
  ----------------------------------------
      1 C                    -0.461190
      2 C                     0.436999
      3 C                     0.436637
      4 C                    -0.462460
      5 C                    -0.067300
      6 C                    -0.060893
      7 O                    -0.650362
      8 O                    -0.650382
      9 O                    -0.215511
     10 C                    -0.275126
     11 Br                   -0.235991
     12 Br                   -0.236052
     13 H                     0.176742
     14 H                     0.154640
     15 H                     0.134446
     16 O                    -0.214830
     17 C                    -0.274994
     18 H                     0.176679
     19 H                     0.154583
     20 H                     0.134365
  ----------------------------------------
  Sum of atomic charges =    -2.000000

                    Cartesian Multipole Moments
 -----------------------------------------------------------------
    Charge (ESU x 10^10)
                -9.6064
    Dipole Moment (Debye)
         X      -3.1277      Y      -0.0005      Z       0.0005
       Tot       3.1277
    Quadrupole Moments (Debye-Ang)
        XX    -136.5996     XY       0.0011     YY    -171.1020
        XZ      -0.0029     YZ      10.3611     ZZ    -114.6895

 Total job time:  47.61s(wall), 354.31s(cpu)
        *  Thank you very much for using Q-Chem.  Have a nice day.  *
