 Gaussian 16, Revision A.03,
 Gaussian 16:  ES64L-G16RevA.03 25-Dec-2016

 --------------------------------------
 #P UB3LYP/6-311++G(d,p) nosym opt freq
 --------------------------------------

 -------
 Radical
 -------
 Symbolic Z-matrix:
 Charge = -1 Multiplicity = 2

 SCF Done:  E(UB3LYP) =  -613.980553204     A.U. after   23 cycles
 SCF Done:  E(UB3LYP) =  -613.980552321     A.U. after   11 cycles
 SCF Done:  E(UB3LYP) =  -613.980553992     A.U. after   10 cycles
 SCF Done:  E(UB3LYP) =  -613.980553413     A.U. after   10 cycles
 SCF Done:  E(UB3LYP) =  -613.980561398     A.U. after   13 cycles
 SCF Done:  E(UB3LYP) =  -613.949352279     A.U. after   20 cycles
 SCF Done:  E(UB3LYP) =  -613.980948044     A.U. after   17 cycles
 SCF Done:  E(UB3LYP) =  -613.979797287     A.U. after   16 cycles
 SCF Done:  E(UB3LYP) =  -613.981437911     A.U. after   15 cycles
 SCF Done:  E(UB3LYP) =  -613.981857312     A.U. after   16 cycles
 SCF Done:  E(UB3LYP) =  -613.982002955     A.U. after   14 cycles
 SCF Done:  E(UB3LYP) =  -613.982028322     A.U. after   15 cycles
 SCF Done:  E(UB3LYP) =  -613.982033794     A.U. after   12 cycles
 SCF Done:  E(UB3LYP) =  -613.982034627     A.U. after   11 cycles
 SCF Done:  E(UB3LYP) =  -613.982034834     A.U. after   11 cycles
 SCF Done:  E(UB3LYP) =  -613.982034862     A.U. after    9 cycles
 Optimization completed.
    -- Stationary point found.
 Normal termination of Gaussian 16 at Mon Jan 15 17:22:55 2024.

 ----------------------------------------------------------------------
 #P Geom=AllCheck Guess=TCheck SCRF=Check GenChk UB3LYP/6-311++G(d,p) F
 req
 ----------------------------------------------------------------------

 Structure from the checkpoint file:  "244-rad.chk"
 -------
 Radical
 -------
 Charge = -1 Multiplicity = 2

                          Input orientation:
 ---------------------------------------------------------------------
 Center     Atomic      Atomic             Coordinates (Angstroms)
 Number     Number       Type             X           Y           Z
 ---------------------------------------------------------------------
      1          6           0        5.760105   -5.294438    1.261446
      2          6           0        6.694477   -5.148135    0.241736
      3          6           0        6.575173   -4.151791   -0.740908
      4          6           0        4.642550   -4.404431    1.313148
      5          6           0        4.529844   -3.393891    0.308926
      6          6           0        5.501791   -3.286519   -0.702462
      7          6           0        3.612955   -4.502957    2.367555
      8          6           0        2.524366   -3.547227    2.320450
      9          6           0        2.442532   -2.583726    1.339619
     10          6           0        3.406552   -2.435186    0.290529
     11          8           0        3.653406   -5.373025    3.284312
     12          8           0        3.311320   -1.544649   -0.598287
     13          6           0        5.986898   -6.401946    2.267545
     14          1           0        7.541036   -5.829169    0.209946
     15          6           0        1.479751   -3.656016    3.399824
     16          1           0        1.613529   -1.879837    1.330092
     17          1           0        5.367288   -2.502400   -1.438448
     18          1           0        7.325399   -4.068396   -1.522232
     19          1           0        6.905679   -6.943676    2.016220
     20          1           0        5.150830   -7.103313    2.291174
     21          1           0        6.065467   -6.013388    3.284608
     22          1           0        1.008060   -4.644695    3.392284
     23          1           0        0.706462   -2.892758    3.273946
     24          1           0        1.928174   -3.547420    4.393381
 ---------------------------------------------------------------------

 SCF Done:  E(UB3LYP) =  -613.982034862     A.U. after    1 cycles

 Alpha  occ. eigenvalues --  -18.93510 -18.93339 -10.08397 -10.08130 -10.05949
 Alpha  occ. eigenvalues --  -10.04910 -10.04656 -10.04589 -10.04082 -10.03938
 Alpha  occ. eigenvalues --  -10.03937 -10.03909 -10.03909 -10.02476  -0.86029
 Alpha  occ. eigenvalues --   -0.85555  -0.73063  -0.68065  -0.64564  -0.62647
 Alpha  occ. eigenvalues --   -0.57234  -0.56386  -0.52328  -0.48099  -0.46493
 Alpha  occ. eigenvalues --   -0.41033  -0.37952  -0.36608  -0.34088  -0.32178
 Alpha  occ. eigenvalues --   -0.30320  -0.30249  -0.28857  -0.28177  -0.27577
 Alpha  occ. eigenvalues --   -0.26072  -0.25951  -0.25912  -0.25451  -0.23773
 Alpha  occ. eigenvalues --   -0.22911  -0.21856  -0.21511  -0.20856  -0.13661
 Alpha  occ. eigenvalues --   -0.12057  -0.11764  -0.10131  -0.09510  -0.01370
 Alpha virt. eigenvalues --    0.08473   0.09379   0.09764   0.09899   0.11001
 Alpha virt. eigenvalues --    0.11575   0.11979   0.12827   0.13430   0.13577
 Alpha virt. eigenvalues --    0.14525   0.15108   0.16639   0.16810   0.17685

  Beta  occ. eigenvalues --  -18.92845 -18.92680 -10.08253 -10.08019 -10.05948
  Beta  occ. eigenvalues --  -10.04860 -10.04617 -10.04543 -10.04006 -10.03942
  Beta  occ. eigenvalues --  -10.03940 -10.03908 -10.03756 -10.02351  -0.84883
  Beta  occ. eigenvalues --   -0.84404  -0.72884  -0.67568  -0.64457  -0.62442
  Beta  occ. eigenvalues --   -0.56946  -0.56172  -0.51716  -0.47815  -0.46261
  Beta  occ. eigenvalues --   -0.40788  -0.37767  -0.36390  -0.33891  -0.32031
  Beta  occ. eigenvalues --   -0.30022  -0.29768  -0.28715  -0.28055  -0.27302
  Beta  occ. eigenvalues --   -0.25922  -0.25754  -0.25079  -0.24930  -0.23567
  Beta  occ. eigenvalues --   -0.21679  -0.20655  -0.20577  -0.20363  -0.11571
  Beta  occ. eigenvalues --   -0.11293  -0.10394  -0.09516  -0.08904
  Beta virt. eigenvalues --    0.05269   0.08471   0.09374   0.09895   0.10400
  Beta virt. eigenvalues --    0.11574   0.11981   0.12012   0.12963   0.13436
  Beta virt. eigenvalues --    0.13570   0.14654   0.15101   0.16689   0.16824

 Mulliken charges and spin densities:
               1          2
     1  C    0.658786   0.012311
     2  C   -0.519623   0.023804
     3  C   -0.330901   0.039312
     4  C    0.586370   0.025637
     5  C    0.639035   0.072565
     6  C   -0.108883   0.010269
     7  C   -1.041268   0.094809
     8  C    0.736217   0.087247
     9  C   -0.320535   0.092506
    10  C   -1.024402   0.051366
    11  O   -0.359341   0.246832
    12  O   -0.396488   0.240098
    13  C   -0.489348   0.005652
    14  H    0.065064  -0.002984
    15  C   -0.343144   0.004350
    16  H    0.108272  -0.009752
    17  H    0.153828  -0.002014
    18  H    0.131023  -0.002861
    19  H    0.104817  -0.000539
    20  H    0.158921  -0.000293
    21  H    0.158864  -0.000291
    22  H    0.153692   0.006066
    23  H    0.125341  -0.000156
    24  H    0.153704   0.006066
 Sum of Mulliken charges =  -1.00000   1.00000

 Dipole moment (field-independent basis, Debye):
    X=            -18.3183    Y=             16.9799    Z=             -5.3889  Tot=             25.5523
 Quadrupole moment (field-independent basis, Debye-Ang):
   XX=           -162.6548   YY=           -165.3157   ZZ=           -111.3565
   XY=             68.2851   XZ=            -20.3733   YZ=             34.3336

  Exact polarizability: 185.917 -41.330 161.058 -43.374 -40.502 173.735
 Approx polarizability: 274.277 -58.984 271.303 -58.083 -88.880 291.611

                      1                      2                      3
                      A                      A                      A
 Frequencies --     69.8817                74.8040               125.2133
 Red. masses --      4.3584                 4.3457                 1.0803
 Frc consts  --      0.0125                 0.0143                 0.0100
 IR Inten    --      5.0773                 3.1158                 0.0824

                      4                      5                      6
                      A                      A                      A
 Frequencies --    169.7990               194.1928               218.5823
 Red. masses --      4.9173                 1.4193                 1.8872
 Frc consts  --      0.0835                 0.0315                 0.0531
 IR Inten    --      1.4144                 1.2358                 0.1734

                      7                      8                      9
                      A                      A                      A
 Frequencies --    244.6128               250.5318               313.1250
 Red. masses --      3.3968                 3.6743                 4.5308
 Frc consts  --      0.1198                 0.1359                 0.2617
 IR Inten    --      2.6337                 0.7843                 0.0389

                     10                     11                     12
                      A                      A                      A
 Frequencies --    365.4423               369.4500               379.0714
 Red. masses --      3.7261                 4.8257                10.4364
 Frc consts  --      0.2932                 0.3881                 0.8836
 IR Inten    --      4.5271                 0.0730                 7.9129

                     13                     14                     15
                      A                      A                      A
 Frequencies --    412.5081               473.4707               486.2738
 Red. masses --      5.6058                 6.1907                 3.8067
 Frc consts  --      0.5620                 0.8177                 0.5304
 IR Inten    --      1.4488                 1.4541                 0.0501

                     16                     17                     18
                      A                      A                      A
 Frequencies --    516.0314               526.6838               566.2517
 Red. masses --      3.8153                 6.7644                 5.0387
 Frc consts  --      0.5986                 1.1056                 0.9519
 IR Inten    --      2.1372                 1.4130                 3.5470

                     19                     20                     21
                      A                      A                      A
 Frequencies --    664.5663               674.3519               695.3574
 Red. masses --      4.3216                 3.7738                 3.0905
 Frc consts  --      1.1245                 1.0111                 0.8804
 IR Inten    --      1.1616                 0.4414                14.3860

                     22                     23                     24
                      A                      A                      A
 Frequencies --    708.6380               775.1618               798.7249
 Red. masses --      6.3192                 1.5711                 4.6665
 Frc consts  --      1.8697                 0.5562                 1.7540
 IR Inten    --     21.2206                33.3914                 2.3407

                     25                     26                     27
                      A                      A                      A
 Frequencies --    806.1222               868.0136               888.2384
 Red. masses --      3.9483                 1.5197                 4.7894
 Frc consts  --      1.5117                 0.6746                 2.2263
 IR Inten    --      9.1609                18.1936                 8.7785

                     28                     29                     30
                      A                      A                      A
 Frequencies --    893.7030               968.5636               979.3161
 Red. masses --      1.3586                 3.1242                 1.2938
 Frc consts  --      0.6393                 1.7268                 0.7311
 IR Inten    --      0.0570                12.7687                 1.4610

                     31                     32                     33
                      A                      A                      A
 Frequencies --   1020.9001              1030.6690              1046.8883
 Red. masses --      1.6646                 1.7072                 1.4855
 Frc consts  --      1.0222                 1.0685                 0.9593
 IR Inten    --      9.7001                11.0438                 1.0435

                     34                     35                     36
                      A                      A                      A
 Frequencies --   1054.0210              1095.9412              1158.2708
 Red. masses --      1.5277                 2.1162                 1.4595
 Frc consts  --      1.0000                 1.4975                 1.1536
 IR Inten    --      1.4036                20.5917                 8.4912

                     37                     38                     39
                      A                      A                      A
 Frequencies --   1164.3377              1182.9802              1215.6286
 Red. masses --      2.7712                 2.3944                 3.7100
 Frc consts  --      2.2135                 1.9743                 3.2302
 IR Inten    --      0.1869                29.1251                17.3650

                     40                     41                     42
                      A                      A                      A
 Frequencies --   1252.2929              1285.9425              1334.9920
 Red. masses --      2.2237                 1.9601                 8.0054
 Frc consts  --      2.0546                 1.9098                 8.4060
 IR Inten    --      9.3634                 5.7927                 8.5860

                     43                     44                     45
                      A                      A                      A
 Frequencies --   1392.5031              1407.6191              1415.3394
 Red. masses --      1.4134                 2.7049                 1.3113
 Frc consts  --      1.6148                 3.1577                 1.5477
 IR Inten    --     17.7883                26.9798                 2.5268

                     46                     47                     48
                      A                      A                      A
 Frequencies --   1416.1789              1456.5154              1463.5988
 Red. masses --      2.6399                 3.0932                 1.0464
 Frc consts  --      3.1194                 3.8662                 1.3206
 IR Inten    --     28.0473               170.3599                 0.1385

                     49                     50                     51
                      A                      A                      A
 Frequencies --   1464.0971              1477.9292              1485.1726
 Red. masses --      1.0465                 1.2495                 1.2392
 Frc consts  --      1.3217                 1.6081                 1.6104
 IR Inten    --      9.0755                 8.5631                 7.2184

                     52                     53                     54
                      A                      A                      A
 Frequencies --   1513.4586              1535.1527              1564.2952
 Red. masses --      5.2359                 4.3775                 5.4515
 Frc consts  --      7.0661                 6.0783                 7.8597
 IR Inten    --     13.8206               386.7253               112.9286

                     55                     56                     57
                      A                      A                      A
 Frequencies --   1613.5125              1629.8548              3006.0725
 Red. masses --      5.6548                 6.9411                 1.0343
 Frc consts  --      8.6738                10.8637                 5.5070
 IR Inten    --      0.7703                 6.3522               103.0955

                     58                     59                     60
                      A                      A                      A
 Frequencies --   3010.5057              3047.5258              3077.1364
 Red. masses --      1.0449                 1.0987                 1.1024
 Frc consts  --      5.5798                 6.0121                 6.1499
 IR Inten    --     88.2801                34.6627                26.3280

                     61                     62                     63
                      A                      A                      A
 Frequencies --   3085.2753              3093.7870              3124.9758
 Red. masses --      1.0910                 1.0990                 1.0850
 Frc consts  --      6.1188                 6.1975                 6.2426
 IR Inten    --     16.8564                16.0485                29.2538

                     64                     65                     66
                      A                      A                      A
 Frequencies --   3132.3096              3146.6432              3183.6593
 Red. masses --      1.0887                 1.0920                 1.0920
 Frc consts  --      6.2932                 6.3701                 6.5213
 IR Inten    --     42.5545                60.7168                17.0108

 - Thermochemistry -
 -------------------
 Temperature   298.150 Kelvin.  Pressure   1.00000 Atm.
 Atom     1 has atomic number  6 and mass  12.00000

 Molecular mass:   186.06808 amu.
 Principal axes and moments of inertia in atomic units:
                           1         2         3
     Eigenvalues --  1914.582612435.460494328.21789
           X            0.84641  -0.07899   0.52665
           Y           -0.32479   0.70714   0.62806
           Z           -0.42203  -0.70265   0.57287
 This molecule is an asymmetric top.
 Rotational symmetry number  1.
 Warning -- assumption of classical behavior for rotation
           may cause significant error
 Rotational temperatures (Kelvin)      0.04524     0.03556     0.02001
 Rotational constants (GHZ):           0.94263     0.74103     0.41697
 Zero-point vibrational energy     484862.4 (Joules/Mol)
                                  115.88490 (Kcal/Mol)
 Warning -- explicit consideration of  18 degrees of freedom as
           vibrations may cause significant error
 Vibrational temperatures:    100.54   107.63   180.15   244.30   279.40
          (Kelvin)            314.49   351.94   360.46   450.52   525.79
                              531.56   545.40   593.51   681.22   699.64
                              742.45   757.78   814.71   956.16   970.24
                             1000.46  1019.57  1115.28  1149.19  1159.83
                             1248.88  1277.98  1285.84  1393.55  1409.02
                             1468.85  1482.90  1506.24  1516.50  1576.81
                             1666.49  1675.22  1702.04  1749.02  1801.77
                             1850.18  1920.76  2003.50  2025.25  2036.36
                             2037.57  2095.60  2105.79  2106.51  2126.41
                             2136.83  2177.53  2208.74  2250.67  2321.48
                             2345.00  4325.07  4331.45  4384.71  4427.31
                             4439.02  4451.27  4496.14  4506.69  4527.32
                             4580.58

 Zero-point correction=                           0.184674 (Hartree/Particle)
 Thermal correction to Energy=                    0.196563
 Thermal correction to Enthalpy=                  0.197507
 Thermal correction to Gibbs Free Energy=         0.146348
 Sum of electronic and zero-point Energies=           -613.797361
 Sum of electronic and thermal Energies=              -613.785472
 Sum of electronic and thermal Enthalpies=            -613.784528
 Sum of electronic and thermal Free Energies=         -613.835687

                     E (Thermal)             CV                S
                      KCal/Mol        Cal/Mol-Kelvin    Cal/Mol-Kelvin
 Total                  123.345             46.573            107.672
 Electronic               0.000              0.000              1.377
 Translational            0.889              2.981             41.569
 Rotational               0.889              2.981             31.379
 Vibrational            121.567             40.611             33.347
 Vibration     1          0.598              1.968              4.157
 Vibration     2          0.599              1.966              4.023
 Vibration     3          0.610              1.928              3.018
 Vibration     4          0.625              1.880              2.438
 Vibration     5          0.635              1.848              2.187
 Vibration     6          0.646              1.813              1.971
 Vibration     7          0.660              1.772              1.769
 Vibration     8          0.663              1.762              1.727
 Vibration     9          0.701              1.649              1.346
 Vibration    10          0.739              1.543              1.099
 Vibration    11          0.742              1.535              1.082
 Vibration    12          0.749              1.515              1.043
 Vibration    13          0.776              1.443              0.918
 Vibration    14          0.830              1.309              0.728
 Vibration    15          0.842              1.280              0.693
 Vibration    16          0.871              1.214              0.619
 Vibration    17          0.882              1.191              0.595
 Vibration    18          0.922              1.104              0.511

 Optimization completed.
    -- Stationary point found.
 Normal termination of Gaussian 16 at Mon Jan 15 17:40:49 2024.
