 Gaussian 16, Revision A.03,
 Gaussian 16:  ES64L-G16RevA.03 25-Dec-2016

 ----------------------------------------------------------------
 #P UB3LYP/6-311++G(d,p) SCRF=(PCM,Solvent=n,n-DiMethylFormamide)
 ----------------------------------------------------------------

 ------------------
 Radical PCM in DMF
 ------------------
 Symbolic Z-matrix:
 Charge = -1 Multiplicity = 2

                         Standard orientation:
 ---------------------------------------------------------------------
 Center     Atomic      Atomic             Coordinates (Angstroms)
 Number     Number       Type             X           Y           Z
 ---------------------------------------------------------------------
      1          6           0        1.664833   -1.043462   -0.000004
      2          6           0        2.838986   -0.298057   -0.000194
      3          6           0        2.829985    1.106380   -0.000181
      4          6           0        0.408468   -0.361360    0.000043
      5          6           0        0.409563    1.067749    0.000086
      6          6           0        1.624630    1.776783    0.000000
      7          6           0       -0.876432   -1.089768   -0.000031
      8          6           0       -2.087856   -0.294081   -0.000054
      9          6           0       -2.055257    1.082871    0.000104
     10          6           0       -0.844324    1.848137    0.000101
     11          8           0       -0.947291   -2.352336   -0.000007
     12          8           0       -0.838273    3.109914    0.000089
     13          6           0        1.790955   -2.551553    0.000209
     14          1           0        3.789799   -0.824778   -0.000305
     15          6           0       -3.392687   -1.046090   -0.000182
     16          1           0       -2.981169    1.653382    0.000145
     17          1           0        1.567395    2.859065    0.000020
     18          1           0        3.767979    1.654494   -0.000298
     19          1           0        2.850457   -2.831283   -0.000138
     20          1           0        1.300846   -2.997764   -0.867070
     21          1           0        1.301749   -2.997327    0.868271
     22          1           0       -3.468046   -1.702615   -0.873870
     23          1           0       -4.241548   -0.356293   -0.000165
     24          1           0       -3.468129   -1.702797    0.873361
 ---------------------------------------------------------------------

 SCF Done:  E(UB3LYP) =  -614.058812922     A.U. after   18 cycles

 The electronic state is 2-A.
 Alpha  occ. eigenvalues --  -19.07066 -19.06909 -10.21592 -10.21589 -10.18120
 Alpha  occ. eigenvalues --  -10.17267 -10.16868 -10.16852 -10.16783 -10.16510
 Alpha  occ. eigenvalues --  -10.16309 -10.15515 -10.15320 -10.15276  -0.99522
 Alpha  occ. eigenvalues --   -0.99269  -0.85510  -0.80781  -0.76722  -0.74953
 Alpha  occ. eigenvalues --   -0.69694  -0.68449  -0.64760  -0.60599  -0.58739
 Alpha  occ. eigenvalues --   -0.53592  -0.50385  -0.49029  -0.46592  -0.44471
 Alpha  occ. eigenvalues --   -0.42787  -0.42727  -0.41097  -0.40598  -0.39995
 Alpha  occ. eigenvalues --   -0.38854  -0.38685  -0.38057  -0.37328  -0.36095
 Alpha  occ. eigenvalues --   -0.36065  -0.34280  -0.34079  -0.33321  -0.26856
 Alpha  occ. eigenvalues --   -0.24552  -0.24354  -0.23837  -0.22923  -0.14674
 Alpha virt. eigenvalues --   -0.02684  -0.01280  -0.00339   0.00673   0.01137
 Alpha virt. eigenvalues --    0.02462   0.02741   0.03057   0.04202   0.04853
 Alpha virt. eigenvalues --    0.04914   0.05412   0.05557   0.06106   0.06855

  Beta  occ. eigenvalues --  -19.06473 -19.06267 -10.21429 -10.21426 -10.18110
  Beta  occ. eigenvalues --  -10.17233 -10.16814 -10.16808 -10.16596 -10.16468
  Beta  occ. eigenvalues --  -10.16301 -10.15528 -10.15275 -10.15219  -0.98455
  Beta  occ. eigenvalues --   -0.98153  -0.85320  -0.80274  -0.76596  -0.74755
  Beta  occ. eigenvalues --   -0.69297  -0.68255  -0.64209  -0.60308  -0.58505
  Beta  occ. eigenvalues --   -0.53317  -0.50191  -0.48794  -0.46351  -0.44342
  Beta  occ. eigenvalues --   -0.42510  -0.41952  -0.40620  -0.40441  -0.39878
  Beta  occ. eigenvalues --   -0.38434  -0.37927  -0.37670  -0.37243  -0.35881
  Beta  occ. eigenvalues --   -0.34117  -0.33829  -0.33192  -0.33167  -0.24334
  Beta  occ. eigenvalues --   -0.23931  -0.23546  -0.23280  -0.22353
  Beta virt. eigenvalues --   -0.08083  -0.01890  -0.00320  -0.00161   0.00678
  Beta virt. eigenvalues --    0.01150   0.02471   0.02751   0.03158   0.04222
  Beta virt. eigenvalues --    0.04860   0.05338   0.05566   0.05999   0.06719

 Mulliken charges and spin densities:
               1          2
     1  C    0.582773   0.018570
     2  C   -0.518617   0.024970
     3  C   -0.414736   0.030731
     4  C    0.549783   0.013367
     5  C    0.578518   0.051995
     6  C   -0.091857   0.025542
     7  C   -0.879318   0.113315
     8  C    0.539470   0.109059
     9  C   -0.387471   0.064233
    10  C   -0.809541   0.092744
    11  O   -0.436112   0.237106
    12  O   -0.500440   0.213302
    13  C   -0.456266   0.005194
    14  H    0.124056  -0.002934
    15  C   -0.315317   0.002783
    16  H    0.144156  -0.008150
    17  H    0.159405  -0.002471
    18  H    0.188562  -0.002137
    19  H    0.144425  -0.000320
    20  H    0.157613   0.000010
    21  H    0.157613   0.000013
    22  H    0.165458   0.006580
    23  H    0.152390  -0.000083
    24  H    0.165452   0.006581
 Sum of Mulliken charges =  -1.00000   1.00000

 Dipole moment (field-independent basis, Debye):
    X=              3.6283    Y=             -3.1062    Z=             -0.0002  Tot=              4.7763
 Quadrupole moment (field-independent basis, Debye-Ang):
   XX=            -85.6601   YY=           -124.0757   ZZ=            -88.1706
   XY=              1.4950   XZ=              0.0003   YZ=             -0.0010

 Normal termination of Gaussian 16 at Sun Jan 21 08:23:20 2024.
