 Gaussian 16, Revision A.03,
 Gaussian 16:  ES64L-G16RevA.03 25-Dec-2016

 ----------------------------------------------------------------
 #P UB3LYP/6-311++G(d,p) SCRF=(PCM,Solvent=n,n-DiMethylFormamide)
 ----------------------------------------------------------------

 ------------------
 Radical PCM in DMF
 ------------------
 Symbolic Z-matrix:
 Charge = -1 Multiplicity = 2

                         Standard orientation:
 ---------------------------------------------------------------------
 Center     Atomic      Atomic             Coordinates (Angstroms)
 Number     Number       Type             X           Y           Z
 ---------------------------------------------------------------------
      1          6           0       -2.256486   -0.322758   -0.786653
      2          6           0       -2.961290   -1.476737   -0.509821
      3          6           0       -2.421548   -2.851659   -0.831204
      4          6           0       -4.289537   -1.430512    0.090460
      5          8           0       -4.965532   -2.475964    0.320986
      6          6           0       -4.818125   -0.110164    0.403929
      7          6           0       -4.105223    1.037473    0.145786
      8          8           0       -4.627397    2.250768    0.541969
      9          6           0       -4.893682    3.173609   -0.510468
     10          6           0       -2.783400    0.994589   -0.460986
     11          8           0       -2.122424    2.052746   -0.680572
     12          8           0       -6.097820    0.000225    0.905483
     13          6           0       -6.299580   -0.567758    2.196402
     14          1           0       -3.101798   -3.602814   -0.428402
     15          1           0       -1.424002   -3.012608   -0.407867
     16          1           0       -2.341558   -3.015387   -1.913756
     17          1           0       -5.661482    2.774073   -1.186788
     18          1           0       -5.277058    4.079131   -0.033812
     19          1           0       -3.982238    3.401921   -1.067167
     20          1           0       -6.066243   -1.634664    2.192494
     21          1           0       -7.355265   -0.417411    2.435306
     22          1           0       -5.686806   -0.047690    2.945143
     23          6           0       -0.880412   -0.341957   -1.412312
     24          6           0        0.260040   -0.258379   -0.379066
     25          6           0        1.652912   -0.229765   -1.017754
     26          6           0        2.796314   -0.136543   -0.000714
     27          6           0        4.190717   -0.102804   -0.637290
     28          6           0        5.333500   -0.007369    0.380199
     29          6           0        6.727491    0.026851   -0.256956
     30          6           0        7.869893    0.123303    0.760464
     31          6           0        9.264030    0.157030    0.123836
     32          6           0       10.398376    0.253984    1.148696
     33          1           0       -0.795426    0.524581   -2.075801
     34          1           0       -0.749427   -1.242729   -2.021478
     35          1           0        0.191081   -1.109514    0.310423
     36          1           0        0.110750    0.646320    0.218604
     37          1           0        1.712628    0.623498   -1.706236
     38          1           0        1.791642   -1.129123   -1.634303
     39          1           0        2.735757   -0.987751    0.690571
     40          1           0        2.657278    0.762446    0.613525
     41          1           0        4.250963    0.748408   -1.328311
     42          1           0        4.329414   -1.002100   -1.252359
     43          1           0        5.273330   -0.858064    1.071823
     44          1           0        5.195053    0.891854    0.994633
     45          1           0        6.787470    0.877462   -0.948658
     46          1           0        6.866152   -0.872731   -0.871222
     47          1           0        7.810813   -0.726812    1.453031
     48          1           0        7.732673    1.023157    1.374575
     49          1           0        9.323836    1.006593   -0.567609
     50          1           0        9.402142   -0.742344   -0.489002
     51          1           0       10.307268    1.161788    1.753920
     52          1           0       11.378517    0.275814    0.662855
     53          1           0       10.385978   -0.600097    1.833645
 ---------------------------------------------------------------------

 SCF Done:  E(UB3LYP) =  -1043.39703845     A.U. after   19 cycles

 The electronic state is 2-A.
 Alpha  occ. eigenvalues --  -19.13296 -19.13277 -19.07224 -19.07133 -10.21576
 Alpha  occ. eigenvalues --  -10.21467 -10.21031 -10.20968 -10.20405 -10.20403
 Alpha  occ. eigenvalues --  -10.16414 -10.16078 -10.16060 -10.15830 -10.15809
 Alpha  occ. eigenvalues --  -10.15786 -10.15758 -10.15707 -10.15636 -10.15534
 Alpha  occ. eigenvalues --  -10.15482 -10.15453 -10.15103  -1.05773  -1.03892
 Alpha  occ. eigenvalues --   -0.99195  -0.98924  -0.82585  -0.80946  -0.79410
 Alpha  occ. eigenvalues --   -0.77540  -0.75940  -0.73476  -0.70890  -0.70038
 Alpha  occ. eigenvalues --   -0.69100  -0.66370  -0.64111  -0.63369  -0.60208
 Alpha  occ. eigenvalues --   -0.57717  -0.57349  -0.56922  -0.55891  -0.55213
 Alpha  occ. eigenvalues --   -0.51360  -0.49370  -0.48342  -0.48201  -0.46688
 Alpha  occ. eigenvalues --   -0.46506  -0.44621  -0.44314  -0.43781  -0.43336
 Alpha  occ. eigenvalues --   -0.43285  -0.42466  -0.42142  -0.41336  -0.41039
 Alpha  occ. eigenvalues --   -0.40476  -0.40212  -0.39052  -0.38577  -0.38310
 Alpha  occ. eigenvalues --   -0.37975  -0.36811  -0.36657  -0.36278  -0.35578
 Alpha  occ. eigenvalues --   -0.35132  -0.34477  -0.34374  -0.33728  -0.33407
 Alpha  occ. eigenvalues --   -0.33211  -0.32444  -0.32108  -0.32017  -0.31802
 Alpha  occ. eigenvalues --   -0.31644  -0.29915  -0.28707  -0.28329  -0.26115
 Alpha  occ. eigenvalues --   -0.23493  -0.23196  -0.22048  -0.15459
 Alpha virt. eigenvalues --   -0.00707  -0.00249   0.00383   0.00653   0.00804
 Alpha virt. eigenvalues --    0.00938   0.01195   0.01486   0.02064   0.02115
 Alpha virt. eigenvalues --    0.02726   0.03032   0.03167   0.03448   0.03601

  Beta  occ. eigenvalues --  -19.13280 -19.13261 -19.06559 -19.06479 -10.21398
  Beta  occ. eigenvalues --  -10.21292 -10.20936 -10.20873 -10.20399 -10.20398
  Beta  occ. eigenvalues --  -10.16311 -10.16078 -10.15959 -10.15830 -10.15809
  Beta  occ. eigenvalues --  -10.15786 -10.15758 -10.15707 -10.15634 -10.15524
  Beta  occ. eigenvalues --  -10.15489 -10.15453 -10.15112  -1.05672  -1.03779
  Beta  occ. eigenvalues --   -0.98061  -0.97792  -0.82143  -0.80915  -0.79351
  Beta  occ. eigenvalues --   -0.77437  -0.75852  -0.73377  -0.70612  -0.69942
  Beta  occ. eigenvalues --   -0.68987  -0.66195  -0.63520  -0.63243  -0.60137
  Beta  occ. eigenvalues --   -0.57693  -0.57331  -0.56918  -0.55593  -0.54936
  Beta  occ. eigenvalues --   -0.51229  -0.49192  -0.48248  -0.48112  -0.46659
  Beta  occ. eigenvalues --   -0.46177  -0.44546  -0.44165  -0.43683  -0.43252
  Beta  occ. eigenvalues --   -0.43125  -0.42392  -0.41930  -0.41264  -0.40808
  Beta  occ. eigenvalues --   -0.39995  -0.39792  -0.38918  -0.38495  -0.38188
  Beta  occ. eigenvalues --   -0.37022  -0.36678  -0.36129  -0.35833  -0.35155
  Beta  occ. eigenvalues --   -0.34406  -0.34062  -0.33800  -0.33459  -0.33248
  Beta  occ. eigenvalues --   -0.33095  -0.32408  -0.32076  -0.31999  -0.31799
  Beta  occ. eigenvalues --   -0.31601  -0.29868  -0.28405  -0.27954  -0.23463
  Beta  occ. eigenvalues --   -0.22957  -0.22593  -0.21442
  Beta virt. eigenvalues --   -0.08370  -0.00613  -0.00228   0.00449   0.00690
  Beta virt. eigenvalues --    0.00853   0.01171   0.01355   0.01962   0.02077
  Beta virt. eigenvalues --    0.02240   0.02898   0.03120   0.03178   0.03491

 Mulliken charges and spin densities:
               1          2
     1  C    1.096544   0.078763
     2  C    0.906297   0.084218
     3  C   -0.595462  -0.000240
     4  C   -0.552725   0.086793
     5  O   -0.491749   0.242085
     6  C   -0.138459   0.077305
     7  C   -0.309191   0.081638
     8  O   -0.201028  -0.000084
     9  C   -0.268268   0.001821
    10  C   -0.704063   0.092324
    11  O   -0.463800   0.240966
    12  O   -0.192842   0.000274
    13  C   -0.266912   0.002646
    14  H    0.178393  -0.001718
    15  H    0.160067   0.003206
    16  H    0.172937   0.004834
    17  H    0.135713   0.000781
    18  H    0.153856   0.000452
    19  H    0.172127  -0.000472
    20  H    0.169928  -0.000632
    21  H    0.160137   0.000734
    22  H    0.135670   0.000539
    23  C   -0.401225   0.004453
    24  C   -0.919135  -0.002488
    25  C   -0.266550   0.006660
    26  C    0.027964  -0.004631
    27  C    0.073273  -0.000129
    28  C   -0.008089  -0.000145
    29  C   -0.242390   0.000112
    30  C   -0.450781   0.000015
    31  C   -0.279255   0.000010
    32  C   -0.692096  -0.000004
    33  H    0.213886   0.002959
    34  H    0.157456  -0.000059
    35  H    0.133420  -0.000572
    36  H    0.200132  -0.002372
    37  H    0.124168   0.000055
    38  H    0.112062  -0.000217
    39  H    0.128404   0.000057
    40  H    0.123085   0.000080
    41  H    0.128876  -0.000009
    42  H    0.130928  -0.000005
    43  H    0.129031  -0.000003
    44  H    0.130460   0.000004
    45  H    0.126595   0.000003
    46  H    0.126123  -0.000004
    47  H    0.123520   0.000000
    48  H    0.123527   0.000000
    49  H    0.130974  -0.000000
    50  H    0.130922   0.000000
    51  H    0.140128  -0.000001
    52  H    0.147408  -0.000000
    53  H    0.140010   0.000000
 Sum of Mulliken charges =  -1.00000   1.00000

 Dipole moment (field-independent basis, Debye):
    X=             18.5716    Y=             -0.0497    Z=              0.0636  Tot=             18.5717
 Quadrupole moment (field-independent basis, Debye-Ang):
   XX=           -235.3734   YY=           -170.2920   ZZ=           -147.5392
   XY=            -15.9640   XZ=              0.7781   YZ=              0.1738

 Normal termination of Gaussian 16 at Wed Jan 24 23:05:32 2024.
