 Gaussian 16, Revision A.03,
 Gaussian 16:  ES64L-G16RevA.03 25-Dec-2016

 ----------------------------------------------------------------
 #P UB3LYP/6-311++G(d,p) SCRF=(PCM,Solvent=n,n-DiMethylFormamide)
 ----------------------------------------------------------------

 ------------------
 Radical PCM in DMF
 ------------------
 Symbolic Z-matrix:
 Charge = -1 Multiplicity = 2

                         Standard orientation:
 ---------------------------------------------------------------------
 Center     Atomic      Atomic             Coordinates (Angstroms)
 Number     Number       Type             X           Y           Z
 ---------------------------------------------------------------------
      1          6           0        2.261324    1.708555   -0.001179
      2          6           0        3.547408    1.199310   -0.001777
      3          6           0        3.734481   -0.201482   -0.001811
      4          6           0        1.128016    0.874050   -0.000695
      5          6           0        1.329665   -0.539805   -0.000761
      6          6           0        2.643431   -1.047806   -0.001258
      7          6           0       -0.204721    1.476926   -0.000062
      8          6           0       -1.329666    0.539806    0.000579
      9          6           0       -1.128017   -0.874048    0.000512
     10          6           0        0.204720   -1.476925   -0.000275
     11          6           0       -2.643431    1.047808    0.001224
     12          6           0       -3.734481    0.201483    0.001922
     13          6           0       -3.547409   -1.199309    0.001890
     14          6           0       -2.261325   -1.708553    0.001149
     15          8           0       -0.375077    2.722763   -0.000010
     16          8           0        0.375076   -2.722761   -0.000068
     17          1           0        2.782255   -2.122017   -0.001220
     18          1           0       -2.090984   -2.779190    0.001067
     19          1           0        2.090982    2.779191   -0.001102
     20          1           0       -2.782256    2.122018    0.001177
     21          8           0       -4.982775    0.802936    0.003067
     22          8           0        4.982775   -0.802937   -0.002805
     23          6           0        6.124643    0.026131    0.004195
     24          6           0       -6.124638   -0.026138   -0.004009
     25          1           0        4.390667    1.878500   -0.002252
     26          1           0       -4.390670   -1.878498    0.002482
     27          1           0        6.985199   -0.644587    0.005676
     28          1           0        6.165622    0.661485    0.898428
     29          1           0        6.173084    0.666694   -0.885961
     30          1           0       -6.985198    0.644577   -0.005455
     31          1           0       -6.173095   -0.666763    0.886101
     32          1           0       -6.165596   -0.661429   -0.898286
 ---------------------------------------------------------------------

 SCF Done:  E(UB3LYP) =  -918.208996872     A.U. after   18 cycles

 The electronic state is 2-A.
 Alpha  occ. eigenvalues --  -19.15508 -19.15508 -19.07304 -19.07303 -10.23498
 Alpha  occ. eigenvalues --  -10.23497 -10.22149 -10.22148 -10.21899 -10.21899
 Alpha  occ. eigenvalues --  -10.17493 -10.17493 -10.17391 -10.17390 -10.17368
 Alpha  occ. eigenvalues --  -10.17368 -10.16814 -10.16813 -10.16578 -10.16577
 Alpha  occ. eigenvalues --   -1.06668  -1.06668  -1.00045  -0.99796  -0.86160
 Alpha  occ. eigenvalues --   -0.85185  -0.78612  -0.76117  -0.75898  -0.74373
 Alpha  occ. eigenvalues --   -0.70195  -0.70080  -0.65168  -0.64350  -0.60226
 Alpha  occ. eigenvalues --   -0.59645  -0.56051  -0.54442  -0.53493  -0.51273
 Alpha  occ. eigenvalues --   -0.49017  -0.48429  -0.47001  -0.46904  -0.46877
 Alpha  occ. eigenvalues --   -0.45419  -0.43423  -0.42512  -0.42364  -0.42078
 Alpha  occ. eigenvalues --   -0.41805  -0.41469  -0.40282  -0.39523  -0.38081
 Alpha  occ. eigenvalues --   -0.37766  -0.37166  -0.36283  -0.36192  -0.35400
 Alpha  occ. eigenvalues --   -0.33230  -0.32754  -0.32047  -0.31020  -0.26451
 Alpha  occ. eigenvalues --   -0.25531  -0.24482  -0.23921  -0.23595  -0.22658
 Alpha  occ. eigenvalues --   -0.13624
 Alpha virt. eigenvalues --   -0.05468  -0.01010  -0.00477  -0.00446   0.00011
 Alpha virt. eigenvalues --    0.01182   0.01259   0.01943   0.02921   0.03378
 Alpha virt. eigenvalues --    0.03562   0.03657   0.03971   0.05023   0.05206

  Beta  occ. eigenvalues --  -19.15475 -19.15475 -19.06774 -19.06774 -10.23442
  Beta  occ. eigenvalues --  -10.23441 -10.21955 -10.21954 -10.21901 -10.21901
  Beta  occ. eigenvalues --  -10.17474 -10.17473 -10.17360 -10.17359 -10.17293
  Beta  occ. eigenvalues --  -10.17292 -10.16773 -10.16772 -10.16550 -10.16550
  Beta  occ. eigenvalues --   -1.06601  -1.06601  -0.99114  -0.98844  -0.85907
  Beta  occ. eigenvalues --   -0.85075  -0.78243  -0.75920  -0.75769  -0.74201
  Beta  occ. eigenvalues --   -0.70014  -0.69946  -0.64567  -0.64192  -0.60026
  Beta  occ. eigenvalues --   -0.59562  -0.55832  -0.54332  -0.53325  -0.51117
  Beta  occ. eigenvalues --   -0.48904  -0.48360  -0.46799  -0.46782  -0.46776
  Beta  occ. eigenvalues --   -0.45316  -0.43291  -0.42475  -0.42271  -0.41496
  Beta  occ. eigenvalues --   -0.41321  -0.40873  -0.39962  -0.39348  -0.37729
  Beta  occ. eigenvalues --   -0.37123  -0.36004  -0.35614  -0.35570  -0.35269
  Beta  occ. eigenvalues --   -0.33198  -0.32655  -0.31768  -0.30012  -0.25269
  Beta  occ. eigenvalues --   -0.24697  -0.23996  -0.23100  -0.22977  -0.22063
  Beta virt. eigenvalues --   -0.07803  -0.04492  -0.00437  -0.00194  -0.00015
  Beta virt. eigenvalues --    0.00009   0.01189   0.01276   0.01940   0.02925
  Beta virt. eigenvalues --    0.03427   0.03569   0.03675   0.03989   0.05026

 Mulliken charges and spin densities:
               1          2
     1  C   -0.030761   0.030940
     2  C    0.079918   0.011799
     3  C   -0.770833   0.031094
     4  C    0.559546   0.012672
     5  C    0.693899   0.065863
     6  C   -0.551113   0.038422
     7  C   -0.540570   0.111157
     8  C    0.693901   0.065862
     9  C    0.559549   0.012672
    10  C   -0.540570   0.111156
    11  C   -0.551103   0.038422
    12  C   -0.770839   0.031094
    13  C    0.079917   0.011799
    14  C   -0.030757   0.030939
    15  O   -0.465943   0.197215
    16  O   -0.465943   0.197215
    17  H    0.173476  -0.003001
    18  H    0.169110  -0.001804
    19  H    0.169110  -0.001804
    20  H    0.173476  -0.003002
    21  O   -0.213035   0.006748
    22  O   -0.213038   0.006748
    23  C   -0.332414  -0.000264
    24  C   -0.332417  -0.000264
    25  H    0.218705  -0.001799
    26  H    0.218705  -0.001799
    27  H    0.189024  -0.000036
    28  H    0.160585   0.000500
    29  H    0.160403   0.000495
    30  H    0.189024  -0.000036
    31  H    0.160407   0.000495
    32  H    0.160581   0.000500
 Sum of Mulliken charges =  -1.00000   1.00000

 Dipole moment (field-independent basis, Debye):
    X=              0.0000    Y=             -0.0000    Z=              0.0000  Tot=              0.0000
 Quadrupole moment (field-independent basis, Debye-Ang):
   XX=            -92.5113   YY=           -155.4967   ZZ=           -122.7351
   XY=             22.0446   XZ=              0.1133   YZ=             -0.0174

 Normal termination of Gaussian 16 at Sun Jan 14 01:20:23 2024.
