 Gaussian 16, Revision A.03,
 Gaussian 16:  ES64L-G16RevA.03 25-Dec-2016

 ----------------------------------------------------------------------
 #P UB3LYP/6-311++G(d,p) nosym opt freq SCRF=(PCM,Solvent=n,n-DiMethylF
 ormamide)
 ----------------------------------------------------------------------

 -------
 Reduced
 -------
 Symbolic Z-matrix:
 Charge = -2 Multiplicity = 1

 SCF Done:  E(UB3LYP) =  -910.693918808     A.U. after   15 cycles
 SCF Done:  E(UB3LYP) =  -910.694950783     A.U. after   13 cycles
 SCF Done:  E(UB3LYP) =  -910.695559430     A.U. after   12 cycles
 SCF Done:  E(UB3LYP) =  -910.695835706     A.U. after   13 cycles
 SCF Done:  E(UB3LYP) =  -910.695729095     A.U. after   12 cycles
 SCF Done:  E(UB3LYP) =  -910.695906385     A.U. after   11 cycles
 SCF Done:  E(UB3LYP) =  -910.695906586     A.U. after   11 cycles
 SCF Done:  E(UB3LYP) =  -910.695920986     A.U. after   11 cycles
 SCF Done:  E(UB3LYP) =  -910.695921840     A.U. after   11 cycles
 SCF Done:  E(UB3LYP) =  -910.695924249     A.U. after   10 cycles
 SCF Done:  E(UB3LYP) =  -910.695925716     A.U. after   11 cycles
 SCF Done:  E(UB3LYP) =  -910.695926862     A.U. after    9 cycles
 SCF Done:  E(UB3LYP) =  -910.695927348     A.U. after   10 cycles
 SCF Done:  E(UB3LYP) =  -910.695927618     A.U. after    9 cycles
 SCF Done:  E(UB3LYP) =  -910.695927691     A.U. after    9 cycles
 SCF Done:  E(UB3LYP) =  -910.695927750     A.U. after    9 cycles
 Optimization completed.
    -- Stationary point found.
 Normal termination of Gaussian 16 at Sat Feb 10 21:02:59 2024.

 ----------------------------------------------------------------------
 #P Geom=AllCheck Guess=TCheck SCRF=Check GenChk UB3LYP/6-311++G(d,p) F
 req
 ----------------------------------------------------------------------

 Structure from the checkpoint file:  "169-an.chk"
 -------
 Reduced
 -------
 Charge = -2 Multiplicity = 1

                          Input orientation:
 ---------------------------------------------------------------------
 Center     Atomic      Atomic             Coordinates (Angstroms)
 Number     Number       Type             X           Y           Z
 ---------------------------------------------------------------------
      1          7           0       -3.404990    1.581772    0.785507
      2          6           0       -2.845272    0.335633    0.417759
      3          6           0       -3.664266   -0.770962    0.336039
      4          6           0       -3.141981   -2.051887    0.046083
      5          6           0       -1.786390   -2.256772   -0.105060
      6          7           0       -1.320555   -3.544868   -0.458143
      7          6           0       -0.865826   -1.142356    0.029254
      8          6           0        0.558030   -1.349140    0.012626
      9          8           0        1.066288   -2.570787   -0.072642
     10          6           0        1.418938   -0.198748    0.089182
     11          6           0        2.859117   -0.348735    0.188932
     12          7           0        3.438563   -1.614398    0.440540
     13          6           0        3.673357    0.761974    0.116776
     14          6           0        3.134756    2.057887   -0.052048
     15          6           0        1.772274    2.270077   -0.085220
     16          7           0        1.285207    3.578178   -0.315109
     17          6           0        0.860872    1.147489    0.043534
     18          6           0       -0.559757    1.351563    0.146299
     19          8           0       -1.069075    2.575148    0.184158
     20          6           0       -1.416098    0.196451    0.206467
     21          1           0       -2.758939    2.333831    0.524539
     22          1           0       -4.349476    1.707183    0.443698
     23          1           0       -4.731675   -0.652342    0.504099
     24          1           0       -3.819143   -2.895177   -0.063262
     25          1           0       -1.869074   -4.290749   -0.049219
     26          1           0       -0.314594   -3.606525   -0.270572
     27          1           0        4.357986   -1.717409    0.029777
     28          1           0        2.774518   -2.349642    0.176922
     29          1           0        4.749854    0.634937    0.198729
     30          1           0        3.804405    2.907615   -0.157685
     31          1           0        0.297069    3.625113   -0.046236
     32          1           0        1.865877    4.295648    0.100287
 ---------------------------------------------------------------------

 SCF Done:  E(UB3LYP) =  -910.695927750     A.U. after    1 cycles

 Alpha  occ. eigenvalues --  -19.02557 -19.02554 -14.27269 -14.27268 -14.27252
 Alpha  occ. eigenvalues --  -14.27252 -10.18140 -10.18133 -10.17667 -10.17663
 Alpha  occ. eigenvalues --  -10.17653 -10.17649 -10.14233 -10.14225 -10.14190
 Alpha  occ. eigenvalues --  -10.14177 -10.13260 -10.13259 -10.13212 -10.13210
 Alpha  occ. eigenvalues --   -0.94433  -0.94020  -0.88292  -0.87372  -0.87336
 Alpha  occ. eigenvalues --   -0.86540  -0.79997  -0.78040  -0.74509  -0.70439
 Alpha  occ. eigenvalues --   -0.69116  -0.67598  -0.63294  -0.60269  -0.59899
 Alpha  occ. eigenvalues --   -0.54602  -0.52727  -0.52303  -0.50305  -0.48464
 Alpha  occ. eigenvalues --   -0.47476  -0.46362  -0.45123  -0.44357  -0.43928
 Alpha  occ. eigenvalues --   -0.43176  -0.41499  -0.40433  -0.39873  -0.38709
 Alpha  occ. eigenvalues --   -0.37526  -0.36246  -0.35696  -0.35599  -0.35325
 Alpha  occ. eigenvalues --   -0.34327  -0.33555  -0.33118  -0.31983  -0.31460
 Alpha  occ. eigenvalues --   -0.30370  -0.28945  -0.25192  -0.24171  -0.22286
 Alpha  occ. eigenvalues --   -0.21289  -0.20804  -0.19869  -0.17467  -0.16102
 Alpha  occ. eigenvalues --   -0.10173
 Alpha virt. eigenvalues --   -0.00605  -0.00047   0.00247   0.00702   0.00961
 Alpha virt. eigenvalues --    0.02000   0.02264   0.03815   0.03861   0.03965
 Alpha virt. eigenvalues --    0.04385   0.04660   0.05997   0.06548   0.06581

  Beta  occ. eigenvalues --  -19.02557 -19.02554 -14.27269 -14.27268 -14.27252
  Beta  occ. eigenvalues --  -14.27252 -10.18140 -10.18133 -10.17667 -10.17663
  Beta  occ. eigenvalues --  -10.17653 -10.17649 -10.14233 -10.14225 -10.14190
  Beta  occ. eigenvalues --  -10.14177 -10.13260 -10.13259 -10.13212 -10.13210
  Beta  occ. eigenvalues --   -0.94433  -0.94020  -0.88292  -0.87372  -0.87336
  Beta  occ. eigenvalues --   -0.86540  -0.79997  -0.78040  -0.74509  -0.70439
  Beta  occ. eigenvalues --   -0.69116  -0.67598  -0.63294  -0.60269  -0.59899
  Beta  occ. eigenvalues --   -0.54602  -0.52727  -0.52303  -0.50305  -0.48464
  Beta  occ. eigenvalues --   -0.47476  -0.46362  -0.45123  -0.44357  -0.43928
  Beta  occ. eigenvalues --   -0.43176  -0.41499  -0.40433  -0.39873  -0.38709
  Beta  occ. eigenvalues --   -0.37526  -0.36246  -0.35696  -0.35599  -0.35325
  Beta  occ. eigenvalues --   -0.34327  -0.33555  -0.33118  -0.31983  -0.31460
  Beta  occ. eigenvalues --   -0.30370  -0.28945  -0.25192  -0.24171  -0.22286
  Beta  occ. eigenvalues --   -0.21289  -0.20804  -0.19869  -0.17467  -0.16102
  Beta  occ. eigenvalues --   -0.10173
  Beta virt. eigenvalues --   -0.00605  -0.00047   0.00247   0.00702   0.00961
  Beta virt. eigenvalues --    0.02000   0.02264   0.03815   0.03861   0.03965
  Beta virt. eigenvalues --    0.04385   0.04660   0.05997   0.06548   0.06581

 Mulliken charges and spin densities:
               1          2
     1  N   -0.467127   0.000000
     2  C   -0.264142   0.000000
     3  C   -0.368908  -0.000000
     4  C   -0.378187  -0.000000
     5  C   -0.236937   0.000000
     6  N   -0.471998   0.000000
     7  C    0.506863  -0.000000
     8  C   -0.564148   0.000000
     9  O   -0.636139  -0.000000
    10  C    0.494266   0.000000
    11  C   -0.268528   0.000000
    12  N   -0.466122   0.000000
    13  C   -0.364605  -0.000000
    14  C   -0.378726  -0.000000
    15  C   -0.237277   0.000000
    16  N   -0.471128   0.000000
    17  C    0.506027  -0.000000
    18  C   -0.560096   0.000000
    19  O   -0.635939  -0.000000
    20  C    0.492925  -0.000000
    21  H    0.311480  -0.000000
    22  H    0.242158  -0.000000
    23  H    0.138118   0.000000
    24  H    0.138553  -0.000000
    25  H    0.242368  -0.000000
    26  H    0.312617  -0.000000
    27  H    0.242231  -0.000000
    28  H    0.311423   0.000000
    29  H    0.137937  -0.000000
    30  H    0.138416  -0.000000
    31  H    0.312189  -0.000000
    32  H    0.242434   0.000000
 Sum of Mulliken charges =  -2.00000  -0.00000

 Dipole moment (field-independent basis, Debye):
    X=              0.0250    Y=             -0.0227    Z=             -0.6914  Tot=              0.6922
 Quadrupole moment (field-independent basis, Debye-Ang):
   XX=           -150.5128   YY=           -164.2581   ZZ=           -139.7886
   XY=              6.3764   XZ=              0.6955   YZ=             -1.1295

  Exact polarizability: 595.786  60.289 477.079 -12.948   7.306 191.291
 Approx polarizability: 661.558  52.295 559.266 -14.995   9.654 211.255

                      1                      2                      3
                      A                      A                      A
 Frequencies --     36.4358                51.8346                80.5492
 Red. masses --      7.5072                 4.9045                 7.4116
 Frc consts  --      0.0059                 0.0078                 0.0283
 IR Inten    --     21.9699                 0.0069                 2.0060

                      4                      5                      6
                      A                      A                      A
 Frequencies --     97.4413               104.0511               185.0214
 Red. masses --      4.4470                 4.3177                 6.8605
 Frc consts  --      0.0249                 0.0275                 0.1384
 IR Inten    --     10.4991                 4.2850                 4.0799

                      7                      8                      9
                      A                      A                      A
 Frequencies --    229.8013               271.8582               311.5580
 Red. masses --      5.1528                 4.9459                 5.4011
 Frc consts  --      0.1603                 0.2154                 0.3089
 IR Inten    --      7.2890                11.0941                 0.5244

                     10                     11                     12
                      A                      A                      A
 Frequencies --    318.5991               324.4664               332.9419
 Red. masses --      5.0145                 3.3730                 3.4597
 Frc consts  --      0.2999                 0.2092                 0.2260
 IR Inten    --      0.1295                 0.3512                14.0821

                     13                     14                     15
                      A                      A                      A
 Frequencies --    356.1700               388.5320               408.2302
 Red. masses --      3.1733                 5.7022                 1.1848
 Frc consts  --      0.2372                 0.5072                 0.1163
 IR Inten    --    171.0767                 3.8543               208.2937

                     16                     17                     18
                      A                      A                      A
 Frequencies --    409.3257               415.6055               448.3040
 Red. masses --      1.1546                 3.1258                 4.6507
 Frc consts  --      0.1140                 0.3181                 0.5507
 IR Inten    --    483.9583                 0.0225                17.2321

                     19                     20                     21
                      A                      A                      A
 Frequencies --    451.3323               453.1647               456.4140
 Red. masses --      1.6438                 1.6427                 7.2089
 Frc consts  --      0.1973                 0.1988                 0.8848
 IR Inten    --     86.5137               100.7652                 8.4720

                     22                     23                     24
                      A                      A                      A
 Frequencies --    468.5780               473.3368               484.7029
 Red. masses --      4.9107                 4.7723                 3.7635
 Frc consts  --      0.6353                 0.6300                 0.5210
 IR Inten    --      0.4176                 0.2461                38.9460

                     25                     26                     27
                      A                      A                      A
 Frequencies --    498.2808               498.9129               540.1757
 Red. masses --      4.3659                 8.8142                 6.3974
 Frc consts  --      0.6387                 1.2927                 1.0998
 IR Inten    --      1.0150                95.8605                 0.1515

                     28                     29                     30
                      A                      A                      A
 Frequencies --    554.2393               580.2906               625.9684
 Red. masses --      3.5297                 3.5279                 4.0919
 Frc consts  --      0.6388                 0.6999                 0.9447
 IR Inten    --     55.9487               130.6918                 0.1675

                     31                     32                     33
                      A                      A                      A
 Frequencies --    642.3631               716.3866               731.6164
 Red. masses --      3.2994                 5.3046                 5.0248
 Frc consts  --      0.8021                 1.6040                 1.5846
 IR Inten    --     19.4476                42.2162               426.0987

                     34                     35                     36
                      A                      A                      A
 Frequencies --    735.6560               743.7209               778.6501
 Red. masses --      5.4907                 4.5348                 1.5319
 Frc consts  --      1.7508                 1.4778                 0.5472
 IR Inten    --      0.2911                91.2706                25.7262

                     37                     38                     39
                      A                      A                      A
 Frequencies --    782.8393               792.3164               796.5525
 Red. masses --      1.4452                 6.5363                 6.2374
 Frc consts  --      0.5218                 2.4176                 2.3318
 IR Inten    --     82.0023                 3.0699               222.0475

                     40                     41                     42
                      A                      A                      A
 Frequencies --    799.4514               833.8112               835.3120
 Red. masses --      3.2299                 1.2997                 1.2990
 Frc consts  --      1.2163                 0.5324                 0.5340
 IR Inten    --    368.1421                17.4720                24.4107

                     43                     44                     45
                      A                      A                      A
 Frequencies --    842.0299               854.9879               858.3731
 Red. masses --      1.6338                 1.5116                 1.5675
 Frc consts  --      0.6825                 0.6510                 0.6805
 IR Inten    --    876.8144                 2.4646                 0.6659

                     46                     47                     48
                      A                      A                      A
 Frequencies --    882.5665               932.3724               953.6533
 Red. masses --      2.0165                 5.5031                 5.2464
 Frc consts  --      0.9254                 2.8186                 2.8112
 IR Inten    --    389.1743               413.6402                 1.9189

                     49                     50                     51
                      A                      A                      A
 Frequencies --    989.5875              1066.9412              1131.2889
 Red. masses --      3.3825                 1.7629                 3.3313
 Frc consts  --      1.9516                 1.1824                 2.5119
 IR Inten    --      0.0135               162.0166              1565.8855

                     52                     53                     54
                      A                      A                      A
 Frequencies --   1135.3408              1139.7825              1178.1233
 Red. masses --      2.0064                 1.8748                 1.2856
 Frc consts  --      1.5237                 1.4350                 1.0513
 IR Inten    --      0.5733               603.7343                21.7048

                     55                     56                     57
                      A                      A                      A
 Frequencies --   1191.7439              1212.3547              1219.8233
 Red. masses --      1.2166                 1.7147                 3.4353
 Frc consts  --      1.0180                 1.4849                 3.0117
 IR Inten    --      0.0885                56.9164                43.9287

                     58                     59                     60
                      A                      A                      A
 Frequencies --   1234.2963              1241.0566              1256.5981
 Red. masses --      2.2877                 9.1931                 3.2414
 Frc consts  --      2.0535                 8.3425                 3.0156
 IR Inten    --     24.5082                 0.1437               305.0190

                     61                     62                     63
                      A                      A                      A
 Frequencies --   1274.0999              1283.2935              1324.0442
 Red. masses --      5.5806                 2.6575                10.2197
 Frc consts  --      5.3375                 2.5786                10.5559
 IR Inten    --      0.1347                 4.5814                50.9857

                     64                     65                     66
                      A                      A                      A
 Frequencies --   1359.5778              1401.5429              1403.0430
 Red. masses --      2.9776                 2.0955                 6.6954
 Frc consts  --      3.2428                 2.4252                 7.7655
 IR Inten    --   1852.5326                20.5528                 0.2901

                     67                     68                     69
                      A                      A                      A
 Frequencies --   1447.2910              1454.6862              1470.7960
 Red. masses --      2.4317                 3.0148                 2.4256
 Frc consts  --      3.0010                 3.7588                 3.0916
 IR Inten    --     11.0475               686.7912                 0.0820

                     70                     71                     72
                      A                      A                      A
 Frequencies --   1479.7829              1549.5978              1559.5355
 Red. masses --      6.7709                 1.4779                 1.1513
 Frc consts  --      8.7356                 2.0909                 1.6498
 IR Inten    --      3.0270                12.3921                 4.6423

                     73                     74                     75
                      A                      A                      A
 Frequencies --   1575.8930              1588.0517              1598.9722
 Red. masses --      2.7053                 1.4042                 1.3364
 Frc consts  --      3.9584                 2.0865                 2.0132
 IR Inten    --    811.5960               563.1222                 0.2369

                     76                     77                     78
                      A                      A                      A
 Frequencies --   1608.5464              1613.7937              1621.6011
 Red. masses --      4.9076                 4.6719                 2.8401
 Frc consts  --      7.4814                 7.1687                 4.4002
 IR Inten    --      7.4752                 0.2312               220.7533

                     79                     80                     81
                      A                      A                      A
 Frequencies --   3124.0637              3124.2177              3142.8235
 Red. masses --      1.0851                 1.0853                 1.0932
 Frc consts  --      6.2396                 6.2414                 6.3619
 IR Inten    --    155.7206                12.3747               182.1130

                     82                     83                     84
                      A                      A                      A
 Frequencies --   3143.0924              3288.8826              3292.0327
 Red. masses --      1.0929                 1.0649                 1.0652
 Frc consts  --      6.3614                 6.7866                 6.8015
 IR Inten    --      0.8637               110.9638              1474.0364

                     85                     86                     87
                      A                      A                      A
 Frequencies --   3306.3866              3310.2159              3575.5716
 Red. masses --      1.0650                 1.0650                 1.0825
 Frc consts  --      6.8599                 6.8756                 8.1540
 IR Inten    --     17.9828                 4.4749                41.2259

                     88                     89                     90
                      A                      A                      A
 Frequencies --   3575.7481              3576.5491              3576.6407
 Red. masses --      1.0825                 1.0827                 1.0827
 Frc consts  --      8.1547                 8.1596                 8.1605
 IR Inten    --     29.6371                22.9193                12.7327

 - Thermochemistry -
 -------------------
 Temperature   298.150 Kelvin.  Pressure   1.00000 Atm.
 Atom     1 has atomic number  7 and mass  14.00307

 Molecular mass:   268.09603 amu.
 Principal axes and moments of inertia in atomic units:
                           1         2         3
     Eigenvalues --  3530.942835550.538998957.64455
           X            0.92269  -0.38383   0.03633
           Y            0.38499   0.92233  -0.03314
           Z           -0.02079   0.04457   0.99879
 This molecule is an asymmetric top.
 Rotational symmetry number  1.
 Warning -- assumption of classical behavior for rotation
           may cause significant error
 Rotational temperatures (Kelvin)      0.02453     0.01560     0.00967
 Rotational constants (GHZ):           0.51112     0.32515     0.20147
 Zero-point vibrational energy     634117.0 (Joules/Mol)
                                  151.55761 (Kcal/Mol)
 Warning -- explicit consideration of  29 degrees of freedom as
           vibrations may cause significant error
 Vibrational temperatures:     52.42    74.58   115.89   140.20   149.71
          (Kelvin)            266.20   330.63   391.14   448.26   458.39
                              466.83   479.03   512.45   559.01   587.35
                              588.93   597.96   645.01   649.37   652.00
                              656.68   674.18   681.03   697.38   716.91
                              717.82   777.19   797.43   834.91   900.63
                              924.22  1030.72  1052.63  1058.44  1070.05
                             1120.30  1126.33  1139.97  1146.06  1150.23
                             1199.67  1201.83  1211.49  1230.14  1235.01
                             1269.82  1341.48  1372.09  1423.80  1535.09
                             1627.67  1633.50  1639.89  1695.06  1714.65
                             1744.31  1755.05  1775.88  1785.60  1807.96
                             1833.15  1846.37  1905.00  1956.13  2016.51
                             2018.67  2082.33  2092.97  2116.15  2129.08
                             2229.53  2243.82  2267.36  2284.85  2300.56
                             2314.34  2321.89  2333.12  4494.83  4495.05
                             4521.82  4522.21  4731.97  4736.50  4757.15
                             4762.66  5144.45  5144.70  5145.86  5145.99

 Zero-point correction=                           0.241522 (Hartree/Particle)
 Thermal correction to Energy=                    0.257696
 Thermal correction to Enthalpy=                  0.258640
 Thermal correction to Gibbs Free Energy=         0.198634
 Sum of electronic and zero-point Energies=           -910.454405
 Sum of electronic and thermal Energies=              -910.438232
 Sum of electronic and thermal Enthalpies=            -910.437288
 Sum of electronic and thermal Free Energies=         -910.497293

                     E (Thermal)             CV                S
                      KCal/Mol        Cal/Mol-Kelvin    Cal/Mol-Kelvin
 Total                  161.707             67.308            126.293
 Electronic               0.000              0.000              0.000
 Translational            0.889              2.981             42.658
 Rotational               0.889              2.981             33.528
 Vibrational            159.929             61.347             50.107
 Vibration     1          0.594              1.982              5.444
 Vibration     2          0.596              1.977              4.746
 Vibration     3          0.600              1.962              3.877
 Vibration     4          0.603              1.951              3.505
 Vibration     5          0.605              1.946              3.377
 Vibration     6          0.631              1.860              2.277
 Vibration     7          0.652              1.795              1.880
 Vibration     8          0.675              1.725              1.584
 Vibration     9          0.700              1.652              1.354
 Vibration    10          0.705              1.638              1.317
 Vibration    11          0.709              1.627              1.287
 Vibration    12          0.715              1.610              1.246
 Vibration    13          0.732              1.563              1.139
 Vibration    14          0.757              1.495              1.006
 Vibration    15          0.773              1.452              0.933
 Vibration    16          0.774              1.450              0.929
 Vibration    17          0.779              1.436              0.907
 Vibration    18          0.807              1.365              0.801
 Vibration    19          0.810              1.358              0.792
 Vibration    20          0.812              1.354              0.786
 Vibration    21          0.815              1.347              0.777
 Vibration    22          0.826              1.320              0.742
 Vibration    23          0.830              1.309              0.728
 Vibration    24          0.841              1.284              0.697
 Vibration    25          0.854              1.254              0.662
 Vibration    26          0.854              1.252              0.661
 Vibration    27          0.895              1.161              0.565
 Vibration    28          0.910              1.130              0.535
 Vibration    29          0.937              1.074              0.485

 Optimization completed.
    -- Stationary point found.
 Normal termination of Gaussian 16 at Sat Feb 10 23:14:49 2024.
