 Q-Chem 5.4, Q-Chem, Inc., Pleasanton, CA (2021)
 Q-Chem 5.4.0 for Intel X86 EM64T Linux

User input:
--------------------------------------------------------------
$molecule
0 1
C                 -0.0612050000      1.0504870000     -1.0111950000
C                 -1.0230590000      0.3116710000     -0.3291830000
C                 -0.6746600000     -0.8970460000      0.2763480000
C                  1.2509590000      0.5770620000     -1.0859150000
C                  1.6045070000     -0.6387600000     -0.4778620000
C                  0.6336990000     -1.3715900000      0.2025720000
C                  2.2814360000      1.3476980000     -1.8049530000
C                  3.6682790000      0.8001920000     -1.8501370000
C                  4.0305330000     -0.3756820000     -1.2809600000
C                  3.0122320000     -1.1596580000     -0.5511260000
O                  2.0712420000      2.4146930000     -2.3707120000
O                  3.3025060000     -2.2198270000     -0.0143240000
O                  4.5380110000      1.5754530000     -2.5177520000
H                 -0.3074330000      1.9906650000     -1.4893210000
H                 -2.0422070000      0.6754390000     -0.2685170000
H                 -1.4255560000     -1.4710930000      0.8073060000
H                  0.9206070000     -2.3071570000      0.6663440000
H                  4.0259350000      2.3427770000     -2.8372200000
C                  5.4382530000     -0.8994290000     -1.3348060000
C                  6.2757330000     -0.4882520000     -0.1049220000
H                  5.9233140000     -0.5312040000     -2.2422840000
H                  5.3998710000     -1.9903500000     -1.3872290000
H                  5.7785740000     -0.8494200000      0.8015330000
H                  6.3045220000      0.6053500000     -0.0385790000
C                  7.7040500000     -1.0383390000     -0.1610390000
C                  8.5490750000     -0.6378420000      1.0636230000
C                  9.9607060000     -1.1784190000      1.0166660000
C                 10.9918850000     -0.4531520000      0.4080380000
C                 10.2728360000     -2.4325780000      1.5514950000
C                 11.5625210000     -2.9536610000      1.4748870000
C                 12.5671520000     -2.2134850000      0.8595000000
C                 12.2883620000     -0.9546230000      0.3296940000
O                 13.8518540000     -2.7305090000      0.8881180000
C                 14.6292860000     -2.7475570000     -0.2519020000
C                 14.0971550000     -2.8868990000     -1.5344040000
C                 16.0100580000     -2.6922480000     -0.0604230000
C                 16.8606610000     -2.7722920000     -1.1591440000
C                 14.9610670000     -2.9596900000     -2.6261420000
C                 16.3420720000     -2.9026560000     -2.4475950000
H                  8.2012720000     -0.6834430000     -1.0716600000
H                  7.6738900000     -2.1317650000     -0.2338000000
H                  8.0513820000     -0.9947850000      1.9718610000
H                  8.5789860000      0.4550740000      1.1349080000
H                 10.7831840000      0.5307560000     -0.0006530000
H                  9.4968350000     -3.0144050000      2.0389470000
H                 11.8038110000     -3.9228140000      1.8948090000
H                 13.0782560000     -0.3736380000     -0.1310120000
H                 13.0251720000     -2.9406380000     -1.6759420000
H                 16.3950350000     -2.5904440000      0.9470310000
H                 17.9332310000     -2.7283830000     -1.0064040000
H                 14.5465640000     -3.0694670000     -3.6221670000
H                 17.0064380000     -2.9611930000     -3.3016160000
$end
$rem
BASIS  =  6-311++G(d,p)
GUI  =  2
JOB_TYPE  =  SP
SCF_CONVERGENCE  = 8
THRESH = 14
METHOD  =  B3LYP
SOLVENT_METHOD = COSMO
$end
$solvent
dielectric 37.219
opticaldielectric 1.43
$end

--------------------------------------------------------------

             Standard Nuclear Orientation (Angstroms)
    I     Atom           X                Y                Z
 ----------------------------------------------------------------
    1      C       7.9115648960    -0.4983672411     0.2474834357
    2      C       8.6822609504     0.6081403822    -0.0957672581
    3      C       8.0775270643     1.7299875412    -0.6656815676
    4      C       6.5334958120    -0.4798872068     0.0192888696
    5      C       5.9222036527     0.6472687804    -0.5541124308
    6      C       6.7029261501     1.7504029805    -0.8947966376
    7      C       5.7032209519    -1.6441451378     0.3769555642
    8      C       4.2361276942    -1.5706361124     0.1173949413
    9      C       3.6256040544    -0.4988168864    -0.4450412895
   10      C       4.4409265359     0.6800018144    -0.8053865191
   11      O       6.1427147513    -2.6737189471     0.8765214411
   12      O       3.9253219947     1.6707867240    -1.3042561524
   13      O       3.5625542490    -2.6727662197     0.4845205309
   14      H       8.3579217126    -1.3802951328     0.6903560556
   15      H       9.7517177176     0.5981401857     0.0798242749
   16      H       8.6797893213     2.5910814292    -0.9323061137
   17      H       6.2181270286     2.6122767628    -1.3361917840
   18      H       4.2291940102    -3.2907818456     0.8404922556
   19      C       2.1431645265    -0.4486353139    -0.6874062333
   20      C       1.3696937523     0.2067488791     0.4767537429
   21      H       1.7707103880    -1.4642728614    -0.8428038896
   22      H       1.9608443680     0.1248174835    -1.5996787946
   23      H       1.7554519824     1.2193111288     0.6354305871
   24      H       1.5615247527    -0.3554840515     1.3977806338
   25      C      -0.1381827480     0.2669112537     0.2149843287
   26      C      -0.9210476962     0.9229449536     1.3686759553
   27      C      -2.4109406360     0.9876207902     1.1173462973
   28      C      -3.2544617198    -0.0611962289     1.5023468625
   29      C      -2.9872590575     2.0823212201     0.4647591083
   30      C      -4.3529459095     2.1291237719     0.1938483829
   31      C      -5.1672525604     1.0701960596     0.5829780469
   32      C      -4.6227617351    -0.0277526343     1.2471995486
   33      O      -6.5304297853     1.2013360593     0.3752710674
   34      C      -7.2601931829     0.1702195679    -0.1802295301
   35      C      -6.7287864403    -0.7235149720    -1.1109477583
   36      C      -8.6061410003     0.1002720102     0.1800292948
   37      C      -9.4215589977    -0.8722056547    -0.3913733847
   38      C      -7.5559693343    -1.6962353127    -1.6705171755
   39      C      -8.9014027839    -1.7777392173    -1.3162959669
   40      H      -0.5251496077    -0.7455492047     0.0488760404
   41      H      -0.3284415663     0.8239999747    -0.7098064288
   42      H      -0.5339631686     1.9346727203     1.5316955455
   43      H      -0.7306039541     0.3649720180     2.2921687742
   44      H      -2.8380607176    -0.9162311195     2.0259735755
   45      H      -2.3606864090     2.9158043531     0.1630601766
   46      H      -4.7985870574     2.9804565125    -0.3066008350
   47      H      -5.2639136355    -0.8408942539     1.5657133898
   48      H      -5.6862480181    -0.6573512649    -1.3952089760
   49      H      -8.9928064422     0.8112923941     0.9000812074
   50      H     -10.4670073057    -0.9238032512    -0.1084609668
   51      H      -7.1423719005    -2.3892847507    -2.3947748415
   52      H      -9.5376046095    -2.5361466780    -1.7570067467
 ----------------------------------------------------------------

   16   -1305.2706493802      2.40e-09  Convergence criterion met
 Total energy in the final basis set =    -1305.2706493802
   10   -1305.2924666022      6.98e-09  Convergence criterion met
 Total energy in the final basis set =    -1305.2924666022

                    Orbital Energies (a.u.)
 --------------------------------------------------------------

 Alpha MOs
 -- Occupied --
-19.1786 -19.1715 -19.1504 -19.1305 -10.2944 -10.2820 -10.2677 -10.2452
-10.2406 -10.2106 -10.2094 -10.2039 -10.2005 -10.1983 -10.1968 -10.1965
-10.1840 -10.1825 -10.1820 -10.1808 -10.1806 -10.1794 -10.1792 -10.1787
-10.1787 -10.1763 -10.1753 -10.1700 -10.1684 -10.1662  -1.1089  -1.0901
 -1.0681  -1.0644  -0.8925  -0.8734  -0.8600  -0.8442  -0.8084  -0.7896
 -0.7798  -0.7693  -0.7590  -0.7562  -0.7466  -0.7191  -0.6929  -0.6655
 -0.6521  -0.6347  -0.6263  -0.6177  -0.6102  -0.6041  -0.5874  -0.5783
 -0.5738  -0.5546  -0.5429  -0.5192  -0.5099  -0.4986  -0.4947  -0.4818
 -0.4795  -0.4785  -0.4718  -0.4690  -0.4655  -0.4520  -0.4514  -0.4476
 -0.4461  -0.4368  -0.4316  -0.4295  -0.4272  -0.4192  -0.4149  -0.4103
 -0.4068  -0.3998  -0.3936  -0.3909  -0.3794  -0.3775  -0.3716  -0.3702
 -0.3680  -0.3617  -0.3504  -0.3473  -0.3420  -0.3363  -0.3324  -0.3279
 -0.3044  -0.2902  -0.2806  -0.2801  -0.2690  -0.2634  -0.2590  -0.2548
 -0.2292

          Ground-State Mulliken Net Atomic Charges

     Atom                 Charge (a.u.)
  ----------------------------------------
      1 C                     0.200763
      2 C                    -0.398562
      3 C                    -0.414885
      4 C                     0.392524
      5 C                    -0.026590
      6 C                     0.194031
      7 C                    -0.729373
      8 C                    -0.457687
      9 C                     1.912286
     10 C                    -0.795273
     11 O                    -0.329468
     12 O                    -0.293822
     13 O                    -0.235393
     14 H                     0.205437
     15 H                     0.230321
     16 H                     0.226480
     17 H                     0.203528
     18 H                     0.324905
     19 C                    -0.392952
     20 C                    -0.768885
     21 H                     0.243751
     22 H                     0.227616
     23 H                     0.174525
     24 H                     0.176297
     25 C                    -0.280125
     26 C                    -1.077492
     27 C                     1.443190
     28 C                    -0.331576
     29 C                    -0.313328
     30 C                    -0.255439
     31 C                    -0.652971
     32 C                     0.120869
     33 O                    -0.047200
     34 C                    -0.338472
     35 C                     0.196369
     36 C                    -0.170351
     37 C                    -0.246067
     38 C                    -0.109159
     39 C                    -0.376357
     40 H                     0.138205
     41 H                     0.142253
     42 H                     0.179409
     43 H                     0.180715
     44 H                     0.215913
     45 H                     0.211489
     46 H                     0.228946
     47 H                     0.218218
     48 H                     0.205309
     49 H                     0.213963
     50 H                     0.216830
     51 H                     0.227564
     52 H                     0.189717
  ----------------------------------------
  Sum of atomic charges =     0.000000

                    Cartesian Multipole Moments
 -----------------------------------------------------------------
    Charge (ESU x 10^10)
                 0.0000
    Dipole Moment (Debye)
         X       4.7086      Y      -1.0694      Z       0.3162
       Tot       4.8388
    Quadrupole Moments (Debye-Ang)
        XX    -133.5609     XY      21.7608     YY    -175.7286
        XZ       1.9337     YZ       2.5840     ZZ    -179.1196

 Total job time:  677.93s(wall), 4989.04s(cpu)
        *  Thank you very much for using Q-Chem.  Have a nice day.  *
