 Gaussian 16, Revision A.03,
 Gaussian 16:  ES64L-G16RevA.03 25-Dec-2016

 --------------------------------------
 #P UB3LYP/6-311++G(d,p) nosym opt freq
 --------------------------------------

 --------
 Oxidized
 --------
 Symbolic Z-matrix:
 Charge =  0 Multiplicity = 1

 SCF Done:  E(UB3LYP) =  -1608.14386638     A.U. after   16 cycles
 SCF Done:  E(UB3LYP) =  -1608.16893535     A.U. after   16 cycles
 SCF Done:  E(UB3LYP) =  -1608.17447915     A.U. after   14 cycles
 SCF Done:  E(UB3LYP) =  -1608.17488429     A.U. after   12 cycles
 SCF Done:  E(UB3LYP) =  -1608.17492655     A.U. after   12 cycles
 SCF Done:  E(UB3LYP) =  -1608.17492771     A.U. after   10 cycles
 SCF Done:  E(UB3LYP) =  -1608.17492805     A.U. after   10 cycles
 Optimization completed.
    -- Stationary point found.
 Normal termination of Gaussian 16 at Thu Dec 21 05:54:37 2023.

 ----------------------------------------------------------------------
 #P Geom=AllCheck Guess=TCheck SCRF=Check GenChk UB3LYP/6-311++G(d,p) F
 req
 ----------------------------------------------------------------------

 Structure from the checkpoint file:  "121.chk"
 --------
 Oxidized
 --------
 Charge =  0 Multiplicity = 1

                          Input orientation:
 ---------------------------------------------------------------------
 Center     Atomic      Atomic             Coordinates (Angstroms)
 Number     Number       Type             X           Y           Z
 ---------------------------------------------------------------------
      1         17           0        2.633987    3.178129   -0.517828
      2          6           0        2.496131    1.462374   -0.209805
      3          6           0        3.702840    0.781105   -0.059585
      4          6           0        3.711894   -0.586062    0.188458
      5          6           0        2.514344   -1.280264    0.287806
      6          6           0        1.300964   -0.608812    0.139222
      7          6           0        0.058626   -1.449290    0.264027
      8          8           0        0.169794   -2.640997    0.482456
      9          6           0       -1.264620   -0.780667    0.113472
     10          6           0       -2.496079   -1.462367    0.209804
     11         17           0       -2.633836   -3.178143    0.517835
     12          6           0       -3.702835   -0.781132    0.059602
     13          6           0       -3.711927    0.586016   -0.188438
     14          6           0       -2.514388    1.280264   -0.287809
     15          6           0       -1.300985    0.608861   -0.139248
     16          6           0       -0.058633    1.449343   -0.264069
     17          8           0       -0.169816    2.641062   -0.482471
     18          6           0        1.264612    0.780712   -0.113497
     19          1           0        4.628991    1.335549   -0.139600
     20          1           0        4.656778   -1.104316    0.303311
     21          1           0        2.491645   -2.344559    0.480215
     22          1           0       -4.628947   -1.335641    0.139641
     23          1           0       -4.656808    1.104278   -0.303282
     24          1           0       -2.491730    2.344560   -0.480219
 ---------------------------------------------------------------------

 SCF Done:  E(UB3LYP) =  -1608.17492805     A.U. after    2 cycles

 Alpha  occ. eigenvalues -- -101.56376-101.56376 -19.13331 -19.13330 -10.29075
 Alpha  occ. eigenvalues --  -10.29074 -10.26983 -10.26983 -10.22909 -10.22908
 Alpha  occ. eigenvalues --  -10.22319 -10.22318 -10.21466 -10.21466 -10.21388
 Alpha  occ. eigenvalues --  -10.21388 -10.20630 -10.20630  -9.47851  -9.47850
 Alpha  occ. eigenvalues --   -7.24338  -7.24338  -7.23359  -7.23359  -7.23233
 Alpha  occ. eigenvalues --   -7.23233  -1.07267  -1.07071  -0.92186  -0.91810
 Alpha  occ. eigenvalues --   -0.87111  -0.86040  -0.82508  -0.78869  -0.77148
 Alpha  occ. eigenvalues --   -0.76543  -0.69880  -0.68001  -0.66282  -0.61862
 Alpha  occ. eigenvalues --   -0.58563  -0.58131  -0.56521  -0.51670  -0.50858
 Alpha  occ. eigenvalues --   -0.50589  -0.50290  -0.46783  -0.46361  -0.46331
 Alpha  occ. eigenvalues --   -0.46193  -0.45615  -0.45191  -0.42989  -0.41887
 Alpha  occ. eigenvalues --   -0.41584  -0.39791  -0.39516  -0.39485  -0.38604
 Alpha  occ. eigenvalues --   -0.35401  -0.35022  -0.33551  -0.33066  -0.30128
 Alpha  occ. eigenvalues --   -0.29286  -0.28249  -0.27352  -0.27262  -0.26789
 Alpha virt. eigenvalues --   -0.12427  -0.08545  -0.05261  -0.04134  -0.01284
 Alpha virt. eigenvalues --   -0.00915   0.00145   0.00615   0.01564   0.01607
 Alpha virt. eigenvalues --    0.01941   0.02072   0.02873   0.03833   0.03986

  Beta  occ. eigenvalues -- -101.56376-101.56376 -19.13331 -19.13330 -10.29075
  Beta  occ. eigenvalues --  -10.29074 -10.26983 -10.26983 -10.22909 -10.22908
  Beta  occ. eigenvalues --  -10.22319 -10.22318 -10.21466 -10.21466 -10.21388
  Beta  occ. eigenvalues --  -10.21388 -10.20630 -10.20630  -9.47851  -9.47850
  Beta  occ. eigenvalues --   -7.24338  -7.24338  -7.23359  -7.23359  -7.23233
  Beta  occ. eigenvalues --   -7.23233  -1.07267  -1.07071  -0.92186  -0.91810
  Beta  occ. eigenvalues --   -0.87111  -0.86040  -0.82508  -0.78869  -0.77148
  Beta  occ. eigenvalues --   -0.76543  -0.69880  -0.68001  -0.66282  -0.61862
  Beta  occ. eigenvalues --   -0.58563  -0.58131  -0.56521  -0.51670  -0.50858
  Beta  occ. eigenvalues --   -0.50589  -0.50290  -0.46783  -0.46361  -0.46331
  Beta  occ. eigenvalues --   -0.46193  -0.45615  -0.45191  -0.42989  -0.41887
  Beta  occ. eigenvalues --   -0.41584  -0.39791  -0.39516  -0.39485  -0.38604
  Beta  occ. eigenvalues --   -0.35401  -0.35022  -0.33551  -0.33066  -0.30128
  Beta  occ. eigenvalues --   -0.29286  -0.28249  -0.27352  -0.27262  -0.26789
  Beta virt. eigenvalues --   -0.12427  -0.08545  -0.05261  -0.04134  -0.01284
  Beta virt. eigenvalues --   -0.00915   0.00145   0.00615   0.01564   0.01607
  Beta virt. eigenvalues --    0.01941   0.02072   0.02873   0.03833   0.03986

 Mulliken charges and spin densities:
               1          2
     1  Cl   0.457963   0.000000
     2  C    0.877186  -0.000000
     3  C   -0.064118  -0.000000
     4  C   -0.565888  -0.000000
     5  C    0.579676   0.000000
     6  C    0.307509   0.000000
     7  C   -1.866316  -0.000000
     8  O   -0.092060   0.000000
     9  C   -0.217416   0.000000
    10  C    0.877118  -0.000000
    11  Cl   0.457942   0.000000
    12  C   -0.064131   0.000000
    13  C   -0.565870  -0.000000
    14  C    0.579646   0.000000
    15  C    0.307506  -0.000000
    16  C   -1.866244   0.000000
    17  O   -0.092082  -0.000000
    18  C   -0.217328  -0.000000
    19  H    0.204260   0.000000
    20  H    0.182416  -0.000000
    21  H    0.196780   0.000000
    22  H    0.204258   0.000000
    23  H    0.182416  -0.000000
    24  H    0.196776  -0.000000
 Sum of Mulliken charges =  -0.00000  -0.00000

 Dipole moment (field-independent basis, Debye):
    X=              0.0001    Y=             -0.0001    Z=              0.0000  Tot=              0.0001
 Quadrupole moment (field-independent basis, Debye-Ang):
   XX=            -90.0837   YY=           -131.5143   ZZ=           -118.1681
   XY=             -6.3600   XZ=              1.7660   YZ=              2.3483

  Exact polarizability: 263.617  19.401 232.332   0.295 -25.107  96.029
 Approx polarizability: 384.708   6.458 431.004   4.047 -50.975 158.345

 ******    1 imaginary frequencies (negative Signs) ******

                      1                      2                      3
                      A                      A                      A
 Frequencies --    -17.7690                39.9409                47.5538
 Red. masses --     11.4844                 8.8465                13.8992
 Frc consts  --      0.0021                 0.0083                 0.0185
 IR Inten    --      3.9839                 2.7097                 0.0000

                      4                      5                      6
                      A                      A                      A
 Frequencies --    151.7259               162.3319               182.4927
 Red. masses --      6.3225                11.6337                 4.5940
 Frc consts  --      0.0858                 0.1806                 0.0901
 IR Inten    --      0.4786                 1.4493                 0.0000

                      7                      8                      9
                      A                      A                      A
 Frequencies --    202.5142               203.1820               250.4473
 Red. masses --     22.5318                 5.2475                 6.5549
 Frc consts  --      0.5444                 0.1276                 0.2422
 IR Inten    --      0.0000                 0.0483                 0.0000

                     10                     11                     12
                      A                      A                      A
 Frequencies --    332.0822               341.7644               350.5578
 Red. masses --     11.0605                16.9683                 6.3577
 Frc consts  --      0.7186                 1.1677                 0.4603
 IR Inten    --      0.6075                 0.0000                 0.0000

                     13                     14                     15
                      A                      A                      A
 Frequencies --    404.4280               414.3030               420.3040
 Red. masses --      8.0922                10.9048                 9.8355
 Frc consts  --      0.7798                 1.1028                 1.0237
 IR Inten    --      0.0000                27.4033                 6.1978

                     16                     17                     18
                      A                      A                      A
 Frequencies --    431.5009               474.0829               479.2308
 Red. masses --      5.2195                10.2015                 3.9681
 Frc consts  --      0.5726                 1.3509                 0.5369
 IR Inten    --      0.0000                 0.0000                 3.3487

                     19                     20                     21
                      A                      A                      A
 Frequencies --    502.5367               514.4044               536.0157
 Red. masses --     11.3020                 5.1457                 4.9691
 Frc consts  --      1.6817                 0.8022                 0.8412
 IR Inten    --      0.0000                 1.6510                 0.0000

                     22                     23                     24
                      A                      A                      A
 Frequencies --    624.9788               662.0615               703.3636
 Red. masses --      6.6157                 4.9723                 7.2573
 Frc consts  --      1.5225                 1.2841                 2.1154
 IR Inten    --      2.0307                 0.0000                 0.0000

                     25                     26                     27
                      A                      A                      A
 Frequencies --    718.8187               724.1002               765.5185
 Red. masses --      3.3967                 8.3029                 4.4391
 Frc consts  --      1.0341                 2.5649                 1.5327
 IR Inten    --     26.0452                88.9255                38.3591

                     28                     29                     30
                      A                      A                      A
 Frequencies --    788.9795               809.7663               818.7021
 Red. masses --      1.7914                 8.7288                 7.3883
 Frc consts  --      0.6570                 3.3723                 2.9177
 IR Inten    --      0.0000                 0.0000                36.2409

                     31                     32                     33
                      A                      A                      A
 Frequencies --    829.4068               830.8526               926.5743
 Red. masses --      1.7358                 2.7893                 6.6431
 Frc consts  --      0.7035                 1.1345                 3.3603
 IR Inten    --     42.0326                 0.0000                 0.0000

                     34                     35                     36
                      A                      A                      A
 Frequencies --    951.3158               952.2250               996.4432
 Red. masses --      1.3664                 1.3714                 8.5275
 Frc consts  --      0.7286                 0.7326                 4.9886
 IR Inten    --      0.0000                 0.1281                73.0287

                     37                     38                     39
                      A                      A                      A
 Frequencies --   1014.9884              1016.1073              1092.1630
 Red. masses --      1.3344                 1.3440                 2.5101
 Frc consts  --      0.8100                 0.8176                 1.7640
 IR Inten    --      0.0000                 1.4483                 0.0000

                     40                     41                     42
                      A                      A                      A
 Frequencies --   1105.7848              1147.7232              1149.0846
 Red. masses --      2.0062                 3.3156                 4.2917
 Frc consts  --      1.4453                 2.5733                 3.3388
 IR Inten    --      9.2363                 0.0007               123.6285

                     43                     44                     45
                      A                      A                      A
 Frequencies --   1185.0335              1194.1331              1202.7156
 Red. masses --      1.4147                 1.7639                 1.4529
 Frc consts  --      1.1705                 1.4819                 1.2383
 IR Inten    --     13.7929                 0.0000                 0.0000

                     46                     47                     48
                      A                      A                      A
 Frequencies --   1225.5513              1274.5274              1290.7473
 Red. masses --      1.7812                 4.2529                 3.1565
 Frc consts  --      1.5762                 4.0704                 3.0984
 IR Inten    --     59.0776               559.0731                 0.0001

                     49                     50                     51
                      A                      A                      A
 Frequencies --   1335.3558              1341.9160              1447.7499
 Red. masses --      9.3705                 8.3878                 3.3984
 Frc consts  --      9.8448                 8.8991                 4.1967
 IR Inten    --    126.3567                 0.0008                54.0127

                     52                     53                     54
                      A                      A                      A
 Frequencies --   1456.0940              1467.5431              1477.0827
 Red. masses --      3.5633                 2.2739                 2.4055
 Frc consts  --      4.4512                 2.8854                 3.0922
 IR Inten    --      0.0001                14.1504                 0.0000

                     55                     56                     57
                      A                      A                      A
 Frequencies --   1595.4240              1604.7589              1611.7498
 Red. masses --      6.1035                 6.4556                 5.9589
 Frc consts  --      9.1534                 9.7951                 9.1203
 IR Inten    --     14.1726                 0.0001               149.7337

                     58                     59                     60
                      A                      A                      A
 Frequencies --   1616.2040              1724.3450              1734.6936
 Red. masses --      6.0996                12.6811                12.5348
 Frc consts  --      9.3873                22.2155                22.2235
 IR Inten    --      0.0005                 0.0015               306.1335

                     61                     62                     63
                      A                      A                      A
 Frequencies --   3180.8182              3180.8280              3202.8766
 Red. masses --      1.0888                 1.0888                 1.0936
 Frc consts  --      6.4904                 6.4905                 6.6095
 IR Inten    --     10.0122                 0.2173                 0.6347

                     64                     65                     66
                      A                      A                      A
 Frequencies --   3202.8848              3212.8069              3212.9288
 Red. masses --      1.0936                 1.0935                 1.0935
 Frc consts  --      6.6097                 6.6501                 6.6507
 IR Inten    --      2.1899                 9.1016                 0.0015

 - Thermochemistry -
 -------------------
 Temperature   298.150 Kelvin.  Pressure   1.00000 Atm.
 Atom     1 has atomic number 17 and mass  34.96885

 Molecular mass:   275.97448 amu.
 Principal axes and moments of inertia in atomic units:
                           1         2         3
     Eigenvalues --  2709.418507264.910419974.32891
           X            0.82453  -0.56540  -0.02179
           Y            0.55967   0.80930   0.17833
           Z           -0.08320  -0.15924   0.98373
 This molecule is an asymmetric top.
 Rotational symmetry number  1.
 Warning -- assumption of classical behavior for rotation
           may cause significant error
 Rotational temperatures (Kelvin)      0.03197     0.01192     0.00868
 Rotational constants (GHZ):           0.66610     0.24842     0.18094
    1 imaginary frequencies ignored.
 Zero-point vibrational energy     418986.8 (Joules/Mol)
                                  100.14025 (Kcal/Mol)
 Warning -- explicit consideration of  20 degrees of freedom as
           vibrations may cause significant error
 Vibrational temperatures:     57.47    68.42   218.30   233.56   262.57
          (Kelvin)            291.37   292.33   360.34   477.79   491.72
                              504.37   581.88   596.09   604.72   620.83
                              682.10   689.51   723.04   740.11   771.21
                              899.21   952.56  1011.98  1034.22  1041.82
                             1101.41  1135.17  1165.07  1177.93  1193.33
                             1195.41  1333.13  1368.73  1370.04  1433.66
                             1460.34  1461.95  1571.38  1590.98  1651.32
                             1653.28  1705.00  1718.09  1730.44  1763.29
                             1833.76  1857.10  1921.28  1930.72  2082.99
                             2094.99  2111.47  2125.19  2295.46  2308.89
                             2318.95  2325.36  2480.95  2495.84  4576.49
                             4576.50  4608.23  4608.24  4622.51  4622.69

 Zero-point correction=                           0.159584 (Hartree/Particle)
 Thermal correction to Energy=                    0.172504
 Thermal correction to Enthalpy=                  0.173448
 Thermal correction to Gibbs Free Energy=         0.119025
 Sum of electronic and zero-point Energies=          -1608.015344
 Sum of electronic and thermal Energies=             -1608.002424
 Sum of electronic and thermal Enthalpies=           -1608.001480
 Sum of electronic and thermal Free Energies=        -1608.055903

                     E (Thermal)             CV                S
                      KCal/Mol        Cal/Mol-Kelvin    Cal/Mol-Kelvin
 Total                  108.248             51.351            114.544
 Electronic               0.000              0.000              0.000
 Translational            0.889              2.981             42.744
 Rotational               0.889              2.981             33.640
 Vibrational            106.470             45.389             38.161
 Vibration     1          0.594              1.981              5.262
 Vibration     2          0.595              1.979              4.917
 Vibration     3          0.619              1.901              2.650
 Vibration     4          0.622              1.889              2.522
 Vibration     5          0.630              1.864              2.303
 Vibration     6          0.639              1.836              2.110
 Vibration     7          0.639              1.835              2.104
 Vibration     8          0.663              1.762              1.727
 Vibration     9          0.714              1.611              1.250
 Vibration    10          0.721              1.592              1.204
 Vibration    11          0.727              1.574              1.164
 Vibration    12          0.770              1.461              0.947
 Vibration    13          0.778              1.439              0.912
 Vibration    14          0.783              1.426              0.891
 Vibration    15          0.793              1.402              0.854
 Vibration    16          0.831              1.308              0.726
 Vibration    17          0.836              1.296              0.712
 Vibration    18          0.858              1.244              0.652
 Vibration    19          0.869              1.218              0.623
 Vibration    20          0.891              1.170              0.574

 Optimization completed.
    -- Stationary point found.
 Normal termination of Gaussian 16 at Thu Dec 21 06:21:48 2023.
