 Gaussian 16, Revision A.03,
 Gaussian 16:  ES64L-G16RevA.03 25-Dec-2016

 ----------------------------------------------------------------
 #P UB3LYP/6-311++G(d,p) SCRF=(PCM,Solvent=n,n-DiMethylFormamide)
 ----------------------------------------------------------------

 -------
 Reduced
 -------
 Symbolic Z-matrix:
 Charge = -2 Multiplicity = 1

                         Standard orientation:
 ---------------------------------------------------------------------
 Center     Atomic      Atomic             Coordinates (Angstroms)
 Number     Number       Type             X           Y           Z
 ---------------------------------------------------------------------
      1         17           0        3.421903   -0.295534   -0.000075
      2          6           0        1.610228   -0.318854    0.000055
      3          6           0        1.000319   -1.565627    0.000023
      4          6           0       -0.420851   -1.751737    0.000131
      5          8           0       -0.982861   -2.909557   -0.000051
      6          6           0       -1.112007   -0.493724    0.000075
      7          6           0       -0.466930    0.756834    0.000095
      8         17           0       -1.434157    2.261138   -0.000049
      9          6           0        0.960580    0.958031    0.000159
     10          8           0        1.543841    2.096203    0.000016
     11         17           0       -2.900910   -0.585498   -0.000044
     12          1           0        1.607907   -2.464519   -0.000079
 ---------------------------------------------------------------------

 SCF Done:  E(UB3LYP) =  -1760.71678063     A.U. after   22 cycles

 The electronic state is 1-A.
 Alpha  occ. eigenvalues -- -101.53495-101.53387-101.53132 -19.03164 -19.02846
 Alpha  occ. eigenvalues --  -10.20427 -10.20064 -10.20057 -10.19808 -10.19522
 Alpha  occ. eigenvalues --  -10.14426  -9.44926  -9.44815  -9.44550  -7.21348
 Alpha  occ. eigenvalues --   -7.21231  -7.20947  -7.20455  -7.20382  -7.20346
 Alpha  occ. eigenvalues --   -7.20278  -7.20082  -7.20038  -0.95587  -0.94661
 Alpha  occ. eigenvalues --   -0.86092  -0.83902  -0.82011  -0.77195  -0.68713
 Alpha  occ. eigenvalues --   -0.66407  -0.56608  -0.54374  -0.47204  -0.44862
 Alpha  occ. eigenvalues --   -0.42530  -0.39924  -0.39904  -0.37717  -0.36225
 Alpha  occ. eigenvalues --   -0.35778  -0.35028  -0.33866  -0.31056  -0.30973
 Alpha  occ. eigenvalues --   -0.30251  -0.29746  -0.28635  -0.23848  -0.21731
 Alpha  occ. eigenvalues --   -0.21554  -0.21091  -0.13617
 Alpha virt. eigenvalues --   -0.00823   0.00369   0.01194   0.01779   0.03121
 Alpha virt. eigenvalues --    0.03939   0.04833   0.05456   0.05738   0.06201
 Alpha virt. eigenvalues --    0.06332   0.07565   0.08353   0.08524   0.08919

  Beta  occ. eigenvalues -- -101.53495-101.53387-101.53132 -19.03164 -19.02846
  Beta  occ. eigenvalues --  -10.20427 -10.20064 -10.20057 -10.19808 -10.19522
  Beta  occ. eigenvalues --  -10.14426  -9.44926  -9.44815  -9.44550  -7.21348
  Beta  occ. eigenvalues --   -7.21231  -7.20947  -7.20455  -7.20382  -7.20346
  Beta  occ. eigenvalues --   -7.20278  -7.20082  -7.20038  -0.95587  -0.94661
  Beta  occ. eigenvalues --   -0.86092  -0.83902  -0.82011  -0.77195  -0.68713
  Beta  occ. eigenvalues --   -0.66407  -0.56608  -0.54374  -0.47204  -0.44862
  Beta  occ. eigenvalues --   -0.42530  -0.39924  -0.39904  -0.37717  -0.36225
  Beta  occ. eigenvalues --   -0.35778  -0.35028  -0.33866  -0.31056  -0.30973
  Beta  occ. eigenvalues --   -0.30251  -0.29746  -0.28635  -0.23848  -0.21731
  Beta  occ. eigenvalues --   -0.21554  -0.21091  -0.13617
  Beta virt. eigenvalues --   -0.00823   0.00369   0.01194   0.01779   0.03121
  Beta virt. eigenvalues --    0.03939   0.04833   0.05456   0.05738   0.06201
  Beta virt. eigenvalues --    0.06332   0.07565   0.08353   0.08524   0.08919

 Mulliken charges and spin densities:
               1          2
     1  Cl   0.110600  -0.000000
     2  C    1.240092   0.000000
     3  C   -0.823821  -0.000000
     4  C   -1.082817   0.000000
     5  O   -0.646685   0.000000
     6  C    0.399089  -0.000000
     7  C    0.518694   0.000000
     8  Cl   0.219794  -0.000000
     9  C   -1.719056  -0.000000
    10  O   -0.579755   0.000000
    11  Cl   0.204795   0.000000
    12  H    0.159070  -0.000000
 Sum of Mulliken charges =  -2.00000  -0.00000

 Dipole moment (field-independent basis, Debye):
    X=             -1.1894    Y=              1.7675    Z=              0.0001  Tot=              2.1304
 Quadrupole moment (field-independent basis, Debye-Ang):
   XX=           -125.1963   YY=           -141.5087   ZZ=            -91.0453
   XY=            -19.9973   XZ=             -0.0002   YZ=             -0.0004

 Normal termination of Gaussian 16 at Sun Jan 21 07:36:50 2024.
