 Q-Chem 5.4, Q-Chem, Inc., Pleasanton, CA (2021)
 Q-Chem 5.4.0 for Intel X86 EM64T Linux

User input:
--------------------------------------------------------------
$molecule
-2 1
C                 -3.3629870000     -0.7027020000     -0.3595800000
C                 -1.9395960000     -0.2882270000     -0.0946550000
C                 -1.6491180000      0.7239620000      0.8513850000
C                 -0.3582200000      1.1352950000      1.1256390000
O                 -0.1233580000      2.1297060000      2.0596770000
C                  0.7308180000      0.5239370000      0.4353250000
C                  2.1059040000      0.9461850000      0.7120640000
O                  2.3493370000      1.8830590000      1.5903550000
C                  3.1311370000      0.2980870000     -0.0080230000
C                  2.8439890000     -0.7113300000     -0.9517780000
C                  1.5462100000     -1.1101190000     -1.2130800000
C                  0.4586220000     -0.5041670000     -0.5278910000
C                 -0.9112370000     -0.9450710000     -0.8229920000
O                 -1.1617140000     -1.8699370000     -1.6887850000
H                 -4.0658300000     -0.1250850000      0.2563500000
H                 -3.5199200000     -1.7733060000     -0.1561030000
H                 -3.6351230000     -0.5688970000     -1.4178960000
H                 -2.4639530000      1.2068260000      1.3921770000
H                  0.8868100000      2.2154780000      2.0472120000
H                  4.1561850000      0.6052900000      0.1910680000
H                  3.6706690000     -1.1849800000     -1.4852510000
H                  1.3113770000     -1.8840050000     -1.9352190000
$end
$rem
MAX_SCF_CYCLES=200
BASIS  =  6-311++G(d,p)
GUI  =  2
JOB_TYPE  =  SP
METHOD  =  B3LYP
SOLVENT_METHOD = COSMO
$end
$solvent
dielectric 37.219
opticaldielectric 1.43
$end

--------------------------------------------------------------

             Standard Nuclear Orientation (Angstroms)
    I     Atom           X                Y                Z
 ----------------------------------------------------------------
    1      C       3.6674211498     0.4372423250     0.0001305971
    2      C       2.1627219153     0.3748170788    -0.0000191773
    3      C       1.3932693766     1.5630251873     0.0000388194
    4      C       0.0109845764     1.5522332365    -0.0000301271
    5      O      -0.6988597192     2.7407455137     0.0001257356
    6      C      -0.6774078001     0.3022685488    -0.0000908967
    7      C      -2.1418889163     0.2701062223    -0.0000930060
    8      O      -2.8309476847     1.3807752079    -0.0002203780
    9      C      -2.7536906207    -1.0008609756     0.0001635133
   10      C      -1.9886428896    -2.1869267929     0.0001541675
   11      C      -0.6063852068    -2.1568365608     0.0000498908
   12      C       0.0833368832    -0.9143419411    -0.0000406902
   13      C       1.5523366591    -0.9084875977    -0.0000900539
   14      O       2.2417747550    -2.0004530138    -0.0001690926
   15      H       4.0215889616     1.4772172566     0.0042231445
   16      H       4.0962228656    -0.0733992111    -0.8759961580
   17      H       4.0957245639    -0.0806082601     0.8721291598
   18      H       1.8956906751     2.5310864026     0.0002097350
   19      H      -1.6628403602     2.4265912176     0.0000761553
   20      H      -3.8416232735    -1.0345782163     0.0001135370
   21      H      -2.5063720753    -3.1483289242     0.0002911015
   22      H      -0.0064609269    -3.0599543117     0.0000249847
 ----------------------------------------------------------------

   11    -649.8441948427      5.46e-06  Convergence criterion met
 Total energy in the final basis set =     -649.8441948427
    6    -650.1239684101      2.52e-06  Convergence criterion met
 Total energy in the final basis set =     -650.1239684101

                    Orbital Energies (a.u.)
 --------------------------------------------------------------

 Alpha MOs
 -- Occupied --
-19.1012 -19.0530 -19.0269 -10.2004 -10.1894 -10.1784 -10.1481 -10.1460
-10.1431 -10.1419 -10.1355 -10.1342 -10.1311 -10.1298  -1.0137  -0.9596
 -0.9419  -0.8186  -0.7812  -0.7274  -0.7024  -0.6782  -0.6371  -0.5882
 -0.5648  -0.5333  -0.4922  -0.4702  -0.4544  -0.4424  -0.4160  -0.4014
 -0.3973  -0.3885  -0.3824  -0.3737  -0.3609  -0.3537  -0.3449  -0.3421
 -0.3332  -0.3214  -0.3118  -0.2867  -0.2553  -0.2295  -0.2169  -0.2024
 -0.1858  -0.1318

          Ground-State Mulliken Net Atomic Charges

     Atom                 Charge (a.u.)
  ----------------------------------------
      1 C                    -0.385719
      2 C                     0.618066
      3 C                    -0.660245
      4 C                    -0.368043
      5 O                    -0.517291
      6 C                     0.533125
      7 C                    -0.333813
      8 O                    -0.690144
      9 C                    -0.309168
     10 C                    -0.433707
     11 C                    -0.217464
     12 C                     0.425454
     13 C                    -0.396626
     14 O                    -0.712099
     15 H                     0.145292
     16 H                     0.151192
     17 H                     0.151164
     18 H                     0.146886
     19 H                     0.371475
     20 H                     0.159149
     21 H                     0.176907
     22 H                     0.145608
  ----------------------------------------
  Sum of atomic charges =    -2.000000

                    Cartesian Multipole Moments
 -----------------------------------------------------------------
    Charge (ESU x 10^10)
                -9.6064
    Dipole Moment (Debye)
         X       1.1285      Y       0.8091      Z       0.0007
       Tot       1.3886
    Quadrupole Moments (Debye-Ang)
        XX    -135.4862     XY      26.5282     YY    -125.3072
        XZ      -0.0038     YZ      -0.0019     ZZ     -92.6190

 Total job time:  39.70s(wall), 297.48s(cpu)
        *  Thank you very much for using Q-Chem.  Have a nice day.  *
