 Gaussian 16, Revision A.03,
 Gaussian 16:  ES64L-G16RevA.03 25-Dec-2016

 ----------------------------------------------------------------------
 #P UB3LYP/6-311++G(d,p) nosym opt freq SCRF=(PCM,Solvent=n,n-DiMethylF
 ormamide)
 ----------------------------------------------------------------------

 --------
 Oxidized
 --------
 Symbolic Z-matrix:
 Charge = -1 Multiplicity = 1

 SCF Done:  E(UB3LYP) =  -1158.72287159     A.U. after   17 cycles
 SCF Done:  E(UB3LYP) =  -1158.72339864     A.U. after   13 cycles
 SCF Done:  E(UB3LYP) =  -1158.72376745     A.U. after   13 cycles
 SCF Done:  E(UB3LYP) =  -1158.72376546     A.U. after   12 cycles
 SCF Done:  E(UB3LYP) =  -1158.72377877     A.U. after   12 cycles
 SCF Done:  E(UB3LYP) =  -1158.72378328     A.U. after   11 cycles
 SCF Done:  E(UB3LYP) =  -1158.72378315     A.U. after   11 cycles
 SCF Done:  E(UB3LYP) =  -1158.72378368     A.U. after   10 cycles
 Optimization completed.
    -- Stationary point found.
 Normal termination of Gaussian 16 at Sun Feb 11 16:36:59 2024.

 ----------------------------------------------------------------------
 #P Geom=AllCheck Guess=TCheck SCRF=Check GenChk UB3LYP/6-311++G(d,p) F
 req
 ----------------------------------------------------------------------

 Structure from the checkpoint file:  "326.chk"
 --------
 Oxidized
 --------
 Charge = -1 Multiplicity = 1

                          Input orientation:
 ---------------------------------------------------------------------
 Center     Atomic      Atomic             Coordinates (Angstroms)
 Number     Number       Type             X           Y           Z
 ---------------------------------------------------------------------
      1          6           0       -1.858944    2.801572   -0.792019
      2          6           0       -2.936665    1.969982   -0.503941
      3          6           0       -2.696934    0.667805   -0.072483
      4          6           0       -0.548033    2.339650   -0.652791
      5          6           0       -0.295727    1.014749   -0.214754
      6          6           0       -1.392757    0.193714    0.071676
      7          6           0        0.567501    3.257503   -0.971389
      8          6           0        2.012946    2.707542   -0.819941
      9          6           0        2.163611    1.334067   -0.358903
     10          6           0        1.098658    0.555054   -0.079009
     11          8           0        0.410969    4.405093   -1.340852
     12          8           0        2.957803    3.430619   -1.086181
     13          1           0       -2.017586    3.818397   -1.129066
     14          1           0       -3.950991    2.333655   -0.614862
     15          1           0       -3.527244    0.009827    0.155541
     16          1           0       -1.233481   -0.819726    0.408013
     17          1           0        3.170497    0.952810   -0.246305
     18         16           0        1.454524   -1.153140    0.494368
     19          8           0        2.933143   -1.263984    0.518867
     20          8           0        0.808703   -2.031672   -0.516756
     21          8           0        0.829360   -1.234910    1.841057
 ---------------------------------------------------------------------

 SCF Done:  E(UB3LYP) =  -1158.72378368     A.U. after    1 cycles

 Alpha  occ. eigenvalues --  -89.05551 -19.14527 -19.14380 -19.09910 -19.09882
 Alpha  occ. eigenvalues --  -19.09881 -10.28662 -10.28383 -10.23910 -10.22237
 Alpha  occ. eigenvalues --  -10.20920 -10.20164 -10.20087 -10.19971 -10.19748
 Alpha  occ. eigenvalues --  -10.19685  -8.11432  -6.07693  -6.07679  -6.07639
 Alpha  occ. eigenvalues --   -1.11925  -1.08653  -1.05933  -0.98264  -0.98061
 Alpha  occ. eigenvalues --   -0.89818  -0.84352  -0.78704  -0.76781  -0.72137
 Alpha  occ. eigenvalues --   -0.65421  -0.64007  -0.62092  -0.57788  -0.54780
 Alpha  occ. eigenvalues --   -0.53246  -0.51264  -0.48665  -0.47758  -0.46462
 Alpha  occ. eigenvalues --   -0.46233  -0.46142  -0.45710  -0.45694  -0.44705
 Alpha  occ. eigenvalues --   -0.42635  -0.40624  -0.39384  -0.38252  -0.37732
 Alpha  occ. eigenvalues --   -0.34550  -0.34128  -0.33918  -0.32345  -0.30595
 Alpha  occ. eigenvalues --   -0.29875  -0.29813  -0.28070  -0.26644  -0.26364
 Alpha  occ. eigenvalues --   -0.26147
 Alpha virt. eigenvalues --   -0.13721  -0.06018  -0.02716  -0.00208   0.00290
 Alpha virt. eigenvalues --    0.00960   0.01437   0.02968   0.03338   0.04345
 Alpha virt. eigenvalues --    0.04428   0.05840   0.05854   0.06262   0.06919

  Beta  occ. eigenvalues --  -89.05551 -19.14527 -19.14380 -19.09910 -19.09882
  Beta  occ. eigenvalues --  -19.09881 -10.28662 -10.28383 -10.23910 -10.22237
  Beta  occ. eigenvalues --  -10.20920 -10.20164 -10.20087 -10.19971 -10.19748
  Beta  occ. eigenvalues --  -10.19685  -8.11432  -6.07693  -6.07679  -6.07639
  Beta  occ. eigenvalues --   -1.11925  -1.08653  -1.05933  -0.98264  -0.98061
  Beta  occ. eigenvalues --   -0.89818  -0.84352  -0.78704  -0.76781  -0.72137
  Beta  occ. eigenvalues --   -0.65421  -0.64007  -0.62092  -0.57788  -0.54780
  Beta  occ. eigenvalues --   -0.53246  -0.51264  -0.48665  -0.47758  -0.46462
  Beta  occ. eigenvalues --   -0.46233  -0.46142  -0.45710  -0.45694  -0.44705
  Beta  occ. eigenvalues --   -0.42635  -0.40624  -0.39384  -0.38252  -0.37732
  Beta  occ. eigenvalues --   -0.34550  -0.34128  -0.33918  -0.32345  -0.30595
  Beta  occ. eigenvalues --   -0.29875  -0.29813  -0.28070  -0.26644  -0.26364
  Beta  occ. eigenvalues --   -0.26147
  Beta virt. eigenvalues --   -0.13721  -0.06018  -0.02716  -0.00208   0.00290
  Beta virt. eigenvalues --    0.00960   0.01437   0.02968   0.03338   0.04345
  Beta virt. eigenvalues --    0.04428   0.05840   0.05854   0.06262   0.06919

 Mulliken charges and spin densities:
               1          2
     1  C    0.196067  -0.000000
     2  C   -0.472742   0.000000
     3  C   -0.805758   0.000000
     4  C    0.497965   0.000000
     5  C    1.055054  -0.000000
     6  C   -0.501832   0.000000
     7  C   -0.544855   0.000000
     8  C    0.094534  -0.000000
     9  C    0.017800   0.000000
    10  C   -0.559856   0.000000
    11  O   -0.272590  -0.000000
    12  O   -0.303753   0.000000
    13  H    0.188037   0.000000
    14  H    0.208919  -0.000000
    15  H    0.212810   0.000000
    16  H    0.172784   0.000000
    17  H    0.274002   0.000000
    18  S    0.541592   0.000000
    19  O   -0.286849   0.000000
    20  O   -0.354993  -0.000000
    21  O   -0.356337  -0.000000
 Sum of Mulliken charges =  -1.00000   0.00000

 Dipole moment (field-independent basis, Debye):
    X=            -12.6195    Y=              1.8643    Z=             -1.0886  Tot=             12.8028
 Quadrupole moment (field-independent basis, Debye-Ang):
   XX=           -116.7154   YY=           -146.4998   ZZ=           -113.4869
   XY=             -6.9304   XZ=              0.9575   YZ=             12.8644

  Exact polarizability: 288.398  29.949 252.348 -12.393 -44.618 135.297
 Approx polarizability: 340.870  52.455 297.241 -20.383 -51.631 162.316

                      1                      2                      3
                      A                      A                      A
 Frequencies --     48.6462                55.9526                84.2554
 Red. masses --      9.9775                14.5604                 6.1478
 Frc consts  --      0.0139                 0.0269                 0.0257
 IR Inten    --      4.7293                 2.9822                 1.0699

                      4                      5                      6
                      A                      A                      A
 Frequencies --    127.1142               149.1918               189.6858
 Red. masses --      6.0599                 9.3196                 4.8589
 Frc consts  --      0.0577                 0.1222                 0.1030
 IR Inten    --      6.8729                16.8326                 2.5973

                      7                      8                      9
                      A                      A                      A
 Frequencies --    234.5416               235.9663               272.0879
 Red. masses --     12.7994                11.5158                 8.9949
 Frc consts  --      0.4148                 0.3778                 0.3923
 IR Inten    --      7.2120                 3.9280                 1.2811

                     10                     11                     12
                      A                      A                      A
 Frequencies --    324.0152               371.0150               403.3636
 Red. masses --      9.0898                14.8322                 3.6528
 Frc consts  --      0.5623                 1.2029                 0.3502
 IR Inten    --      9.7184                10.5083                 0.2613

                     13                     14                     15
                      A                      A                      A
 Frequencies --    423.7027               430.3644               471.6726
 Red. masses --     10.0224                 5.8374                 8.3045
 Frc consts  --      1.0601                 0.6370                 1.0885
 IR Inten    --      7.0567                 0.3868                10.0682

                     16                     17                     18
                      A                      A                      A
 Frequencies --    491.8496               496.3925               521.1332
 Red. masses --     15.6566                 8.2020                 4.9216
 Frc consts  --      2.2316                 1.1907                 0.7875
 IR Inten    --     33.3073                45.3829                38.0068

                     19                     20                     21
                      A                      A                      A
 Frequencies --    574.2141               622.3036               626.9335
 Red. masses --     12.0010                 9.8707                 4.5204
 Frc consts  --      2.3314                 2.2522                 1.0468
 IR Inten    --    152.5173               175.1312                 1.3004

                     22                     23                     24
                      A                      A                      A
 Frequencies --    669.3152               701.8595               720.6543
 Red. masses --      6.3240                 6.7245                 3.4983
 Frc consts  --      1.6692                 1.9517                 1.0704
 IR Inten    --     16.4816                 2.7404                 6.4132

                     25                     26                     27
                      A                      A                      A
 Frequencies --    776.5784               778.2657               821.3143
 Red. masses --      6.0730                 1.4666                 3.0287
 Frc consts  --      2.1579                 0.5234                 1.2037
 IR Inten    --      0.6930                83.5783                 0.3771

                     28                     29                     30
                      A                      A                      A
 Frequencies --    900.1578               905.0783               915.3452
 Red. masses --      1.3896                 1.7025                 6.6963
 Frc consts  --      0.6634                 0.8217                 3.3056
 IR Inten    --      6.8331                26.0026                21.6216

                     31                     32                     33
                      A                      A                      A
 Frequencies --    972.0200               990.0846               991.2274
 Red. masses --      7.7343                 1.4684                 9.8333
 Frc consts  --      4.3055                 0.8481                 5.6924
 IR Inten    --     39.9402                16.2577               299.2460

                     34                     35                     36
                      A                      A                      A
 Frequencies --   1016.9969              1067.4854              1123.3817
 Red. masses --      1.3421                 2.2058                 2.2769
 Frc consts  --      0.8179                 1.4810                 1.6929
 IR Inten    --      0.2831                 3.4652                15.2509

                     37                     38                     39
                      A                      A                      A
 Frequencies --   1131.8302              1146.0950              1174.9645
 Red. masses --     19.5043                11.5341                 2.1371
 Frc consts  --     14.7212                 8.9263                 1.7383
 IR Inten    --    535.6333               512.7843                19.9499

                     40                     41                     42
                      A                      A                      A
 Frequencies --   1190.3299              1223.8253              1266.9966
 Red. masses --      1.1842                 2.6634                 2.9433
 Frc consts  --      0.9886                 2.3503                 2.7838
 IR Inten    --     11.5477                21.9064               225.6403

                     43                     44                     45
                      A                      A                      A
 Frequencies --   1309.7286              1340.9017              1345.1796
 Red. masses --      1.9329                 3.8992                 3.0089
 Frc consts  --      1.9535                 4.1307                 3.2079
 IR Inten    --    204.1581                 1.5610                83.6543

                     46                     47                     48
                      A                      A                      A
 Frequencies --   1476.0236              1510.4248              1596.4125
 Red. masses --      2.2389                 2.5402                 5.8738
 Frc consts  --      2.8739                 3.4144                 8.8198
 IR Inten    --     35.0132                 0.9403                42.3492

                     49                     50                     51
                      A                      A                      A
 Frequencies --   1619.4578              1627.2436              1702.8398
 Red. masses --      5.4461                 7.6387                12.6744
 Frc consts  --      8.4155                11.9172                21.6533
 IR Inten    --     75.6380               256.9507              1007.8544

                     52                     53                     54
                      A                      A                      A
 Frequencies --   1738.2902              3180.9385              3192.7264
 Red. masses --     12.6226                 1.0877                 1.0916
 Frc consts  --     22.4721                 6.4843                 6.5558
 IR Inten    --    115.5620                 4.2976                10.3221

                     55                     56                     57
                      A                      A                      A
 Frequencies --   3202.5443              3203.0146              3233.2440
 Red. masses --      1.0910                 1.0958                 1.0924
 Frc consts  --      6.5927                 6.6239                 6.7285
 IR Inten    --      9.6171                14.7689                 2.4143

 - Thermochemistry -
 -------------------
 Temperature   298.150 Kelvin.  Pressure   1.00000 Atm.
 Atom     1 has atomic number  6 and mass  12.00000

 Molecular mass:   236.98577 amu.
 Principal axes and moments of inertia in atomic units:
                           1         2         3
     Eigenvalues --  2604.893414056.811276307.77730
           X           -0.37413   0.92729   0.01275
           Y            0.88061   0.35092   0.31839
           Z           -0.29077  -0.13034   0.94787
 This molecule is an asymmetric top.
 Rotational symmetry number  1.
 Warning -- assumption of classical behavior for rotation
           may cause significant error
 Rotational temperatures (Kelvin)      0.03325     0.02135     0.01373
 Rotational constants (GHZ):           0.69283     0.44487     0.28611
 Zero-point vibrational energy     352403.0 (Joules/Mol)
                                   84.22633 (Kcal/Mol)
 Warning -- explicit consideration of  19 degrees of freedom as
           vibrations may cause significant error
 Vibrational temperatures:     69.99    80.50   121.22   182.89   214.65
          (Kelvin)            272.92   337.45   339.50   391.47   466.19
                              533.81   580.35   609.61   619.20   678.63
                              707.66   714.20   749.79   826.17   895.36
                              902.02   963.00  1009.82  1036.86  1117.32
                             1119.75  1181.69  1295.13  1302.21  1316.98
                             1398.52  1424.51  1426.16  1463.23  1535.87
                             1616.30  1628.45  1648.98  1690.51  1712.62
                             1760.81  1822.93  1884.41  1929.26  1935.41
                             2123.67  2173.16  2296.88  2330.04  2341.24
                             2450.01  2501.01  4576.66  4593.62  4607.75
                             4608.42  4651.92

 Zero-point correction=                           0.134223 (Hartree/Particle)
 Thermal correction to Energy=                    0.146948
 Thermal correction to Enthalpy=                  0.147892
 Thermal correction to Gibbs Free Energy=         0.094099
 Sum of electronic and zero-point Energies=          -1158.589560
 Sum of electronic and thermal Energies=             -1158.576836
 Sum of electronic and thermal Enthalpies=           -1158.575892
 Sum of electronic and thermal Free Energies=        -1158.629684

                     E (Thermal)             CV                S
                      KCal/Mol        Cal/Mol-Kelvin    Cal/Mol-Kelvin
 Total                   92.211             48.531            113.216
 Electronic               0.000              0.000              0.000
 Translational            0.889              2.981             42.290
 Rotational               0.889              2.981             32.566
 Vibrational             90.434             42.570             38.360
 Vibration     1          0.595              1.978              4.872
 Vibration     2          0.596              1.975              4.595
 Vibration     3          0.601              1.960              3.789
 Vibration     4          0.611              1.926              2.989
 Vibration     5          0.618              1.904              2.683
 Vibration     6          0.633              1.854              2.231
 Vibration     7          0.654              1.788              1.844
 Vibration     8          0.655              1.786              1.833
 Vibration     9          0.675              1.725              1.583
 Vibration    10          0.709              1.627              1.290
 Vibration    11          0.743              1.532              1.076
 Vibration    12          0.769              1.463              0.950
 Vibration    13          0.786              1.419              0.879
 Vibration    14          0.792              1.404              0.857
 Vibration    15          0.829              1.313              0.733
 Vibration    16          0.848              1.268              0.679
 Vibration    17          0.852              1.258              0.667
 Vibration    18          0.876              1.203              0.607
 Vibration    19          0.931              1.087              0.496

                           ! Non-Optimized Parameters !
 Normal termination of Gaussian 16 at Sun Feb 11 17:04:43 2024.
