 Gaussian 16, Revision A.03,
 Gaussian 16:  ES64L-G16RevA.03 25-Dec-2016

 ----------------------------------------------------------------
 #P UB3LYP/6-311++G(d,p) SCRF=(PCM,Solvent=n,n-DiMethylFormamide)
 ----------------------------------------------------------------

 ------------------
 Quinone PCM in DMF
 ------------------
 Symbolic Z-matrix:
 Charge =  0 Multiplicity = 1

                         Standard orientation:
 ---------------------------------------------------------------------
 Center     Atomic      Atomic             Coordinates (Angstroms)
 Number     Number       Type             X           Y           Z
 ---------------------------------------------------------------------
      1          6           0        5.076346   -0.757170    1.002500
      2          6           0        4.454231   -0.521833   -0.385923
      3          6           0        3.041479    0.009568   -0.309337
      4          6           0        2.794092    1.389550   -0.240839
      5          6           0        1.501235    1.883586   -0.134780
      6          6           0        0.412102    1.007823   -0.094650
      7          6           0       -0.965555    1.561508    0.016884
      8          8           0       -1.165893    2.764426    0.077664
      9          6           0       -2.096550    0.586817    0.052244
     10          6           0       -3.404831    1.068775    0.157518
     11          6           0       -4.475440    0.183164    0.192261
     12          6           0       -4.248619   -1.194263    0.122040
     13          6           0       -2.951707   -1.682605    0.017181
     14          6           0       -1.868261   -0.799166   -0.018388
     15          6           0       -0.486235   -1.352107   -0.131559
     16          8           0       -0.289382   -2.555110   -0.193872
     17          6           0        0.643397   -0.377314   -0.164453
     18          6           0        1.950102   -0.859005   -0.271284
     19          1           0        4.493807   -1.483676    1.574960
     20          1           0        6.096505   -1.138685    0.908340
     21          1           0        5.113148    0.170417    1.580042
     22          1           0        5.076253    0.182770   -0.946796
     23          1           0        4.457221   -1.460738   -0.947420
     24          1           0        3.629131    2.082155   -0.276867
     25          1           0        1.310037    2.948555   -0.085417
     26          1           0       -3.557109    2.139689    0.210442
     27          1           0       -5.487859    0.562191    0.273996
     28          1           0       -5.085066   -1.883413    0.149226
     29          1           0       -2.752665   -2.745662   -0.038740
     30          1           0        2.094078   -1.932095   -0.328590
 ---------------------------------------------------------------------

 SCF Done:  E(UB3LYP) =  -767.615920751     A.U. after   15 cycles

 The electronic state is 1-A.
 Alpha  occ. eigenvalues --  -19.13224 -19.13097 -10.28394 -10.28294 -10.20965
 Alpha  occ. eigenvalues --  -10.20914 -10.20817 -10.20601 -10.20562 -10.19969
 Alpha  occ. eigenvalues --  -10.19921 -10.19849 -10.19834 -10.19719 -10.19542
 Alpha  occ. eigenvalues --  -10.19455 -10.18083 -10.16615  -1.06726  -1.06513
 Alpha  occ. eigenvalues --   -0.89543  -0.88404  -0.82258  -0.79200  -0.77970
 Alpha  occ. eigenvalues --   -0.77480  -0.74654  -0.68958  -0.67069  -0.64895
 Alpha  occ. eigenvalues --   -0.62291  -0.60969  -0.58691  -0.56083  -0.54665
 Alpha  occ. eigenvalues --   -0.50670  -0.49432  -0.48715  -0.47701  -0.45971
 Alpha  occ. eigenvalues --   -0.45631  -0.45553  -0.45235  -0.44716  -0.44283
 Alpha  occ. eigenvalues --   -0.42759  -0.42081  -0.41976  -0.39786  -0.38700
 Alpha  occ. eigenvalues --   -0.38208  -0.37576  -0.36784  -0.36086  -0.35306
 Alpha  occ. eigenvalues --   -0.34843  -0.28899  -0.28863  -0.28059  -0.27715
 Alpha  occ. eigenvalues --   -0.27595  -0.26921
 Alpha virt. eigenvalues --   -0.11854  -0.07441  -0.03657  -0.02737  -0.00755
 Alpha virt. eigenvalues --   -0.00033   0.00877   0.01431   0.01671   0.01906
 Alpha virt. eigenvalues --    0.03146   0.03419   0.03585   0.03791   0.03874

  Beta  occ. eigenvalues --  -19.13224 -19.13097 -10.28394 -10.28294 -10.20965
  Beta  occ. eigenvalues --  -10.20914 -10.20817 -10.20601 -10.20562 -10.19969
  Beta  occ. eigenvalues --  -10.19921 -10.19849 -10.19834 -10.19719 -10.19542
  Beta  occ. eigenvalues --  -10.19455 -10.18083 -10.16615  -1.06726  -1.06513
  Beta  occ. eigenvalues --   -0.89543  -0.88404  -0.82258  -0.79200  -0.77970
  Beta  occ. eigenvalues --   -0.77480  -0.74654  -0.68958  -0.67069  -0.64895
  Beta  occ. eigenvalues --   -0.62291  -0.60969  -0.58691  -0.56083  -0.54665
  Beta  occ. eigenvalues --   -0.50670  -0.49432  -0.48715  -0.47701  -0.45971
  Beta  occ. eigenvalues --   -0.45631  -0.45553  -0.45235  -0.44716  -0.44283
  Beta  occ. eigenvalues --   -0.42759  -0.42081  -0.41976  -0.39786  -0.38700
  Beta  occ. eigenvalues --   -0.38208  -0.37576  -0.36784  -0.36086  -0.35306
  Beta  occ. eigenvalues --   -0.34843  -0.28899  -0.28863  -0.28059  -0.27715
  Beta  occ. eigenvalues --   -0.27595  -0.26921
  Beta virt. eigenvalues --   -0.11854  -0.07441  -0.03657  -0.02737  -0.00755
  Beta virt. eigenvalues --   -0.00033   0.00877   0.01431   0.01671   0.01906
  Beta virt. eigenvalues --    0.03146   0.03419   0.03585   0.03791   0.03874

 Mulliken charges and spin densities:
               1          2
     1  C   -0.661982  -0.000000
     2  C   -0.132108   0.000000
     3  C    0.698110   0.000000
     4  C   -0.585434  -0.000000
     5  C    0.099514  -0.000000
     6  C    0.173986  -0.000000
     7  C   -0.728632   0.000000
     8  O   -0.275928  -0.000000
     9  C    0.103462   0.000000
    10  C    0.198550  -0.000000
    11  C   -0.425676   0.000000
    12  C   -0.421240  -0.000000
    13  C    0.160237   0.000000
    14  C    0.344239  -0.000000
    15  C   -0.678491   0.000000
    16  O   -0.268622   0.000000
    17  C    0.356970   0.000000
    18  C   -0.111360  -0.000000
    19  H    0.148379   0.000000
    20  H    0.150690  -0.000000
    21  H    0.147299   0.000000
    22  H    0.170176   0.000000
    23  H    0.170493  -0.000000
    24  H    0.207393  -0.000000
    25  H    0.189973  -0.000000
    26  H    0.185906   0.000000
    27  H    0.208206   0.000000
    28  H    0.208866  -0.000000
    29  H    0.183967   0.000000
    30  H    0.183055  -0.000000
 Sum of Mulliken charges =  -0.00000   0.00000

 Dipole moment (field-independent basis, Debye):
    X=              0.9716    Y=             -0.3074    Z=              0.0410  Tot=              1.0199
 Quadrupole moment (field-independent basis, Debye-Ang):
   XX=            -70.1828   YY=           -117.3899   ZZ=           -107.6003
   XY=              6.4872   XZ=             -1.8456   YZ=             -0.8603

 Normal termination of Gaussian 16 at Sun Jan 14 01:05:04 2024.
