 Gaussian 16, Revision A.03,
 Gaussian 16:  ES64L-G16RevA.03 25-Dec-2016

 ----------------------------------------------------------------------
 #P UB3LYP/6-311++G(d,p) nosym opt freq SCRF=(PCM,Solvent=n,n-DiMethylF
 ormamide)
 ----------------------------------------------------------------------

 -------
 Radical
 -------
 Symbolic Z-matrix:
 Charge = -1 Multiplicity = 2

 SCF Done:  E(UB3LYP) =  -1077.94110992     A.U. after   20 cycles
 SCF Done:  E(UB3LYP) =  -1077.94158802     A.U. after   16 cycles
 SCF Done:  E(UB3LYP) =  -1077.94164042     A.U. after   15 cycles
 SCF Done:  E(UB3LYP) =  -1077.94167749     A.U. after   13 cycles
 SCF Done:  E(UB3LYP) =  -1077.94168210     A.U. after   12 cycles
 SCF Done:  E(UB3LYP) =  -1077.94168290     A.U. after    9 cycles
 SCF Done:  E(UB3LYP) =  -1077.94168310     A.U. after    9 cycles
 Optimization completed.
    -- Stationary point found.
 Normal termination of Gaussian 16 at Sun Feb 11 16:15:51 2024.

 ----------------------------------------------------------------------
 #P Geom=AllCheck Guess=TCheck SCRF=Check GenChk UB3LYP/6-311++G(d,p) F
 req
 ----------------------------------------------------------------------

 Structure from the checkpoint file:  "305-rad.chk"
 -------
 Radical
 -------
 Charge = -1 Multiplicity = 2

                          Input orientation:
 ---------------------------------------------------------------------
 Center     Atomic      Atomic             Coordinates (Angstroms)
 Number     Number       Type             X           Y           Z
 ---------------------------------------------------------------------
      1          6           0        4.169668   -1.325058    3.853843
      2          6           0        3.419430   -0.976284    4.964779
      3          6           0        2.534316    0.123128    4.904262
      4          6           0        4.052487   -0.582691    2.655951
      5          6           0        3.166110    0.524082    2.586847
      6          6           0        2.419105    0.849217    3.736266
      7          6           0        4.835325   -0.946461    1.493407
      8          6           0        4.663192   -0.141684    0.309546
      9          6           0        3.816287    0.944133    0.209756
     10          6           0        3.019859    1.321456    1.355559
     11          8           0        5.660401   -1.923663    1.447318
     12          8           0        2.223836    2.304463    1.317064
     13          8           0        5.430880   -0.539274   -0.747430
     14          8           0        3.460344   -1.629099    6.166738
     15          6           0        4.333691   -2.750865    6.298691
     16          6           0        3.694282    1.726674   -1.073706
     17          6           0        2.583155    1.208963   -2.010509
     18          6           0        2.466491    2.031525   -3.299709
     19          6           0        1.329537    1.611361   -4.247595
     20          6           0        1.538197    0.208381   -4.848991
     21          6           0        1.140405    2.643574   -5.375363
     22          6           0        0.014948    2.257769   -6.345632
     23          6           0        0.231242    0.855542   -6.930685
     24          6           0        0.414139   -0.185954   -5.818734
     25          1           0        4.856847   -2.159419    3.866674
     26          1           0        1.956572    0.378228    5.785271
     27          1           0        1.741795    1.693245    3.684892
     28          1           0        5.922621   -1.307758   -0.389297
     29          1           0        4.206389   -3.109342    7.318476
     30          1           0        5.376807   -2.460705    6.140989
     31          1           0        4.065906   -3.545631    5.595980
     32          1           0        4.648043    1.699434   -1.609852
     33          1           0        3.485283    2.771738   -0.827514
     34          1           0        1.627252    1.234688   -1.474794
     35          1           0        2.782096    0.158784   -2.246319
     36          1           0        3.419148    1.989847   -3.846076
     37          1           0        2.319032    3.084925   -3.027445
     38          1           0        0.397364    1.588163   -3.662458
     39          1           0        1.615681   -0.539414   -4.054011
     40          1           0        2.498512    0.195909   -5.384010
     41          1           0        2.082986    2.734370   -5.933456
     42          1           0        0.940274    3.629843   -4.941310
     43          1           0       -0.058231    2.997800   -7.149950
     44          1           0       -0.944497    2.281077   -5.812160
     45          1           0        1.126009    0.864520   -7.567236
     46          1           0       -0.609203    0.579043   -7.576415
     47          1           0        0.622058   -1.170483   -6.251553
     48          1           0       -0.525703   -0.283973   -5.259443
 ---------------------------------------------------------------------

 SCF Done:  E(UB3LYP) =  -1077.94168310     A.U. after    1 cycles

 Alpha  occ. eigenvalues --  -19.15662 -19.14242 -19.08335 -19.07112 -10.23467
 Alpha  occ. eigenvalues --  -10.22158 -10.21978 -10.21978 -10.21828 -10.17659
 Alpha  occ. eigenvalues --  -10.17246 -10.16988 -10.16810 -10.16747 -10.16258
 Alpha  occ. eigenvalues --  -10.16028 -10.15740 -10.15727 -10.15705 -10.15701
 Alpha  occ. eigenvalues --  -10.15561 -10.15538 -10.15504 -10.15488  -1.06861
 Alpha  occ. eigenvalues --   -1.06110  -0.99378  -0.99168  -0.85798  -0.83076
 Alpha  occ. eigenvalues --   -0.81041  -0.78290  -0.75835  -0.75223  -0.73493
 Alpha  occ. eigenvalues --   -0.73012  -0.69990  -0.68124  -0.65275  -0.61865
 Alpha  occ. eigenvalues --   -0.61172  -0.60173  -0.58013  -0.57426  -0.56550
 Alpha  occ. eigenvalues --   -0.54632  -0.54312  -0.51588  -0.48736  -0.48182
 Alpha  occ. eigenvalues --   -0.47794  -0.47023  -0.46976  -0.45674  -0.43817
 Alpha  occ. eigenvalues --   -0.43732  -0.43506  -0.42968  -0.42876  -0.42146
 Alpha  occ. eigenvalues --   -0.41516  -0.40578  -0.40107  -0.39603  -0.38795
 Alpha  occ. eigenvalues --   -0.38767  -0.37827  -0.37217  -0.37140  -0.36248
 Alpha  occ. eigenvalues --   -0.35831  -0.35499  -0.34651  -0.33985  -0.33664
 Alpha  occ. eigenvalues --   -0.33452  -0.33122  -0.32617  -0.31875  -0.31280
 Alpha  occ. eigenvalues --   -0.30958  -0.29227  -0.28834  -0.26335  -0.25725
 Alpha  occ. eigenvalues --   -0.24471  -0.23709  -0.21837  -0.14992
 Alpha virt. eigenvalues --   -0.02788  -0.00643  -0.00243  -0.00073   0.00501
 Alpha virt. eigenvalues --    0.00733   0.00911   0.01352   0.02068   0.02506
 Alpha virt. eigenvalues --    0.02599   0.03459   0.03500   0.03663   0.03874

  Beta  occ. eigenvalues --  -19.15664 -19.14201 -19.07687 -19.06589 -10.23468
  Beta  occ. eigenvalues --  -10.22030 -10.21978 -10.21895 -10.21524 -10.17637
  Beta  occ. eigenvalues --  -10.17276 -10.16917 -10.16738 -10.16658 -10.16258
  Beta  occ. eigenvalues --  -10.15927 -10.15740 -10.15727 -10.15709 -10.15705
  Beta  occ. eigenvalues --  -10.15560 -10.15528 -10.15503 -10.15487  -1.06857
  Beta  occ. eigenvalues --   -1.05916  -0.98460  -0.98059  -0.85579  -0.83071
  Beta  occ. eigenvalues --   -0.80740  -0.78146  -0.75734  -0.75028  -0.73490
  Beta  occ. eigenvalues --   -0.72927  -0.69892  -0.67550  -0.64888  -0.61692
  Beta  occ. eigenvalues --   -0.61097  -0.60123  -0.57885  -0.57194  -0.56512
  Beta  occ. eigenvalues --   -0.54627  -0.54206  -0.51385  -0.48564  -0.48135
  Beta  occ. eigenvalues --   -0.47514  -0.47009  -0.46943  -0.45630  -0.43731
  Beta  occ. eigenvalues --   -0.43557  -0.43360  -0.42869  -0.42157  -0.41955
  Beta  occ. eigenvalues --   -0.41218  -0.40275  -0.39897  -0.39305  -0.38618
  Beta  occ. eigenvalues --   -0.38172  -0.37693  -0.37203  -0.36325  -0.36027
  Beta  occ. eigenvalues --   -0.35612  -0.34734  -0.34137  -0.33717  -0.33413
  Beta  occ. eigenvalues --   -0.33290  -0.33063  -0.32568  -0.31799  -0.30959
  Beta  occ. eigenvalues --   -0.30346  -0.29190  -0.28813  -0.25155  -0.25099
  Beta  occ. eigenvalues --   -0.23223  -0.22871  -0.21263
  Beta virt. eigenvalues --   -0.08407  -0.02059  -0.00594  -0.00125   0.00484
  Beta virt. eigenvalues --    0.00686   0.00858   0.00938   0.01354   0.02086
  Beta virt. eigenvalues --    0.02520   0.02613   0.03475   0.03539   0.03704

 Mulliken charges and spin densities:
               1          2
     1  C    0.891895   0.092952
     2  C   -0.935846  -0.011632
     3  C   -0.424037   0.050393
     4  C    0.904503   0.013055
     5  C   -0.569228   0.056429
     6  C    0.170205   0.002850
     7  C   -0.794278   0.189806
     8  C   -0.636729   0.019878
     9  C    1.555047   0.072631
    10  C   -1.107814   0.070243
    11  O   -0.522116   0.236777
    12  O   -0.462246   0.193200
    13  O   -0.271728   0.015211
    14  O   -0.207453   0.001112
    15  C   -0.338827   0.000142
    16  C    0.089155   0.010404
    17  C   -0.559726  -0.012339
    18  C   -0.737459   0.008753
    19  C    0.974325  -0.002981
    20  C   -0.484470   0.000582
    21  C   -0.450297   0.000280
    22  C   -0.316173  -0.000051
    23  C   -0.391828   0.000196
    24  C   -0.345936   0.000633
    25  H    0.159826  -0.004572
    26  H    0.201234  -0.004575
    27  H    0.180792   0.000115
    28  H    0.293786  -0.003588
    29  H    0.189949  -0.000085
    30  H    0.168424   0.000187
    31  H    0.167688   0.000235
    32  H    0.210663  -0.000493
    33  H    0.200183   0.003238
    34  H    0.175842  -0.001963
    35  H    0.157046   0.003517
    36  H    0.111216  -0.000212
    37  H    0.131890   0.000246
    38  H    0.143469  -0.000066
    39  H    0.139095  -0.000348
    40  H    0.155787  -0.000196
    41  H    0.151749   0.000018
    42  H    0.139550  -0.000030
    43  H    0.176375  -0.000017
    44  H    0.126718   0.000020
    45  H    0.119962  -0.000002
    46  H    0.169642   0.000028
    47  H    0.164629   0.000021
    48  H    0.135543  -0.000001
 Sum of Mulliken charges =  -1.00000   1.00000

 Dipole moment (field-independent basis, Debye):
    X=            -17.7428    Y=             -2.8922    Z=             -5.9016  Tot=             18.9209
 Quadrupole moment (field-independent basis, Debye-Ang):
   XX=           -228.2485   YY=           -164.5335   ZZ=           -162.6730
   XY=              0.5099   XZ=            -16.4397   YZ=             -8.5565

  Exact polarizability: 329.857 -83.317 370.412 -21.415 -51.341 448.065
 Approx polarizability: 374.519-102.019 414.061 -41.698 -41.322 456.492

                      1                      2                      3
                      A                      A                      A
 Frequencies --     14.7786                19.2757                24.5950
 Red. masses --      5.8369                 3.5684                 3.9544
 Frc consts  --      0.0008                 0.0008                 0.0014
 IR Inten    --      1.1821                 1.0560                 1.9329

                      4                      5                      6
                      A                      A                      A
 Frequencies --     58.8800                67.3592                82.2170
 Red. masses --      4.3183                 3.4751                 4.8767
 Frc consts  --      0.0088                 0.0093                 0.0194
 IR Inten    --      6.3257                 1.2849                 1.0283

                      7                      8                      9
                      A                      A                      A
 Frequencies --    102.6463               121.0125               132.9979
 Red. masses --      4.0262                 2.5006                 3.6163
 Frc consts  --      0.0250                 0.0216                 0.0377
 IR Inten    --      1.4223                 0.2154                 3.7840

                     10                     11                     12
                      A                      A                      A
 Frequencies --    139.3090               157.5442               168.7515
 Red. masses --      4.7288                 4.5114                 4.8390
 Frc consts  --      0.0541                 0.0660                 0.0812
 IR Inten    --      9.9181                 2.7324                 1.4278

                     13                     14                     15
                      A                      A                      A
 Frequencies --    175.3214               218.5326               229.0685
 Red. masses --      2.7259                 1.9446                 1.7657
 Frc consts  --      0.0494                 0.0547                 0.0546
 IR Inten    --      0.2609                 0.1822                 0.0242

                     16                     17                     18
                      A                      A                      A
 Frequencies --    238.3965               265.7994               292.6868
 Red. masses --      1.9662                 3.7522                 3.4703
 Frc consts  --      0.0658                 0.1562                 0.1752
 IR Inten    --      0.1771                10.4939                 0.8907

                     19                     20                     21
                      A                      A                      A
 Frequencies --    302.2368               323.1458               333.6478
 Red. masses --      3.0173                 1.8906                 5.1532
 Frc consts  --      0.1624                 0.1163                 0.3380
 IR Inten    --      9.5558                 0.1527                18.7580

                     22                     23                     24
                      A                      A                      A
 Frequencies --    344.6278               357.8803               380.4790
 Red. masses --      3.8356                 8.4277                 4.2403
 Frc consts  --      0.2684                 0.6360                 0.3617
 IR Inten    --      0.6307                 9.9758                15.5942

                     25                     26                     27
                      A                      A                      A
 Frequencies --    416.6721               435.8247               438.5167
 Red. masses --      4.6849                 7.0306                 2.2752
 Frc consts  --      0.4792                 0.7868                 0.2578
 IR Inten    --     18.9612                 7.1109                 3.2528

                     28                     29                     30
                      A                      A                      A
 Frequencies --    445.6404               466.1323               469.9973
 Red. masses --      2.8820                 3.1807                 3.2222
 Frc consts  --      0.3372                 0.4072                 0.4194
 IR Inten    --      0.3195                 4.3805                14.7288

                     31                     32                     33
                      A                      A                      A
 Frequencies --    476.9589               504.9024               520.4244
 Red. masses --      4.9636                 6.0206                 7.3643
 Frc consts  --      0.6653                 0.9043                 1.1752
 IR Inten    --      0.7230                 8.1809                 0.9551

                     34                     35                     36
                      A                      A                      A
 Frequencies --    554.0112               605.6291               638.3985
 Red. masses --      1.9607                 4.1435                 4.1107
 Frc consts  --      0.3546                 0.8954                 0.9871
 IR Inten    --      6.3283                10.4514                18.0547

                     37                     38                     39
                      A                      A                      A
 Frequencies --    654.5403               680.6712               692.3330
 Red. masses --      1.1482                 4.2263                 6.6355
 Frc consts  --      0.2898                 1.1537                 1.8739
 IR Inten    --    120.5445                16.4149                14.3397

                     40                     41                     42
                      A                      A                      A
 Frequencies --    706.4874               722.3286               728.4187
 Red. masses --      3.9069                 9.0664                 1.3308
 Frc consts  --      1.1489                 2.7871                 0.4160
 IR Inten    --     28.5266                15.3479                11.7571

                     43                     44                     45
                      A                      A                      A
 Frequencies --    761.2602               767.0458               788.7056
 Red. masses --      4.4617                 2.7377                 2.1887
 Frc consts  --      1.5234                 0.9490                 0.8022
 IR Inten    --     12.5280                16.1752                18.5366

                     46                     47                     48
                      A                      A                      A
 Frequencies --    793.5531               826.8439               831.3033
 Red. masses --      1.7001                 1.5554                 1.9515
 Frc consts  --      0.6308                 0.6265                 0.7946
 IR Inten    --      3.0812                29.6619                26.5848

                     49                     50                     51
                      A                      A                      A
 Frequencies --    846.6882               870.3823               886.6659
 Red. masses --      2.1416                 1.5346                 2.0064
 Frc consts  --      0.9046                 0.6850                 0.9294
 IR Inten    --      3.6276                44.7297                34.4532

                     52                     53                     54
                      A                      A                      A
 Frequencies --    894.1627               919.6290               925.2818
 Red. masses --      1.9646                 2.2011                 1.8105
 Frc consts  --      0.9254                 1.0967                 0.9133
 IR Inten    --      8.5208                73.9619                22.5975

                     55                     56                     57
                      A                      A                      A
 Frequencies --    956.1970               976.5376               981.3067
 Red. masses --      3.4480                 2.7138                 1.3087
 Frc consts  --      1.8574                 1.5247                 0.7425
 IR Inten    --     23.3988                 9.4767                 1.0834

                     58                     59                     60
                      A                      A                      A
 Frequencies --   1012.7308              1017.2147              1037.1774
 Red. masses --      1.8072                 3.6683                 1.8276
 Frc consts  --      1.0921                 2.2364                 1.1583
 IR Inten    --      5.1415                 9.5783                 2.9331

                     61                     62                     63
                      A                      A                      A
 Frequencies --   1038.5617              1043.6844              1055.3333
 Red. masses --      3.2642                 2.9277                 2.7275
 Frc consts  --      2.0744                 1.8789                 1.7897
 IR Inten    --     45.5649                34.9774                57.1089

                     64                     65                     66
                      A                      A                      A
 Frequencies --   1071.7530              1091.1287              1100.1015
 Red. masses --      1.3876                 1.3969                 2.2100
 Frc consts  --      0.9391                 0.9798                 1.5758
 IR Inten    --     16.8326                 0.3750                44.6832

                     67                     68                     69
                      A                      A                      A
 Frequencies --   1104.2079              1112.1210              1132.1911
 Red. masses --      2.4650                 1.6908                 1.6550
 Frc consts  --      1.7708                 1.2321                 1.2499
 IR Inten    --      8.0717                 8.7674                58.3474

                     70                     71                     72
                      A                      A                      A
 Frequencies --   1167.3413              1170.5869              1183.1910
 Red. masses --      1.2742                 2.4560                 1.7669
 Frc consts  --      1.0230                 1.9828                 1.4574
 IR Inten    --      1.1379               108.0689                26.2543

                     73                     74                     75
                      A                      A                      A
 Frequencies --   1197.6122              1203.7656              1207.4075
 Red. masses --      1.9633                 1.7644                 1.7206
 Frc consts  --      1.6591                 1.5064                 1.4779
 IR Inten    --      9.9757                12.6668                45.1975

                     76                     77                     78
                      A                      A                      A
 Frequencies --   1234.9181              1248.9356              1259.4875
 Red. masses --      2.6683                 2.5145                 1.5235
 Frc consts  --      2.3975                 2.3109                 1.4239
 IR Inten    --    448.0282               106.6068                29.3554

                     79                     80                     81
                      A                      A                      A
 Frequencies --   1275.9606              1279.1987              1283.9457
 Red. masses --      1.3478                 1.9083                 1.2613
 Frc consts  --      1.2929                 1.8398                 1.2251
 IR Inten    --     15.5583                68.7678                14.2536

                     82                     83                     84
                      A                      A                      A
 Frequencies --   1285.6657              1307.1957              1318.7246
 Red. masses --      1.3559                 1.3222                 1.4575
 Frc consts  --      1.3205                 1.3311                 1.4934
 IR Inten    --      9.3708                66.3298                76.6068

                     85                     86                     87
                      A                      A                      A
 Frequencies --   1324.9370              1327.3175              1343.0030
 Red. masses --      1.1654                 1.4727                 1.2466
 Frc consts  --      1.2054                 1.5287                 1.3248
 IR Inten    --     32.0050                63.8883                 0.6744

                     88                     89                     90
                      A                      A                      A
 Frequencies --   1359.2303              1360.6911              1364.7088
 Red. masses --      1.3996                 7.8204                 1.3787
 Frc consts  --      1.5235                 8.5310                 1.5128
 IR Inten    --      5.3322                 4.2446                 0.1121

                     91                     92                     93
                      A                      A                      A
 Frequencies --   1370.4579              1371.5995              1374.8507
 Red. masses --      1.3954                 1.5187                 1.5415
 Frc consts  --      1.5442                 1.6833                 1.7168
 IR Inten    --      0.4434                 1.1031                 1.2739

                     94                     95                     96
                      A                      A                      A
 Frequencies --   1388.3309              1394.9849              1404.6428
 Red. masses --      1.4876                 1.5329                 3.0440
 Frc consts  --      1.6894                 1.7576                 3.5385
 IR Inten    --      5.2590                 2.6718               675.8514

                     97                     98                     99
                      A                      A                      A
 Frequencies --   1452.4177              1456.4571              1468.7773
 Red. masses --      1.9355                 1.8696                 1.6348
 Frc consts  --      2.4056                 2.3367                 2.0779
 IR Inten    --    176.9967               262.5762               115.3357

                    100                    101                    102
                      A                      A                      A
 Frequencies --   1473.9175              1478.6075              1479.9297
 Red. masses --      1.0950                 1.0936                 1.1003
 Frc consts  --      1.4016                 1.4086                 1.4198
 IR Inten    --     14.9331                 4.6131                11.2749

                    103                    104                    105
                      A                      A                      A
 Frequencies --   1481.7359              1482.3220              1482.8482
 Red. masses --      1.0967                 1.9521                 1.1273
 Frc consts  --      1.4186                 2.5272                 1.4604
 IR Inten    --      6.0150               447.3950                90.3860

                    106                    107                    108
                      A                      A                      A
 Frequencies --   1483.7898              1495.7658              1497.1623
 Red. masses --      1.0931                 1.1017                 1.0893
 Frc consts  --      1.4179                 1.4522                 1.4386
 IR Inten    --      7.5304                 5.2700                 8.8859

                    109                    110                    111
                      A                      A                      A
 Frequencies --   1498.0604              1501.9442              1524.3095
 Red. masses --      1.1024                 3.5631                 5.6076
 Frc consts  --      1.4576                 4.7357                 7.6766
 IR Inten    --     13.1664               855.2506                 6.4924

                    112                    113                    114
                      A                      A                      A
 Frequencies --   1573.8282              1623.8579              1633.6420
 Red. masses --      5.9959                 6.1755                 6.8632
 Frc consts  --      8.7502                 9.5944                10.7917
 IR Inten    --     32.6445               302.8483                19.5647

                    115                    116                    117
                      A                      A                      A
 Frequencies --   2962.8561              2982.8450              2983.4799
 Red. masses --      1.0802                 1.0606                 1.0678
 Frc consts  --      5.5871                 5.5597                 5.6001
 IR Inten    --     14.4772                20.8264                32.2305

                    118                    119                    120
                      A                      A                      A
 Frequencies --   2991.7953              2992.7676              2995.5436
 Red. masses --      1.0686                 1.0693                 1.0631
 Frc consts  --      5.6353                 5.6428                 5.6205
 IR Inten    --    102.4376                48.8506                20.5422

                    121                    122                    123
                      A                      A                      A
 Frequencies --   2998.0719              3012.2402              3015.0449
 Red. masses --      1.0600                 1.0906                 1.0334
 Frc consts  --      5.6134                 5.8302                 5.5348
 IR Inten    --    127.7017                24.6855                78.7861

                    124                    125                    126
                      A                      A                      A
 Frequencies --   3015.8400              3028.2205              3033.1616
 Red. masses --      1.0684                 1.0591                 1.0956
 Frc consts  --      5.7256                 5.7223                 5.9388
 IR Inten    --     22.7370               119.2189               150.4313

                    127                    128                    129
                      A                      A                      A
 Frequencies --   3037.8231              3039.4109              3043.0495
 Red. masses --      1.0992                 1.0906                 1.1029
 Frc consts  --      5.9765                 5.9358                 6.0174
 IR Inten    --     79.8030               108.9867               132.2815

                    130                    131                    132
                      A                      A                      A
 Frequencies --   3047.5269              3054.7792              3074.2565
 Red. masses --      1.0996                 1.0949                 1.1047
 Frc consts  --      6.0171                 6.0197                 6.1514
 IR Inten    --    106.7275                61.9779                85.9920

                    133                    134                    135
                      A                      A                      A
 Frequencies --   3077.0804              3137.7805              3175.4740
 Red. masses --      1.1066                 1.1009                 1.0873
 Frc consts  --      6.1733                 6.3863                 6.4600
 IR Inten    --     52.6398                32.7851                 3.6804

                    136                    137                    138
                      A                      A                      A
 Frequencies --   3191.1959              3213.3192              3531.4338
 Red. masses --      1.0940                 1.0892                 1.0639
 Frc consts  --      6.5641                 6.6260                 7.8173
 IR Inten    --     21.6761                 9.4594               195.1312

 - Thermochemistry -
 -------------------
 Temperature   298.150 Kelvin.  Pressure   1.00000 Atm.
 Atom     1 has atomic number  6 and mass  12.00000

 Molecular mass:   328.16746 amu.
 Principal axes and moments of inertia in atomic units:
                           1         2         3
     Eigenvalues --  3159.28819********************
           X            0.26976   0.68078   0.68101
           Y           -0.23476  -0.63939   0.73217
           Z            0.93387  -0.35739  -0.01266
 This molecule is an asymmetric top.
 Rotational symmetry number  1.
 Warning -- assumption of classical behavior for rotation
           may cause significant error
 Rotational temperatures (Kelvin)      0.02742     0.00378     0.00362
 Rotational constants (GHZ):           0.57125     0.07868     0.07538
 Zero-point vibrational energy    1054411.9 (Joules/Mol)
                                  252.01050 (Kcal/Mol)
 Warning -- explicit consideration of  35 degrees of freedom as
           vibrations may cause significant error
 Vibrational temperatures:     21.26    27.73    35.39    84.72    96.91
          (Kelvin)            118.29   147.69   174.11   191.35   200.43
                              226.67   242.80   252.25   314.42   329.58
                              343.00   382.43   421.11   434.85   464.93
                              480.04   495.84   514.91   547.42   599.50
                              627.05   630.93   641.18   670.66   676.22
                              686.24   726.44   748.77   797.10   871.37
                              918.51   941.74   979.33   996.11  1016.48
                             1039.27  1048.03  1095.28  1103.61  1134.77
                             1141.75  1189.64  1196.06  1218.20  1252.29
                             1275.71  1286.50  1323.14  1331.27  1375.75
                             1405.02  1411.88  1457.09  1463.55  1492.27
                             1494.26  1501.63  1518.39  1542.01  1569.89
                             1582.80  1588.71  1600.09  1628.97  1679.54
                             1684.21  1702.35  1723.10  1731.95  1737.19
                             1776.77  1796.94  1812.12  1835.82  1840.48
                             1847.31  1849.79  1880.76  1897.35  1906.29
                             1909.71  1932.28  1955.63  1957.73  1963.51
                             1971.78  1973.43  1978.10  1997.50  2007.07
                             2020.97  2089.71  2095.52  2113.24  2120.64
                             2127.39  2129.29  2131.89  2132.73  2133.49
                             2134.84  2152.07  2154.08  2155.37  2160.96
                             2193.14  2264.39  2336.37  2350.45  4262.89
                             4291.65  4292.56  4304.53  4305.93  4309.92
                             4313.56  4333.94  4337.98  4339.12  4356.93
                             4364.04  4370.75  4373.03  4378.27  4384.71
                             4395.15  4423.17  4427.23  4514.57  4568.80
                             4591.42  4623.25  5080.95

 Zero-point correction=                           0.401604 (Hartree/Particle)
 Thermal correction to Energy=                    0.423951
 Thermal correction to Enthalpy=                  0.424896
 Thermal correction to Gibbs Free Energy=         0.347341
 Sum of electronic and zero-point Energies=          -1077.540079
 Sum of electronic and thermal Energies=             -1077.517732
 Sum of electronic and thermal Enthalpies=           -1077.516787
 Sum of electronic and thermal Free Energies=        -1077.594342

                     E (Thermal)             CV                S
                      KCal/Mol        Cal/Mol-Kelvin    Cal/Mol-Kelvin
 Total                  266.034             87.141            163.226
 Electronic               0.000              0.000              1.377
 Translational            0.889              2.981             43.260
 Rotational               0.889              2.981             35.805
 Vibrational            264.256             81.179             82.784
 Vibration     1          0.593              1.986              7.235
 Vibration     2          0.593              1.986              6.707
 Vibration     3          0.593              1.985              6.224
 Vibration     4          0.596              1.974              4.494
 Vibration     5          0.598              1.970              4.229
 Vibration     6          0.600              1.961              3.837
 Vibration     7          0.605              1.947              3.403
 Vibration     8          0.609              1.932              3.084
 Vibration     9          0.613              1.920              2.902
 Vibration    10          0.615              1.914              2.813
 Vibration    11          0.621              1.894              2.579
 Vibration    12          0.625              1.881              2.449
 Vibration    13          0.627              1.873              2.378
 Vibration    14          0.646              1.813              1.971
 Vibration    15          0.652              1.797              1.886
 Vibration    16          0.656              1.782              1.815
 Vibration    17          0.672              1.736              1.623
 Vibration    18          0.688              1.687              1.458
 Vibration    19          0.694              1.669              1.404
 Vibration    20          0.708              1.629              1.294
 Vibration    21          0.715              1.608              1.242
 Vibration    22          0.723              1.586              1.191
 Vibration    23          0.733              1.559              1.131
 Vibration    24          0.750              1.512              1.037
 Vibration    25          0.780              1.434              0.903
 Vibration    26          0.796              1.392              0.840
 Vibration    27          0.799              1.386              0.831
 Vibration    28          0.805              1.371              0.809
 Vibration    29          0.823              1.325              0.748
 Vibration    30          0.827              1.317              0.738
 Vibration    31          0.834              1.301              0.718
 Vibration    32          0.860              1.239              0.646
 Vibration    33          0.875              1.205              0.609
 Vibration    34          0.909              1.131              0.536
 Vibration    35          0.964              1.020              0.440

                           ! Non-Optimized Parameters !
 Normal termination of Gaussian 16 at Sun Feb 11 18:40:14 2024.
