 Gaussian 16, Revision A.03,
 Gaussian 16:  ES64L-G16RevA.03 25-Dec-2016

 --------------------------------------
 #P UB3LYP/6-311++G(d,p) nosym opt freq
 --------------------------------------

 -------
 Radical
 -------
 Symbolic Z-matrix:
 Charge = -1 Multiplicity = 2

 SCF Done:  E(UB3LYP) =  -839.520700486     A.U. after   23 cycles
 SCF Done:  E(UB3LYP) =  -839.520700222     A.U. after   10 cycles
 SCF Done:  E(UB3LYP) =  -839.520700591     A.U. after   10 cycles
 Optimization completed.
    -- Stationary point found.
 Normal termination of Gaussian 16 at Sun Jan  7 05:12:10 2024.

 ----------------------------------------------------------------------
 #P Geom=AllCheck Guess=TCheck SCRF=Check GenChk UB3LYP/6-311++G(d,p) F
 req
 ----------------------------------------------------------------------

 Structure from the checkpoint file:  "186-rad.chk"
 -------
 Radical
 -------
 Charge = -1 Multiplicity = 2

                          Input orientation:
 ---------------------------------------------------------------------
 Center     Atomic      Atomic             Coordinates (Angstroms)
 Number     Number       Type             X           Y           Z
 ---------------------------------------------------------------------
      1          8           0        3.056362   -2.197093    0.208440
      2          6           0        2.774469   -0.878874    0.255610
      3          6           0        3.805760    0.037973    0.417172
      4          6           0        3.520430    1.411888    0.467048
      5          6           0        2.220254    1.873603    0.357353
      6          6           0        1.154979    0.968434    0.192940
      7          6           0       -0.217482    1.504452    0.080013
      8          8           0       -0.414148    2.734583    0.130802
      9          6           0       -1.294550    0.517959   -0.090099
     10          6           0       -2.662546    0.895412   -0.211378
     11          8           0       -3.007876    2.220865   -0.170382
     12          6           0       -3.661459   -0.057275   -0.371446
     13          6           0       -3.348088   -1.427039   -0.418458
     14          6           0       -2.038539   -1.833622   -0.304946
     15          6           0       -1.001951   -0.886539   -0.141128
     16          6           0        0.356099   -1.386697   -0.027677
     17          8           0        0.601410   -2.646060   -0.074984
     18          6           0        1.421660   -0.425947    0.139962
     19          1           0        2.157545   -2.645842    0.087726
     20          1           0        4.821127   -0.333397    0.502132
     21          1           0        4.336181    2.118019    0.593700
     22          1           0        1.984400    2.929491    0.393931
     23          1           0       -3.965157    2.268128   -0.268296
     24          1           0       -4.695033    0.271377   -0.460504
     25          1           0       -4.143792   -2.154816   -0.544211
     26          1           0       -1.760053   -2.878982   -0.336640
 ---------------------------------------------------------------------

 SCF Done:  E(UB3LYP) =  -839.520700591     A.U. after    1 cycles

 Alpha  occ. eigenvalues --  -19.04340 -19.00425 -18.96209 -18.94771 -10.12894
 Alpha  occ. eigenvalues --  -10.11254 -10.10548 -10.10514 -10.06663 -10.06345
 Alpha  occ. eigenvalues --  -10.06082 -10.05908 -10.05785 -10.05245 -10.05200
 Alpha  occ. eigenvalues --  -10.05068 -10.04697 -10.04145  -0.95638  -0.92830
 Alpha  occ. eigenvalues --   -0.87839  -0.87621  -0.74337  -0.72836  -0.67024
 Alpha  occ. eigenvalues --   -0.63285  -0.62742  -0.61745  -0.55144  -0.52868
 Alpha  occ. eigenvalues --   -0.51478  -0.47707  -0.46443  -0.43034  -0.41759
 Alpha  occ. eigenvalues --   -0.38537  -0.38137  -0.36152  -0.35446  -0.34817
 Alpha  occ. eigenvalues --   -0.32625  -0.31504  -0.30429  -0.29901  -0.29528
 Alpha  occ. eigenvalues --   -0.29179  -0.27176  -0.26385  -0.25943  -0.25540
 Alpha  occ. eigenvalues --   -0.25336  -0.24683  -0.23696  -0.22073  -0.21846
 Alpha  occ. eigenvalues --   -0.20545  -0.15073  -0.13363  -0.12988  -0.12087
 Alpha  occ. eigenvalues --   -0.10662  -0.10430  -0.01984
 Alpha virt. eigenvalues --    0.07033   0.07357   0.08875   0.08899   0.09111
 Alpha virt. eigenvalues --    0.10984   0.11173   0.12463   0.12616   0.13271
 Alpha virt. eigenvalues --    0.14882   0.14958   0.15381   0.16049   0.16602

  Beta  occ. eigenvalues --  -19.04344 -19.00397 -18.95670 -18.94218 -10.12939
  Beta  occ. eigenvalues --  -10.11228 -10.10450 -10.10295 -10.06625 -10.06228
  Beta  occ. eigenvalues --  -10.05971 -10.05819 -10.05710 -10.05249 -10.05100
  Beta  occ. eigenvalues --  -10.05042 -10.04651 -10.04158  -0.95646  -0.92692
  Beta  occ. eigenvalues --   -0.86930  -0.86697  -0.74075  -0.72694  -0.66619
  Beta  occ. eigenvalues --   -0.63051  -0.62536  -0.61571  -0.54458  -0.52702
  Beta  occ. eigenvalues --   -0.51263  -0.47598  -0.46286  -0.42819  -0.41612
  Beta  occ. eigenvalues --   -0.38427  -0.38013  -0.35911  -0.35306  -0.34705
  Beta  occ. eigenvalues --   -0.32524  -0.30888  -0.30308  -0.29686  -0.29138
  Beta  occ. eigenvalues --   -0.28844  -0.26858  -0.26280  -0.25209  -0.25096
  Beta  occ. eigenvalues --   -0.24625  -0.23682  -0.23551  -0.21899  -0.20937
  Beta  occ. eigenvalues --   -0.19765  -0.13078  -0.12637  -0.12545  -0.11358
  Beta  occ. eigenvalues --   -0.10152  -0.09767
  Beta virt. eigenvalues --    0.03733   0.07029   0.08325   0.08869   0.08887
  Beta virt. eigenvalues --    0.10193   0.10983   0.11171   0.12618   0.12709
  Beta virt. eigenvalues --    0.13265   0.14893   0.15034   0.15384   0.16436

 Mulliken charges and spin densities:
               1          2
     1  O   -0.361411   0.009436
     2  C   -0.277381   0.040859
     3  C   -0.087217   0.032254
     4  C   -0.352666   0.060138
     5  C   -0.118492   0.014499
     6  C    0.572442   0.084491
     7  C   -0.483886   0.016171
     8  O   -0.334159   0.209996
     9  C   -0.172822   0.062509
    10  C   -0.106669  -0.014454
    11  O   -0.163637  -0.001375
    12  C   -0.224422   0.091714
    13  C   -0.383532   0.033413
    14  C    0.002736   0.054749
    15  C    0.643842   0.029433
    16  C   -0.514924   0.139506
    17  O   -0.421783   0.198103
    18  C    0.423558  -0.035231
    19  H    0.352339  -0.004195
    20  H    0.139166  -0.003097
    21  H    0.131052  -0.004535
    22  H    0.141875  -0.001151
    23  H    0.237953  -0.000546
    24  H    0.071664  -0.008060
    25  H    0.134056  -0.002671
    26  H    0.152319  -0.001958
 Sum of Mulliken charges =  -1.00000   1.00000

 Dipole moment (field-independent basis, Debye):
    X=             -3.6584    Y=              0.2231    Z=             -0.4463  Tot=              3.6922
 Quadrupole moment (field-independent basis, Debye-Ang):
   XX=           -116.7216   YY=           -138.3881   ZZ=           -110.6248
   XY=              7.6532   XZ=             -0.2609   YZ=             -0.8089

  Exact polarizability: 328.400  12.031 227.741  25.148   8.958  98.428
 Approx polarizability: 493.650   8.985 437.672  36.411  17.575 156.321

                      1                      2                      3
                      A                      A                      A
 Frequencies --     44.9880                65.8229               108.4110
 Red. masses --      7.5415                 6.1605                 9.6374
 Frc consts  --      0.0090                 0.0157                 0.0667
 IR Inten    --      6.6195                 0.6737                 0.6467

                      4                      5                      6
                      A                      A                      A
 Frequencies --    168.0793               202.8656               207.1320
 Red. masses --      7.4625                 4.6306                 6.0450
 Frc consts  --      0.1242                 0.1123                 0.1528
 IR Inten    --      0.1595                 0.3192                 4.5167

                      7                      8                      9
                      A                      A                      A
 Frequencies --    233.5180               269.3914               298.7578
 Red. masses --      2.9640                 2.8198                 7.7499
 Frc consts  --      0.0952                 0.1206                 0.4076
 IR Inten    --     12.1322                18.1176                 5.2248

                     10                     11                     12
                      A                      A                      A
 Frequencies --    316.5340               348.3145               380.8226
 Red. masses --      1.6822                 7.9748                 9.0295
 Frc consts  --      0.0993                 0.5701                 0.7715
 IR Inten    --     47.7225                 0.1753                 1.0246

                     13                     14                     15
                      A                      A                      A
 Frequencies --    412.2893               431.5816               440.3303
 Red. masses --      6.3760                11.4449                 7.0094
 Frc consts  --      0.6386                 1.2560                 0.8007
 IR Inten    --      0.0861                24.8488                 0.8325

                     16                     17                     18
                      A                      A                      A
 Frequencies --    465.2599               485.0916               515.7342
 Red. masses --      7.4913                 4.2040                 7.5244
 Frc consts  --      0.9554                 0.5829                 1.1792
 IR Inten    --      9.8713                 1.0810                11.0690

                     19                     20                     21
                      A                      A                      A
 Frequencies --    535.4066               536.9161               574.8552
 Red. masses --      4.9197                 6.3737                 4.6613
 Frc consts  --      0.8309                 1.0826                 0.9076
 IR Inten    --      3.6644                 2.7438                 0.4334

                     22                     23                     24
                      A                      A                      A
 Frequencies --    594.0780               614.2215               648.1302
 Red. masses --      7.3852                 5.8844                 4.0928
 Frc consts  --      1.5357                 1.3080                 1.0130
 IR Inten    --      6.2453                14.1328                 0.6068

                     25                     26                     27
                      A                      A                      A
 Frequencies --    701.4612               707.3470               740.4120
 Red. masses --      2.2605                 6.8584                 1.9375
 Frc consts  --      0.6553                 2.0218                 0.6258
 IR Inten    --     61.3374                 3.5070                 3.5792

                     28                     29                     30
                      A                      A                      A
 Frequencies --    749.2613               776.7753               779.8684
 Red. masses --      3.3377                 2.1194                 7.1066
 Frc consts  --      1.1040                 0.7535                 2.5466
 IR Inten    --      2.0343                70.0624                35.7839

                     31                     32                     33
                      A                      A                      A
 Frequencies --    809.7597               831.1755               862.8000
 Red. masses --      4.0683                 1.4565                 7.5552
 Frc consts  --      1.5717                 0.5929                 3.3137
 IR Inten    --      7.1651                 3.7591                58.2209

                     34                     35                     36
                      A                      A                      A
 Frequencies --    875.6522               909.7379               958.5383
 Red. masses --      1.4497                 7.2297                 1.2478
 Frc consts  --      0.6549                 3.5254                 0.6755
 IR Inten    --      0.6911                 7.8673                10.5268

                     37                     38                     39
                      A                      A                      A
 Frequencies --    962.5146               963.7870               977.5651
 Red. masses --      1.2748                 1.0674                 5.2102
 Frc consts  --      0.6958                 0.5842                 2.9336
 IR Inten    --      0.6952                61.4004                 8.3517

                     40                     41                     42
                      A                      A                      A
 Frequencies --   1053.0764              1072.8112              1091.9971
 Red. masses --      4.7041                 1.8704                 1.9483
 Frc consts  --      3.0736                 1.2683                 1.3688
 IR Inten    --     99.1139                 7.0834                67.1562

                     43                     44                     45
                      A                      A                      A
 Frequencies --   1161.5132              1173.4338              1188.4937
 Red. masses --      1.4940                 1.1581                 1.8608
 Frc consts  --      1.1875                 0.9396                 1.5487
 IR Inten    --     30.7328                 1.5908                32.0148

                     46                     47                     48
                      A                      A                      A
 Frequencies --   1188.8830              1228.6528              1242.9225
 Red. masses --      2.4824                 2.8283                 2.4459
 Frc consts  --      2.0673                 2.5155                 2.2262
 IR Inten    --      3.7064                36.7015                17.6113

                     49                     50                     51
                      A                      A                      A
 Frequencies --   1273.8479              1295.6612              1320.7425
 Red. masses --      3.0944                 3.2909                 3.8549
 Frc consts  --      2.9584                 3.2550                 3.9619
 IR Inten    --     24.3520                29.0313               186.6127

                     52                     53                     54
                      A                      A                      A
 Frequencies --   1352.1447              1375.2239              1410.9923
 Red. masses --      5.7153                 6.8681                 3.3052
 Frc consts  --      6.1565                 7.6530                 3.8771
 IR Inten    --      0.1147                24.6839               323.2895

                     55                     56                     57
                      A                      A                      A
 Frequencies --   1425.3472              1463.3775              1485.6334
 Red. masses --      3.0226                 2.9561                 3.4026
 Frc consts  --      3.6181                 3.7297                 4.4247
 IR Inten    --     53.6577               126.1681                41.1842

                     58                     59                     60
                      A                      A                      A
 Frequencies --   1497.3628              1550.5766              1569.2095
 Red. masses --      2.9914                 4.5675                 5.7557
 Frc consts  --      3.9517                 6.4701                 8.3504
 IR Inten    --    124.3416               215.5195               546.0018

                     61                     62                     63
                      A                      A                      A
 Frequencies --   1576.1419              1610.3445              1625.9643
 Red. masses --      3.0046                 6.2753                 5.1433
 Frc consts  --      4.3977                 9.5878                 8.0115
 IR Inten    --     68.1740                57.9509                 3.8683

                     64                     65                     66
                      A                      A                      A
 Frequencies --   1659.3771              2880.7520              3116.9550
 Red. masses --      2.8109                 1.0749                 1.0868
 Frc consts  --      4.5601                 5.2559                 6.2213
 IR Inten    --     45.3048               484.0638                40.0185

                     67                     68                     69
                      A                      A                      A
 Frequencies --   3139.1908              3152.7709              3172.1441
 Red. masses --      1.0866                 1.0908                 1.0919
 Frc consts  --      6.3090                 6.3880                 6.4732
 IR Inten    --     31.2519                40.0239                35.7963

                     70                     71                     72
                      A                      A                      A
 Frequencies --   3196.3351              3199.8841              3806.6857
 Red. masses --      1.0915                 1.0920                 1.0654
 Frc consts  --      6.5705                 6.5878                 9.0958
 IR Inten    --     16.0429                11.5946                18.1326

 - Thermochemistry -
 -------------------
 Temperature   298.150 Kelvin.  Pressure   1.00000 Atm.
 Atom     1 has atomic number  8 and mass  15.99491

 Molecular mass:   240.04226 amu.
 Principal axes and moments of inertia in atomic units:
                           1         2         3
     Eigenvalues --  2302.255985050.082007352.33792
           X            0.98887   0.10624  -0.10412
           Y           -0.11265   0.99196  -0.05771
           Z            0.09716   0.06880   0.99289
 This molecule is an asymmetric top.
 Rotational symmetry number  1.
 Warning -- assumption of classical behavior for rotation
           may cause significant error
 Rotational temperatures (Kelvin)      0.03762     0.01715     0.01178
 Rotational constants (GHZ):           0.78390     0.35737     0.24546
 Zero-point vibrational energy     484868.2 (Joules/Mol)
                                  115.88629 (Kcal/Mol)
 Warning -- explicit consideration of  23 degrees of freedom as
           vibrations may cause significant error
 Vibrational temperatures:     64.73    94.70   155.98   241.83   291.88
          (Kelvin)            298.02   335.98   387.59   429.85   455.42
                              501.15   547.92   593.19   620.95   633.54
                              669.41   697.94   742.03   770.33   772.50
                              827.09   854.75   883.73   932.51  1009.25
                             1017.71  1065.29  1078.02  1117.61  1122.06
                             1165.06  1195.88  1241.38  1259.87  1308.91
                             1379.12  1384.84  1386.67  1406.50  1515.14
                             1543.54  1571.14  1671.16  1688.31  1709.98
                             1710.54  1767.76  1788.29  1832.78  1864.17
                             1900.25  1945.43  1978.64  2030.10  2050.76
                             2105.47  2137.50  2154.37  2230.93  2257.74
                             2267.72  2316.93  2339.40  2387.47  4144.76
                             4484.60  4516.60  4536.13  4564.01  4598.81
                             4603.92  5476.97

 Zero-point correction=                           0.184677 (Hartree/Particle)
 Thermal correction to Energy=                    0.198005
 Thermal correction to Enthalpy=                  0.198950
 Thermal correction to Gibbs Free Energy=         0.144183
 Sum of electronic and zero-point Energies=           -839.336024
 Sum of electronic and thermal Energies=              -839.322695
 Sum of electronic and thermal Enthalpies=            -839.321751
 Sum of electronic and thermal Free Energies=         -839.376518

                     E (Thermal)             CV                S
                      KCal/Mol        Cal/Mol-Kelvin    Cal/Mol-Kelvin
 Total                  124.250             54.374            115.266
 Electronic               0.000              0.000              1.377
 Translational            0.889              2.981             42.328
 Rotational               0.889              2.981             32.813
 Vibrational            122.473             48.412             38.747
 Vibration     1          0.595              1.979              5.026
 Vibration     2          0.597              1.971              4.275
 Vibration     3          0.606              1.942              3.297
 Vibration     4          0.625              1.882              2.457
 Vibration     5          0.639              1.836              2.107
 Vibration     6          0.641              1.830              2.069
 Vibration     7          0.654              1.790              1.852
 Vibration     8          0.674              1.729              1.600
 Vibration     9          0.692              1.676              1.424
 Vibration    10          0.703              1.642              1.328
 Vibration    11          0.726              1.579              1.174
 Vibration    12          0.751              1.511              1.036
 Vibration    13          0.776              1.444              0.919
 Vibration    14          0.793              1.401              0.854
 Vibration    15          0.800              1.382              0.826
 Vibration    16          0.823              1.327              0.751
 Vibration    17          0.841              1.283              0.696
 Vibration    18          0.871              1.215              0.620
 Vibration    19          0.890              1.172              0.575
 Vibration    20          0.892              1.168              0.572
 Vibration    21          0.931              1.086              0.495
 Vibration    22          0.952              1.044              0.460
 Vibration    23          0.974              1.002              0.426

 Optimization completed.
    -- Stationary point found.
 Normal termination of Gaussian 16 at Sun Jan  7 06:16:40 2024.
