 Q-Chem 5.4, Q-Chem, Inc., Pleasanton, CA (2021)
 Q-Chem 5.4.0 for Intel X86 EM64T Linux

User input:
--------------------------------------------------------------
$molecule
-1 2
O                  3.0563620000     -2.1970930000      0.2084400000
C                  2.7744690000     -0.8788740000      0.2556100000
C                  3.8057600000      0.0379730000      0.4171720000
C                  3.5204300000      1.4118880000      0.4670480000
C                  2.2202540000      1.8736030000      0.3573530000
C                  1.1549790000      0.9684340000      0.1929400000
C                 -0.2174820000      1.5044520000      0.0800130000
O                 -0.4141480000      2.7345830000      0.1308020000
C                 -1.2945500000      0.5179590000     -0.0900990000
C                 -2.6625460000      0.8954120000     -0.2113780000
O                 -3.0078760000      2.2208650000     -0.1703820000
C                 -3.6614590000     -0.0572750000     -0.3714460000
C                 -3.3480880000     -1.4270390000     -0.4184580000
C                 -2.0385390000     -1.8336220000     -0.3049460000
C                 -1.0019510000     -0.8865390000     -0.1411280000
C                  0.3560990000     -1.3866970000     -0.0276770000
O                  0.6014100000     -2.6460600000     -0.0749840000
C                  1.4216600000     -0.4259470000      0.1399620000
H                  2.1575450000     -2.6458420000      0.0877260000
H                  4.8211270000     -0.3333970000      0.5021320000
H                  4.3361810000      2.1180190000      0.5937000000
H                  1.9844000000      2.9294910000      0.3939310000
H                 -3.9651570000      2.2681280000     -0.2682960000
H                 -4.6950330000      0.2713770000     -0.4605040000
H                 -4.1437920000     -2.1548160000     -0.5442110000
H                 -1.7600530000     -2.8789820000     -0.3366400000
$end
$rem
MAX_SCF_CYCLES=200
BASIS  =  6-311++G(d,p)
GUI  =  2
JOB_TYPE  =  SP
METHOD  =  B3LYP
SOLVENT_METHOD = COSMO
$end
$solvent
dielectric 37.219
opticaldielectric 1.43
$end

--------------------------------------------------------------

             Standard Nuclear Orientation (Angstroms)
    I     Atom           X                Y                Z
 ----------------------------------------------------------------
    1      O       3.1918483321    -1.9408935571    -0.0000079337
    2      C       2.7989067817    -0.6505498313     0.0000992881
    3      C       3.7547063430     0.3577750237     0.0002156001
    4      C       3.3536305727     1.7033906724     0.0001530356
    5      C       2.0128331033     2.0468051130    -0.0000295151
    6      C       1.0220243826     1.0470694225    -0.0001119800
    7      C      -0.3973951501     1.4581231503    -0.0002652333
    8      O      -0.6976137615     2.6682256636    -0.0003550525
    9      C      -1.3931606169     0.3761651518    -0.0000847338
   10      C      -2.7947587404     0.6293746728     0.0001558518
   11      O      -3.2518287950     1.9212129266     0.0003207970
   12      C      -3.7151078016    -0.4117876909     0.0002200422
   13      C      -3.2863311061    -1.7507482612    -0.0000330722
   14      C      -1.9408120460    -2.0383099380    -0.0002184872
   15      C      -0.9822517961    -0.9993299231    -0.0001587923
   16      C       0.4197211357    -1.3758944521    -0.0000543436
   17      O       0.7711155324    -2.6107760473     0.0001146830
   18      C       1.4061470220    -0.3206562752    -0.0000063796
   19      H       2.3293906131    -2.4700306676    -0.0003760882
   20      H       4.8026950253     0.0788059562     0.0002803846
   21      H       4.1112674778     2.4819134587     0.0002116876
   22      H       1.6880005855     3.0794465606    -0.0000926679
   23      H      -4.2144619090     1.8819029938     0.0000513685
   24      H      -4.7777142311    -0.1770831915     0.0004475969
   25      H      -4.0220700604    -2.5490628768    -0.0000372235
   26      H      -1.5741904677    -3.0566051269    -0.0003526922
 ----------------------------------------------------------------

   10    -839.5207907868      8.71e-06  Convergence criterion met
 Total energy in the final basis set =     -839.5207907868
    5    -839.6091187635      4.78e-06  Convergence criterion met
 Total energy in the final basis set =     -839.6091187635

                    Orbital Energies (a.u.)
 --------------------------------------------------------------

 Alpha MOs
 -- Occupied --
-19.1535 -19.1338 -19.0923 -19.0801 -10.2433 -10.2365 -10.2354 -10.2335
-10.1822 -10.1806 -10.1775 -10.1768 -10.1764 -10.1745 -10.1720 -10.1659
-10.1658 -10.1632  -1.0665  -1.0579  -1.0118  -1.0074  -0.8634  -0.8488
 -0.7895  -0.7506  -0.7463  -0.7399  -0.6730  -0.6456  -0.6339  -0.5935
 -0.5846  -0.5496  -0.5347  -0.5104  -0.4983  -0.4834  -0.4692  -0.4639
 -0.4447  -0.4397  -0.4255  -0.4236  -0.4212  -0.4171  -0.3932  -0.3869
 -0.3854  -0.3844  -0.3712  -0.3625  -0.3551  -0.3463  -0.3366  -0.3323
 -0.2752  -0.2607  -0.2537  -0.2397  -0.2396  -0.2302  -0.1462

 Beta MOs
 -- Occupied --
-19.1534 -19.1335 -19.0874 -19.0752 -10.2435 -10.2361 -10.2342 -10.2307
-10.1814 -10.1800 -10.1776 -10.1761 -10.1757 -10.1738 -10.1710 -10.1654
-10.1652 -10.1631  -1.0664  -1.0565  -1.0033  -0.9991  -0.8607  -0.8475
 -0.7856  -0.7478  -0.7442  -0.7382  -0.6660  -0.6437  -0.6319  -0.5926
 -0.5828  -0.5472  -0.5331  -0.5093  -0.4968  -0.4807  -0.4680  -0.4630
 -0.4435  -0.4311  -0.4229  -0.4212  -0.4183  -0.4138  -0.3918  -0.3834
 -0.3771  -0.3701  -0.3667  -0.3618  -0.3539  -0.3449  -0.3299  -0.3234
 -0.2571  -0.2567  -0.2487  -0.2352  -0.2306  -0.2238

          Ground-State Mulliken Net Atomic Charges

     Atom                 Charge (a.u.)    Spin (a.u.)
  --------------------------------------------------------
      1 O                    -0.416758       0.010040
      2 C                    -0.164542       0.043911
      3 C                    -0.216056       0.036424
      4 C                    -0.419667       0.056685
      5 C                    -0.151080       0.030813
      6 C                     0.491731       0.074561
      7 C                    -0.323050       0.063225
      8 O                    -0.467612       0.185361
      9 C                    -0.224801       0.030884
     10 C                    -0.092410       0.001764
     11 O                    -0.251233       0.001000
     12 C                    -0.229833       0.080814
     13 C                    -0.410815       0.024275
     14 C                    -0.037238       0.069839
     15 C                     0.506996       0.007051
     16 C                    -0.378524       0.164388
     17 O                    -0.519099       0.176600
     18 C                     0.452569      -0.032692
     19 H                     0.378790      -0.003661
     20 H                     0.205144      -0.003362
     21 H                     0.210632      -0.004197
     22 H                     0.165291      -0.001684
     23 H                     0.317238      -0.000404
     24 H                     0.184873      -0.006691
     25 H                     0.214708      -0.002183
     26 H                     0.174747      -0.002763
  --------------------------------------------------------
  Sum of atomic charges =    -1.000000

                    Cartesian Multipole Moments
 -----------------------------------------------------------------
    Charge (ESU x 10^10)
                -4.8032
    Dipole Moment (Debye)
         X      -5.0116      Y      -0.3811      Z       0.0008
       Tot       5.0260
    Quadrupole Moments (Debye-Ang)
        XX     -98.7811     XY      15.6951     YY    -139.0316
        XZ      -0.0016     YZ       0.0059     ZZ    -110.4313

 Total job time:  81.63s(wall), 602.53s(cpu)
        *  Thank you very much for using Q-Chem.  Have a nice day.  *
