 Q-Chem 5.4, Q-Chem, Inc., Pleasanton, CA (2021)
 Q-Chem 5.4.0 for Intel X86 EM64T Linux

User input:
--------------------------------------------------------------
$molecule
0 1
C                 -1.0137440000      3.9425990000      0.0255030000
C                 -2.1983990000      3.2231470000      0.1601780000
C                 -2.1746400000      1.8280860000      0.1401710000
C                  0.1964700000      3.2640240000     -0.1269520000
C                  0.2208930000      1.8624720000     -0.1457860000
C                 -0.9682250000      1.1472820000     -0.0147390000
C                  1.4587100000      4.0253620000     -0.2725610000
C                  2.7530930000      3.2724610000     -0.4480270000
C                  2.7559330000      1.8959540000     -0.3972220000
C                  1.5100090000      1.1326400000     -0.3082910000
O                  1.4880030000      5.2453920000     -0.2634370000
O                  1.5320710000     -0.0974970000     -0.3832050000
N                  3.8156330000      4.0687020000     -0.6760750000
H                 -1.0082530000      5.0254790000      0.0349740000
H                 -3.1388170000      3.7484950000      0.2801610000
H                 -3.0978830000      1.2696750000      0.2451430000
H                 -0.9292710000      0.0654220000     -0.0345270000
H                  3.6383790000      5.0587410000     -0.5648250000
H                  4.7393690000      3.6950130000     -0.4567600000
N                  3.8679450000      1.0445980000     -0.5688680000
C                  5.1904970000      1.2103520000     -0.2628820000
C                  6.0558700000     -0.0115300000     -0.4975180000
H                  3.5553050000      0.0937770000     -0.7433340000
H                  5.4930720000     -0.9032720000     -0.7767760000
H                  6.6249640000     -0.2106660000      0.4121680000
H                  6.7733840000      0.2173980000     -1.2890810000
O                  5.6771090000      2.2551330000      0.1600990000
$end
$rem
MAX_SCF_CYCLES=200
BASIS  =  6-311++G(d,p)
GUI  =  2
JOB_TYPE  =  SP
METHOD  =  B3LYP
SOLVENT_METHOD = PCM
$end
$pcm
theory = CPCM
$end
$solvent
dielectric 37.219
opticaldielectric 1.43
$end

--------------------------------------------------------------

             Standard Nuclear Orientation (Angstroms)
    I     Atom           X                Y                Z
 ----------------------------------------------------------------
    1      C      -1.0137440000     3.9425990000     0.0255030000
    2      C      -2.1983990000     3.2231470000     0.1601780000
    3      C      -2.1746400000     1.8280860000     0.1401710000
    4      C       0.1964700000     3.2640240000    -0.1269520000
    5      C       0.2208930000     1.8624720000    -0.1457860000
    6      C      -0.9682250000     1.1472820000    -0.0147390000
    7      C       1.4587100000     4.0253620000    -0.2725610000
    8      C       2.7530930000     3.2724610000    -0.4480270000
    9      C       2.7559330000     1.8959540000    -0.3972220000
   10      C       1.5100090000     1.1326400000    -0.3082910000
   11      O       1.4880030000     5.2453920000    -0.2634370000
   12      O       1.5320710000    -0.0974970000    -0.3832050000
   13      N       3.8156330000     4.0687020000    -0.6760750000
   14      H      -1.0082530000     5.0254790000     0.0349740000
   15      H      -3.1388170000     3.7484950000     0.2801610000
   16      H      -3.0978830000     1.2696750000     0.2451430000
   17      H      -0.9292710000     0.0654220000    -0.0345270000
   18      H       3.6383790000     5.0587410000    -0.5648250000
   19      H       4.7393690000     3.6950130000    -0.4567600000
   20      N       3.8679450000     1.0445980000    -0.5688680000
   21      C       5.1904970000     1.2103520000    -0.2628820000
   22      C       6.0558700000    -0.0115300000    -0.4975180000
   23      H       3.5553050000     0.0937770000    -0.7433340000
   24      H       5.4930720000    -0.9032720000    -0.7767760000
   25      H       6.6249640000    -0.2106660000     0.4121680000
   26      H       6.7733840000     0.2173980000    -1.2890810000
   27      O       5.6771090000     2.2551330000     0.1600990000
 ----------------------------------------------------------------

    9    -798.7566612840      4.25e-06  Convergence criterion met
 Total energy in the final basis set =     -798.7566612840

                    Orbital Energies (a.u.)
 --------------------------------------------------------------

 Alpha MOs
 -- Occupied --
-19.1437 -19.1280 -19.1143 -14.3660 -14.3371 -10.2987 -10.2929 -10.2804
-10.2533 -10.2349 -10.2092 -10.2085 -10.1986 -10.1973 -10.1961 -10.1956
-10.1763  -1.0802  -1.0691  -1.0606  -0.9610  -0.9370  -0.8904  -0.8204
 -0.7792  -0.7744  -0.7409  -0.6977  -0.6562  -0.6493  -0.6119  -0.5947
 -0.5677  -0.5438  -0.5385  -0.5120  -0.5061  -0.4855  -0.4750  -0.4696
 -0.4601  -0.4578  -0.4513  -0.4491  -0.4390  -0.4280  -0.4219  -0.4045
 -0.3972  -0.3837  -0.3775  -0.3696  -0.3595  -0.3219  -0.3006  -0.2885
 -0.2862  -0.2848  -0.2789  -0.2246

          Ground-State Mulliken Net Atomic Charges

     Atom                 Charge (a.u.)
  ----------------------------------------
      1 C                     0.246179
      2 C                    -0.350432
      3 C                    -0.386313
      4 C                     0.333488
      5 C                    -0.011856
      6 C                     0.205472
      7 C                    -0.578704
      8 C                     0.462221
      9 C                     0.444872
     10 C                    -0.890006
     11 O                    -0.294314
     12 O                    -0.331547
     13 N                    -0.421345
     14 H                     0.201991
     15 H                     0.220319
     16 H                     0.224849
     17 H                     0.197932
     18 H                     0.327166
     19 H                     0.330825
     20 N                    -0.071921
     21 C                     0.306720
     22 C                    -0.643354
     23 H                     0.382075
     24 H                     0.154915
     25 H                     0.194147
     26 H                     0.199661
     27 O                    -0.453041
  ----------------------------------------
  Sum of atomic charges =     0.000000

                    Cartesian Multipole Moments
 -----------------------------------------------------------------
    Charge (ESU x 10^10)
                -0.0000
    Dipole Moment (Debye)
         X      -2.3576      Y      -1.6238      Z      -0.6325
       Tot       2.9317
    Quadrupole Moments (Debye-Ang)
        XX     -89.9112     XY     -17.9506     YY    -108.5145
        XZ      -7.5691     YZ      -0.1010     ZZ    -100.6185

 Total job time:  45.89s(wall), 308.54s(cpu)
        *  Thank you very much for using Q-Chem.  Have a nice day.  *
