 Gaussian 16, Revision A.03,
 Gaussian 16:  ES64L-G16RevA.03 25-Dec-2016

 ----------------------------------------------------------------------
 #P UB3LYP/6-311++G(d,p) nosym opt freq SCRF=(PCM,Solvent=n,n-DiMethylF
 ormamide)
 ----------------------------------------------------------------------

 -------
 Reduced
 -------
 Symbolic Z-matrix:
 Charge = -3 Multiplicity = 1

 SCF Done:  E(UB3LYP) =  -1463.14934250     A.U. after   18 cycles
 SCF Done:  E(UB3LYP) =  -1463.15233330     A.U. after   15 cycles
 SCF Done:  E(UB3LYP) =  -1463.15197097     A.U. after   14 cycles
 SCF Done:  E(UB3LYP) =  -1463.15336554     A.U. after   15 cycles
 SCF Done:  E(UB3LYP) =  -1463.15351374     A.U. after   13 cycles
 SCF Done:  E(UB3LYP) =  -1463.15354694     A.U. after   14 cycles
 SCF Done:  E(UB3LYP) =  -1463.15357298     A.U. after   12 cycles
 SCF Done:  E(UB3LYP) =  -1463.15357561     A.U. after   12 cycles
 SCF Done:  E(UB3LYP) =  -1463.15357705     A.U. after   12 cycles
 SCF Done:  E(UB3LYP) =  -1463.15357764     A.U. after   11 cycles
 SCF Done:  E(UB3LYP) =  -1463.15357801     A.U. after   11 cycles
 SCF Done:  E(UB3LYP) =  -1463.15357818     A.U. after   11 cycles
 SCF Done:  E(UB3LYP) =  -1463.15357822     A.U. after    9 cycles
 Optimization completed.
    -- Stationary point found.
 Normal termination of Gaussian 16 at Sun Feb 11 01:57:15 2024.

 ----------------------------------------------------------------------
 #P Geom=AllCheck Guess=TCheck SCRF=Check GenChk UB3LYP/6-311++G(d,p) F
 req
 ----------------------------------------------------------------------

 Structure from the checkpoint file:  "190-an.chk"
 -------
 Reduced
 -------
 Charge = -3 Multiplicity = 1

                          Input orientation:
 ---------------------------------------------------------------------
 Center     Atomic      Atomic             Coordinates (Angstroms)
 Number     Number       Type             X           Y           Z
 ---------------------------------------------------------------------
      1          8           0        1.524667   -2.931367   -0.390751
      2          6           0        1.480488   -1.568536   -0.183742
      3          6           0        2.703723   -0.938988   -0.052424
      4          8           0        3.825679   -1.745115   -0.151201
      5          6           0        2.772831    0.461550    0.192042
      6          6           0        1.608899    1.184116    0.276240
      7          6           0        0.334005    0.582695    0.131589
      8          6           0       -0.814673    1.448902    0.229238
      9          8           0       -0.702546    2.725226    0.452174
     10          6           0       -2.087271    0.808858    0.059230
     11          6           0       -3.285000    1.577770    0.116759
     12          6           0       -4.529281    1.011326   -0.036812
     13          6           0       -4.638825   -0.389986   -0.258125
     14          6           0       -3.501376   -1.162734   -0.319493
     15          6           0       -2.194975   -0.614886   -0.169292
     16          6           0       -1.051461   -1.497243   -0.254629
     17          8           0       -1.219995   -2.771319   -0.451319
     18          6           0        0.231112   -0.858417   -0.110292
     19         16           0        4.366060    1.285113    0.273682
     20          8           0        4.749328    1.684442   -1.112849
     21          8           0        4.237235    2.446692    1.192668
     22          8           0        5.301214    0.224338    0.814332
     23          1           0        2.464118   -3.168708   -0.357095
     24          1           0        4.582998   -1.237854    0.223276
     25          1           0        1.635395    2.250374    0.458119
     26          1           0       -3.182541    2.644051    0.285094
     27          1           0       -5.422983    1.626274    0.009826
     28          1           0       -5.617374   -0.845100   -0.378958
     29          1           0       -3.569451   -2.231473   -0.487289
 ---------------------------------------------------------------------

 SCF Done:  E(UB3LYP) =  -1463.15357822     A.U. after    2 cycles

 Alpha  occ. eigenvalues --  -89.04063 -19.13032 -19.12795 -19.08829 -19.08548
 Alpha  occ. eigenvalues --  -19.08289 -19.01795 -19.00939 -10.20947 -10.20825
 Alpha  occ. eigenvalues --  -10.17591 -10.17354 -10.17336 -10.15121 -10.14771
 Alpha  occ. eigenvalues --  -10.14726 -10.14591 -10.14546 -10.14373 -10.13992
 Alpha  occ. eigenvalues --  -10.13545 -10.13500  -8.09962  -6.06261  -6.06223
 Alpha  occ. eigenvalues --   -6.06103  -1.10187  -1.05420  -1.02175  -0.96603
 Alpha  occ. eigenvalues --   -0.96193  -0.93105  -0.92301  -0.82916  -0.82114
 Alpha  occ. eigenvalues --   -0.75833  -0.72587  -0.72075  -0.70929  -0.65481
 Alpha  occ. eigenvalues --   -0.62578  -0.60784  -0.57850  -0.56746  -0.54860
 Alpha  occ. eigenvalues --   -0.53039  -0.50929  -0.49159  -0.47457  -0.46179
 Alpha  occ. eigenvalues --   -0.45020  -0.44903  -0.44189  -0.42915  -0.41685
 Alpha  occ. eigenvalues --   -0.40313  -0.39740  -0.39261  -0.38315  -0.37257
 Alpha  occ. eigenvalues --   -0.36533  -0.35865  -0.35404  -0.34833  -0.33617
 Alpha  occ. eigenvalues --   -0.33232  -0.32816  -0.32495  -0.32237  -0.31338
 Alpha  occ. eigenvalues --   -0.30367  -0.29980  -0.29226  -0.28379  -0.27650
 Alpha  occ. eigenvalues --   -0.25105  -0.22822  -0.21976  -0.21427  -0.19808
 Alpha  occ. eigenvalues --   -0.19784  -0.18674  -0.10388
 Alpha virt. eigenvalues --   -0.02624   0.00041   0.00252   0.00789   0.01652
 Alpha virt. eigenvalues --    0.02501   0.02603   0.02807   0.04593   0.04759
 Alpha virt. eigenvalues --    0.04949   0.05108   0.05866   0.06559   0.06702

  Beta  occ. eigenvalues --  -89.04063 -19.13032 -19.12795 -19.08829 -19.08548
  Beta  occ. eigenvalues --  -19.08289 -19.01795 -19.00939 -10.20947 -10.20825
  Beta  occ. eigenvalues --  -10.17591 -10.17354 -10.17336 -10.15121 -10.14771
  Beta  occ. eigenvalues --  -10.14726 -10.14591 -10.14546 -10.14373 -10.13992
  Beta  occ. eigenvalues --  -10.13545 -10.13500  -8.09962  -6.06261  -6.06223
  Beta  occ. eigenvalues --   -6.06103  -1.10187  -1.05420  -1.02175  -0.96603
  Beta  occ. eigenvalues --   -0.96193  -0.93105  -0.92301  -0.82916  -0.82114
  Beta  occ. eigenvalues --   -0.75833  -0.72587  -0.72075  -0.70929  -0.65481
  Beta  occ. eigenvalues --   -0.62578  -0.60784  -0.57850  -0.56746  -0.54860
  Beta  occ. eigenvalues --   -0.53039  -0.50929  -0.49159  -0.47457  -0.46179
  Beta  occ. eigenvalues --   -0.45020  -0.44903  -0.44189  -0.42915  -0.41685
  Beta  occ. eigenvalues --   -0.40313  -0.39740  -0.39261  -0.38315  -0.37257
  Beta  occ. eigenvalues --   -0.36533  -0.35865  -0.35404  -0.34833  -0.33617
  Beta  occ. eigenvalues --   -0.33232  -0.32816  -0.32495  -0.32237  -0.31338
  Beta  occ. eigenvalues --   -0.30367  -0.29980  -0.29226  -0.28379  -0.27650
  Beta  occ. eigenvalues --   -0.25105  -0.22822  -0.21976  -0.21427  -0.19808
  Beta  occ. eigenvalues --   -0.19784  -0.18674  -0.10388
  Beta virt. eigenvalues --   -0.02624   0.00041   0.00252   0.00789   0.01652
  Beta virt. eigenvalues --    0.02501   0.02603   0.02807   0.04593   0.04759
  Beta virt. eigenvalues --    0.04949   0.05108   0.05866   0.06559   0.06702

 Mulliken charges and spin densities:
               1          2
     1  O   -0.286427  -0.000000
     2  C   -0.477837   0.000000
     3  C   -0.833256   0.000000
     4  O   -0.397638  -0.000000
     5  C   -0.301200  -0.000000
     6  C   -0.140115  -0.000000
     7  C    0.741454   0.000000
     8  C   -0.588849   0.000000
     9  O   -0.649447  -0.000000
    10  C    0.377493   0.000000
    11  C   -0.090754  -0.000000
    12  C   -0.521326  -0.000000
    13  C   -0.596036   0.000000
    14  C   -0.021162  -0.000000
    15  C    0.118049  -0.000000
    16  C   -0.378122   0.000000
    17  O   -0.676595  -0.000000
    18  C    0.665959  -0.000000
    19  S    0.820948  -0.000000
    20  O   -0.326325  -0.000000
    21  O   -0.372864  -0.000000
    22  O   -0.468403  -0.000000
    23  H    0.299704  -0.000000
    24  H    0.334484   0.000000
    25  H    0.168885   0.000000
    26  H    0.141060  -0.000000
    27  H    0.157520   0.000000
    28  H    0.155244   0.000000
    29  H    0.145556   0.000000
 Sum of Mulliken charges =  -3.00000  -0.00000

 Dipole moment (field-independent basis, Debye):
    X=            -15.1706    Y=             -5.2750    Z=             -0.5196  Tot=             16.0699
 Quadrupole moment (field-independent basis, Debye-Ang):
   XX=           -288.5145   YY=           -222.1166   ZZ=           -157.2346
   XY=            -39.1590   XZ=             -5.6124   YZ=            -12.2089

  Exact polarizability: 662.861 -18.356 421.260  13.629  36.040 198.133
 Approx polarizability: 709.996 -34.430 505.409  12.892  45.690 225.428

                      1                      2                      3
                      A                      A                      A
 Frequencies --     26.3322                44.1182                76.6074
 Red. masses --     12.5821                 9.0880                 9.6960
 Frc consts  --      0.0051                 0.0104                 0.0335
 IR Inten    --      1.8092                 0.5944                10.7800

                      4                      5                      6
                      A                      A                      A
 Frequencies --    110.2367               122.6715               147.8101
 Red. masses --      6.7559                 9.7680                10.0491
 Frc consts  --      0.0484                 0.0866                 0.1294
 IR Inten    --      0.6543                 0.9120                18.4393

                      7                      8                      9
                      A                      A                      A
 Frequencies --    148.7023               187.9619               214.7230
 Red. masses --      5.5144                 7.9074                 8.7416
 Frc consts  --      0.0718                 0.1646                 0.2375
 IR Inten    --      0.9071                 1.5550                23.4935

                     10                     11                     12
                      A                      A                      A
 Frequencies --    241.2470               265.0638               293.9037
 Red. masses --      8.6837                 9.0570                 9.9860
 Frc consts  --      0.2978                 0.3749                 0.5082
 IR Inten    --     24.5065                16.9612                 6.0115

                     13                     14                     15
                      A                      A                      A
 Frequencies --    298.4362               302.8660               352.3694
 Red. masses --      6.9669                 7.3116                10.7879
 Frc consts  --      0.3656                 0.3952                 0.7892
 IR Inten    --      3.0263                 7.7776                 8.9609

                     16                     17                     18
                      A                      A                      A
 Frequencies --    368.7788               377.8859               392.7977
 Red. masses --      9.2978                 8.3047                 6.8784
 Frc consts  --      0.7450                 0.6987                 0.6253
 IR Inten    --      2.2674                 7.3620                 7.4596

                     19                     20                     21
                      A                      A                      A
 Frequencies --    415.5644               431.3906               455.8496
 Red. masses --      7.5418                 9.6851                 3.8840
 Frc consts  --      0.7674                 1.0619                 0.4755
 IR Inten    --      5.5148                17.7841                 4.8389

                     22                     23                     24
                      A                      A                      A
 Frequencies --    481.7045               491.5610               502.4396
 Red. masses --      7.6417                11.9954                 4.7160
 Frc consts  --      1.0447                 1.7077                 0.7014
 IR Inten    --     10.6391                13.8936                90.8195

                     25                     26                     27
                      A                      A                      A
 Frequencies --    506.1094               513.8928               552.4661
 Red. masses --      1.3431                 8.7674                 5.1495
 Frc consts  --      0.2027                 1.3642                 0.9260
 IR Inten    --     99.5838                11.4058                 4.7972

                     28                     29                     30
                      A                      A                      A
 Frequencies --    575.6294               577.9540               609.9485
 Red. masses --      8.0873                 5.8140                10.8624
 Frc consts  --      1.5789                 1.1442                 2.3810
 IR Inten    --    253.7716                53.0840               319.6750

                     31                     32                     33
                      A                      A                      A
 Frequencies --    648.3477               668.0389               673.1097
 Red. masses --      7.0370                 6.6248                 6.5150
 Frc consts  --      1.7428                 1.7419                 1.7391
 IR Inten    --      8.8213                47.8361                30.7948

                     34                     35                     36
                      A                      A                      A
 Frequencies --    697.4269               701.7320               723.4739
 Red. masses --      1.0925                 2.4684                 6.3869
 Frc consts  --      0.3131                 0.7162                 1.9697
 IR Inten    --    237.7188                79.2628                69.2425

                     37                     38                     39
                      A                      A                      A
 Frequencies --    737.4556               767.3425               775.9309
 Red. masses --      5.8778                 7.5489                 1.9986
 Frc consts  --      1.8834                 2.6189                 0.7090
 IR Inten    --     10.7315               157.9086                40.7651

                     40                     41                     42
                      A                      A                      A
 Frequencies --    800.7918               855.5798               866.0932
 Red. masses --      4.1168                 1.6805                 7.4466
 Frc consts  --      1.5554                 0.7248                 3.2911
 IR Inten    --      1.8138                 0.7347                73.8204

                     43                     44                     45
                      A                      A                      A
 Frequencies --    899.5112               903.1839               949.2117
 Red. masses --      2.1509                 2.7514                13.7064
 Frc consts  --      1.0254                 1.3224                 7.2761
 IR Inten    --     52.4732                80.4517               632.8066

                     46                     47                     48
                      A                      A                      A
 Frequencies --    980.1211               985.6834              1007.3610
 Red. masses --      1.3461                 1.2522                 4.9441
 Frc consts  --      0.7619                 0.7168                 2.9560
 IR Inten    --      4.0731                 0.6062               384.2555

                     49                     50                     51
                      A                      A                      A
 Frequencies --   1022.3330              1044.4742              1062.8021
 Red. masses --      2.2432                 7.3412                16.3853
 Frc consts  --      1.3814                 4.7186                10.9046
 IR Inten    --    586.0536               432.1342               573.6248

                     52                     53                     54
                      A                      A                      A
 Frequencies --   1100.6820              1121.2597              1123.1914
 Red. masses --      2.4900                 1.8010                11.2966
 Frc consts  --      1.7773                 1.3341                 8.3966
 IR Inten    --    480.4117               500.4426               485.3926

                     55                     56                     57
                      A                      A                      A
 Frequencies --   1155.7530              1182.5883              1200.1966
 Red. masses --      2.2107                 1.6565                 2.1495
 Frc consts  --      1.7399                 1.3649                 1.8242
 IR Inten    --    124.8368               438.1079               363.6082

                     58                     59                     60
                      A                      A                      A
 Frequencies --   1220.7624              1242.0398              1282.3634
 Red. masses --      2.8877                 3.6973                 3.1009
 Frc consts  --      2.5355                 3.3605                 3.0044
 IR Inten    --     12.3110               101.5166               376.5260

                     61                     62                     63
                      A                      A                      A
 Frequencies --   1303.2687              1336.1589              1350.6684
 Red. masses --      5.1446                 3.3076                 2.9889
 Frc consts  --      5.1484                 3.4791                 3.2126
 IR Inten    --    252.6298                54.9932              2496.0315

                     64                     65                     66
                      A                      A                      A
 Frequencies --   1352.4554              1386.8374              1445.0832
 Red. masses --      4.0981                 2.0944                 5.1683
 Frc consts  --      4.4165                 2.3733                 6.3590
 IR Inten    --    960.4431               157.3770               260.1818

                     67                     68                     69
                      A                      A                      A
 Frequencies --   1455.4952              1461.3022              1481.2365
 Red. masses --      4.1449                 2.6201                 3.0481
 Frc consts  --      5.1735                 3.2965                 3.9403
 IR Inten    --    346.3096                62.6554                 3.0814

                     70                     71                     72
                      A                      A                      A
 Frequencies --   1502.5561              1534.7304              1572.3362
 Red. masses --      3.6579                 4.3219                 8.0158
 Frc consts  --      4.8657                 5.9978                11.6758
 IR Inten    --      8.2393                84.1065                93.4039

                     73                     74                     75
                      A                      A                      A
 Frequencies --   1606.5456              1616.9278              3137.8623
 Red. masses --      5.3021                 5.4955                 1.0846
 Frc consts  --      8.0627                 8.4653                 6.2922
 IR Inten    --     14.7821               361.1799                26.7347

                     76                     77                     78
                      A                      A                      A
 Frequencies --   3153.2390              3170.9636              3175.1482
 Red. masses --      1.0891                 1.0915                 1.0940
 Frc consts  --      6.3800                 6.4663                 6.4982
 IR Inten    --     32.1707                37.9780                97.9719

                     79                     80                     81
                      A                      A                      A
 Frequencies --   3200.7226              3368.3273              3712.6823
 Red. masses --      1.0883                 1.0687                 1.0649
 Frc consts  --      6.5687                 7.1437                 8.6480
 IR Inten    --      9.7452              1367.5951               158.2695

 - Thermochemistry -
 -------------------
 Temperature   298.150 Kelvin.  Pressure   1.00000 Atm.
 Atom     1 has atomic number  8 and mass  15.99491

 Molecular mass:   318.99125 amu.
 Principal axes and moments of inertia in atomic units:
                           1         2         3
     Eigenvalues --  3179.98879********************
           X            0.99366  -0.10880  -0.02842
           Y            0.10352   0.98374  -0.14675
           Z            0.04392   0.14287   0.98877
 This molecule is an asymmetric top.
 Rotational symmetry number  1.
 Warning -- assumption of classical behavior for rotation
           may cause significant error
 Rotational temperatures (Kelvin)      0.02724     0.00771     0.00616
 Rotational constants (GHZ):           0.56753     0.16064     0.12836
 Zero-point vibrational energy     489334.9 (Joules/Mol)
                                  116.95385 (Kcal/Mol)
 Warning -- explicit consideration of  30 degrees of freedom as
           vibrations may cause significant error
 Vibrational temperatures:     37.89    63.48   110.22   158.61   176.50
          (Kelvin)            212.67   213.95   270.44   308.94   347.10
                              381.37   422.86   429.38   435.76   506.98
                              530.59   543.69   565.15   597.90   620.67
                              655.87   693.07   707.25   722.90   728.18
                              739.38   794.88   828.20   831.55   877.58
                              932.83   961.16   968.45  1003.44  1009.64
                             1040.92  1061.03  1104.03  1116.39  1152.16
                             1230.99  1246.11  1294.20  1299.48  1365.70
                             1410.18  1418.18  1449.37  1470.91  1502.77
                             1529.14  1583.64  1613.24  1616.02  1662.87
                             1701.48  1726.82  1756.40  1787.02  1845.03
                             1875.11  1922.43  1943.31  1945.88  1995.35
                             2079.15  2094.13  2102.49  2131.17  2161.84
                             2208.13  2262.24  2311.46  2326.40  4514.68
                             4536.81  4562.31  4568.33  4605.13  4846.27
                             5341.72

 Zero-point correction=                           0.186378 (Hartree/Particle)
 Thermal correction to Energy=                    0.203573
 Thermal correction to Enthalpy=                  0.204518
 Thermal correction to Gibbs Free Energy=         0.141146
 Sum of electronic and zero-point Energies=          -1462.967200
 Sum of electronic and thermal Energies=             -1462.950005
 Sum of electronic and thermal Enthalpies=           -1462.949061
 Sum of electronic and thermal Free Energies=        -1463.012432

                     E (Thermal)             CV                S
                      KCal/Mol        Cal/Mol-Kelvin    Cal/Mol-Kelvin
 Total                  127.744             68.581            133.377
 Electronic               0.000              0.000              0.000
 Translational            0.889              2.981             43.176
 Rotational               0.889              2.981             34.573
 Vibrational            125.967             62.620             55.629
 Vibration     1          0.593              1.985              6.088
 Vibration     2          0.595              1.980              5.065
 Vibration     3          0.599              1.965              3.976
 Vibration     4          0.606              1.941              3.265
 Vibration     5          0.610              1.930              3.058
 Vibration     6          0.617              1.905              2.700
 Vibration     7          0.618              1.904              2.689
 Vibration     8          0.633              1.856              2.248
 Vibration     9          0.645              1.819              2.003
 Vibration    10          0.658              1.777              1.794
 Vibration    11          0.671              1.737              1.628
 Vibration    12          0.689              1.685              1.451
 Vibration    13          0.692              1.677              1.426
 Vibration    14          0.694              1.668              1.401
 Vibration    15          0.729              1.570              1.156
 Vibration    16          0.741              1.536              1.085
 Vibration    17          0.748              1.517              1.048
 Vibration    18          0.760              1.486              0.990
 Vibration    19          0.779              1.436              0.907
 Vibration    20          0.792              1.402              0.854
 Vibration    21          0.814              1.348              0.778
 Vibration    22          0.838              1.291              0.705
 Vibration    23          0.847              1.269              0.680
 Vibration    24          0.858              1.245              0.652
 Vibration    25          0.861              1.236              0.643
 Vibration    26          0.869              1.219              0.624
 Vibration    27          0.908              1.134              0.539
 Vibration    28          0.932              1.084              0.494
 Vibration    29          0.934              1.079              0.489
 Vibration    30          0.969              1.011              0.433

 Optimization completed.
    -- Stationary point found.
 Normal termination of Gaussian 16 at Sun Feb 11 03:45:10 2024.
