 Q-Chem 5.4, Q-Chem, Inc., Pleasanton, CA (2021)
 Q-Chem 5.4.0 for Intel X86 EM64T Linux

User input:
--------------------------------------------------------------
$molecule
0 1
C                 -3.0061280000      3.7217760000      0.1435510000
C                 -4.2691320000      3.1453650000      0.2060880000
C                 -4.4074330000      1.7548780000      0.1745790000
C                 -1.8686660000      2.9137340000      0.0493100000
C                 -2.0077510000      1.5142980000      0.0175180000
C                 -3.2826110000      0.9438330000      0.0806400000
C                 -0.5260440000      3.5598210000     -0.0164590000
C                  0.6633970000      2.6614910000     -0.1100310000
C                  0.5233050000      1.2634810000     -0.1415030000
C                 -0.8178100000      0.6178530000     -0.0824780000
C                  1.9342930000      3.2356100000     -0.1667080000
C                  3.0512560000      2.4188910000     -0.2549640000
C                  2.9298900000      1.0279630000     -0.2933600000
C                  1.6650780000      0.4607370000     -0.2337230000
O                 -0.4011030000      4.7731040000      0.0053490000
O                 -0.9401440000     -0.5960270000     -0.1146360000
H                 -3.3666500000     -0.1355460000      0.0547860000
H                  1.5400130000     -0.6145160000     -0.2600470000
H                 -2.8756110000      4.7965980000      0.1663320000
H                  2.0381480000      4.3127800000     -0.1452730000
H                  3.8106690000      0.4048800000     -0.3617680000
H                 -5.3935630000      1.3072450000      0.2236440000
O                  4.2790540000      3.0578310000     -0.3875540000
C                  5.3485260000      2.7047840000      0.4070760000
C                  6.5405030000      3.5507090000      0.0561720000
O                  5.2974340000      1.8537630000      1.2495390000
H                 -5.1478660000      3.7759460000      0.2794420000
H                  6.3174150000      4.6014720000      0.2558280000
H                  6.7643630000      3.4608040000     -1.0088540000
H                  7.3952700000      3.2343250000      0.6497330000
$end

$rem
BASIS  =  6-311++G(d,p)
GUI  =  2
JOB_TYPE  =  SP
METHOD  =  B3LYP
SCF_CONVERGENCE  = 8
SOLVENT_METHOD = sm12
$end

$smx
solvent dimethylformamide
charges CM5
$end

--------------------------------------------------------------

             Standard Nuclear Orientation (Angstroms)
    I     Atom           X                Y                Z
 ----------------------------------------------------------------
    1      C      -3.0061280000     3.7217760000     0.1435510000
    2      C      -4.2691320000     3.1453650000     0.2060880000
    3      C      -4.4074330000     1.7548780000     0.1745790000
    4      C      -1.8686660000     2.9137340000     0.0493100000
    5      C      -2.0077510000     1.5142980000     0.0175180000
    6      C      -3.2826110000     0.9438330000     0.0806400000
    7      C      -0.5260440000     3.5598210000    -0.0164590000
    8      C       0.6633970000     2.6614910000    -0.1100310000
    9      C       0.5233050000     1.2634810000    -0.1415030000
   10      C      -0.8178100000     0.6178530000    -0.0824780000
   11      C       1.9342930000     3.2356100000    -0.1667080000
   12      C       3.0512560000     2.4188910000    -0.2549640000
   13      C       2.9298900000     1.0279630000    -0.2933600000
   14      C       1.6650780000     0.4607370000    -0.2337230000
   15      O      -0.4011030000     4.7731040000     0.0053490000
   16      O      -0.9401440000    -0.5960270000    -0.1146360000
   17      H      -3.3666500000    -0.1355460000     0.0547860000
   18      H       1.5400130000    -0.6145160000    -0.2600470000
   19      H      -2.8756110000     4.7965980000     0.1663320000
   20      H       2.0381480000     4.3127800000    -0.1452730000
   21      H       3.8106690000     0.4048800000    -0.3617680000
   22      H      -5.3935630000     1.3072450000     0.2236440000
   23      O       4.2790540000     3.0578310000    -0.3875540000
   24      C       5.3485260000     2.7047840000     0.4070760000
   25      C       6.5405030000     3.5507090000     0.0561720000
   26      O       5.2974340000     1.8537630000     1.2495390000
   27      H      -5.1478660000     3.7759460000     0.2794420000
   28      H       6.3174150000     4.6014720000     0.2558280000
   29      H       6.7643630000     3.4608040000    -1.0088540000
   30      H       7.3952700000     3.2343250000     0.6497330000
 ----------------------------------------------------------------

   15    -916.8965239224      7.00e-09  Convergence criterion met
 Total energy in the final basis set =     -916.9216401351

                    Orbital Energies (a.u.)
 --------------------------------------------------------------

 Alpha MOs
 -- Occupied --
-19.1927 -19.1316 -19.1312 -19.1292 -10.3228 -10.2839 -10.2820 -10.2669
-10.2151 -10.2105 -10.2096 -10.2091 -10.2052 -10.2036 -10.2034 -10.1982
-10.1978 -10.1974 -10.1971 -10.1795  -1.1316  -1.0664  -1.0635  -1.0511
 -0.8982  -0.8852  -0.8188  -0.7918  -0.7798  -0.7782  -0.7525  -0.6964
 -0.6749  -0.6588  -0.6246  -0.6133  -0.5877  -0.5647  -0.5409  -0.5140
 -0.5060  -0.5016  -0.4973  -0.4899  -0.4713  -0.4597  -0.4578  -0.4573
 -0.4527  -0.4502  -0.4447  -0.4304  -0.4202  -0.4192  -0.4038  -0.3988
 -0.3894  -0.3818  -0.3806  -0.3693  -0.3664  -0.3442  -0.3029  -0.2889
 -0.2880  -0.2819  -0.2780  -0.2755  -0.2712

          Ground-State Mulliken Net Atomic Charges

     Atom                 Charge (a.u.)
  ----------------------------------------
      1 C                     0.213224
      2 C                     0.391160
      3 C                     0.405965
      4 C                    -0.159958
      5 C                    -0.346117
      6 C                     0.249983
      7 C                    -1.293998
      8 C                     0.027037
      9 C                    -0.192568
     10 C                    -1.298106
     11 C                     0.122075
     12 C                    -0.207620
     13 C                     0.492359
     14 C                     0.279375
     15 O                    -0.254019
     16 O                    -0.263052
     17 H                     0.193524
     18 H                     0.228928
     19 H                     0.194225
     20 H                     0.223746
     21 H                     0.275779
     22 H                     0.326825
     23 O                     0.015184
     24 C                    -0.150485
     25 C                    -0.153199
     26 O                    -0.328010
     27 H                     0.327487
     28 H                     0.232023
     29 H                     0.240433
     30 H                     0.207801
  ----------------------------------------
  Sum of atomic charges =     0.000000

                    Cartesian Multipole Moments
 -----------------------------------------------------------------
    Charge (ESU x 10^10)
                 0.0000
    Dipole Moment (Debye)
         X       0.0841      Y       1.5134      Z      -1.2643
       Tot       1.9738
    Quadrupole Moments (Debye-Ang)
        XX     -73.4546     XY       6.2130     YY    -116.2803
        XZ      -9.7399     YZ      -0.2896     ZZ    -119.2899

 Total job time:  713.91s(wall), 5589.45s(cpu)
        *  Thank you very much for using Q-Chem.  Have a nice day.  *
