 Q-Chem 5.4, Q-Chem, Inc., Pleasanton, CA (2021)
 Q-Chem 5.4.0 for Intel X86 EM64T Linux

User input:
--------------------------------------------------------------
$molecule
0 1
C                  4.9907540000     -2.6335900000      0.0698850000
C                  5.7052320000     -1.6995910000     -0.6653780000
C                  5.0685610000     -0.6749410000     -1.3677000000
C                  3.5981980000     -2.5332190000      0.1244280000
C                  2.9424430000     -1.5009570000     -0.5683670000
C                  3.6844640000     -0.5793110000     -1.3133100000
C                  2.8382390000     -3.5396560000      0.9245320000
C                  1.3502850000     -3.4132090000      0.9480940000
C                  0.6912460000     -2.3822230000      0.2565070000
C                  1.4548680000     -1.3670120000     -0.5299910000
C                  0.6095530000     -4.3486750000      1.6750610000
C                 -0.7038380000     -2.2971490000      0.2945150000
C                 -1.4427020000     -3.2238430000      1.0178020000
O                  3.4086930000     -4.4229950000      1.5375910000
O                  0.8861270000     -0.4650270000     -1.1184520000
H                  5.4859540000     -3.4437250000      0.5901150000
H                 -2.5243240000     -3.1808640000      1.0406750000
H                  3.1579320000      0.2016440000     -1.8473330000
H                  1.1241470000     -5.1512380000      2.1881560000
H                 -1.1912450000     -1.5008720000     -0.2538310000
C                 -0.7723060000     -4.2353320000      1.7077230000
S                  7.5057010000     -1.8213810000     -0.7324010000
S                 -1.7328770000     -5.4381670000      2.6518890000
O                 -0.9518770000     -6.6679870000      2.7131530000
O                 -3.0995460000     -5.3925000000      2.1414820000
N                 -1.7559150000     -4.7691720000      4.2016570000
H                 -1.2694670000     -5.3689150000      4.8603150000
H                 -2.7081370000     -4.5730760000      4.4927370000
O                  7.8563980000     -3.2195810000     -0.5128090000
O                  7.9440390000     -1.0695860000     -1.9041690000
N                  7.9930790000     -0.9515720000      0.6299200000
H                  5.6541270000      0.0206830000     -1.9554890000
H                  8.5673280000     -0.1589480000      0.3617580000
H                  8.4625960000     -1.5574430000      1.2952350000
$end
$rem
MAX_SCF_CYCLES=200
BASIS  =  6-311++G(d,p)
GUI  =  2
JOB_TYPE  =  SP
METHOD  =  B3LYP
SOLVENT_METHOD = COSMO
$end
$solvent
dielectric 37.219
opticaldielectric 1.43
$end

--------------------------------------------------------------

             Standard Nuclear Orientation (Angstroms)
    I     Atom           X                Y                Z
 ----------------------------------------------------------------
    1      C       2.4855855459    -0.6573656023    -0.0970451311
    2      C       3.6749080154     0.0554811094    -0.0686505392
    3      C       3.6940827299     1.4505293068    -0.0240788699
    4      C       1.2753244819     0.0398780536    -0.0598842501
    5      C       1.2772306739     1.4443082166    -0.0040572629
    6      C       2.4896903328     2.1405103232     0.0104613262
    7      C      -0.0000086890    -0.7370202164    -0.0838406432
    8      C      -1.2753461949     0.0398214896    -0.0597091775
    9      C      -1.2771645137     1.4442559155    -0.0038723491
   10      C       0.0000314368     2.2185312148     0.0363682069
   11      C      -2.4856344952    -0.6573779854    -0.0968127386
   12      C      -2.4895930480     2.1404921251     0.0107478499
   13      C      -3.6940203394     1.4505729439    -0.0237816665
   14      O       0.0000340259    -1.9538033906    -0.1152348739
   15      O      -0.0000097609     3.4348567186     0.0986729507
   16      H       2.4745335948    -1.7381322855    -0.1603084055
   17      H      -4.6398272596     1.9775097021    -0.0317467138
   18      H       2.4675140558     3.2225124087     0.0434298468
   19      H      -2.4746780545    -1.7381434179    -0.1601125738
   20      H      -2.4673770112     3.2224924951     0.0437270415
   21      C      -3.6749279869     0.0555191599    -0.0684157573
   22      S       5.2413085683    -0.8421665528    -0.1090422319
   23      S      -5.2413381978    -0.8420679120    -0.1090927555
   24      O      -4.9971339590    -2.1146265389    -0.7777708103
   25      O      -6.2652618423     0.1002954320    -0.5494524201
   26      N      -5.5311701090    -1.1685153634     1.5216418759
   27      H      -5.5220361006    -2.1683215821     1.6961634466
   28      H      -6.3966968975    -0.7342557899     1.8252698492
   29      O       4.9970664923    -2.1150313488    -0.7771240320
   30      O       6.2653266044     0.0998934471    -0.5498213019
   31      N       5.5311198061    -1.1676678623     1.5219335075
   32      H       4.6399336524     1.9773873291    -0.0320069750
   33      H       6.3972713802    -0.7341486837     1.8248660910
   34      H       5.5210686531    -2.1673570395     1.6971204203
 ----------------------------------------------------------------

    9   -1896.9785600485      7.11e-06  Convergence criterion met
 Total energy in the final basis set =    -1896.9785600485
    5   -1897.0206902312      4.38e-06  Convergence criterion met
 Total energy in the final basis set =    -1897.0206902312

                    Orbital Energies (a.u.)
 --------------------------------------------------------------

 Alpha MOs
 -- Occupied --
-89.0927 -89.0926 -19.1465 -19.1465 -19.1461 -19.1461 -19.1460 -19.1450
-14.3522 -14.3522 -10.2978 -10.2977 -10.2421 -10.2421 -10.2263 -10.2263
-10.2258 -10.2258 -10.2208 -10.2207 -10.2194 -10.2194 -10.2125 -10.2125
 -8.1541  -8.1541  -6.1168  -6.1168  -6.1168  -6.1168  -6.1149  -6.1149
 -1.1510  -1.1510  -1.0818  -1.0801  -1.0441  -1.0441  -0.9239  -0.9235
 -0.9139  -0.9049  -0.8393  -0.8060  -0.8002  -0.7945  -0.7277  -0.7017
 -0.7012  -0.6554  -0.6498  -0.6292  -0.6040  -0.5809  -0.5774  -0.5441
 -0.5437  -0.5407  -0.5396  -0.5309  -0.5252  -0.5208  -0.5047  -0.4818
 -0.4815  -0.4753  -0.4709  -0.4693  -0.4676  -0.4666  -0.4659  -0.4388
 -0.4331  -0.4238  -0.4139  -0.3958  -0.3927  -0.3889  -0.3860  -0.3850
 -0.3574  -0.3572  -0.3455  -0.3442  -0.3429  -0.3427  -0.3258  -0.3255
 -0.3023  -0.3000  -0.2955  -0.2915  -0.2900  -0.2891

          Ground-State Mulliken Net Atomic Charges

     Atom                 Charge (a.u.)
  ----------------------------------------
      1 C                    -0.174173
      2 C                    -0.434384
      3 C                    -0.544075
      4 C                     0.300918
      5 C                     0.620968
      6 C                    -0.003355
      7 C                    -0.871155
      8 C                     0.300062
      9 C                     0.620207
     10 C                    -0.159380
     11 C                    -0.173330
     12 C                    -0.003686
     13 C                    -0.545184
     14 O                    -0.249590
     15 O                    -0.251636
     16 H                     0.257501
     17 H                     0.288717
     18 H                     0.211422
     19 H                     0.257183
     20 H                     0.211419
     21 C                    -0.433741
     22 S                     0.539755
     23 S                     0.540175
     24 O                    -0.283247
     25 O                    -0.280473
     26 N                    -0.443314
     27 H                     0.351833
     28 H                     0.358893
     29 O                    -0.283352
     30 O                    -0.280767
     31 N                    -0.443206
     32 H                     0.288287
     33 H                     0.358857
     34 H                     0.351808
  ----------------------------------------
  Sum of atomic charges =    -0.000043

                    Cartesian Multipole Moments
 -----------------------------------------------------------------
    Charge (ESU x 10^10)
                -0.0002
    Dipole Moment (Debye)
         X      -0.0028      Y       2.3306      Z       7.9237
       Tot       8.2593
    Quadrupole Moments (Debye-Ang)
        XX    -156.3634     XY      -0.0000     YY    -162.8900
        XZ      -0.0044     YZ     -14.4114     ZZ    -150.0488

 Total job time:  113.85s(wall), 883.09s(cpu)
        *  Thank you very much for using Q-Chem.  Have a nice day.  *
