 Gaussian 16, Revision A.03,
 Gaussian 16:  ES64L-G16RevA.03 25-Dec-2016

 --------------------------------------
 #P UB3LYP/6-311++G(d,p) nosym opt freq
 --------------------------------------

 -------
 Reduced
 -------
 Symbolic Z-matrix:
 Charge = -2 Multiplicity = 1

 SCF Done:  E(UB3LYP) =  -1055.01721854     A.U. after   48 cycles
 SCF Done:  E(UB3LYP) =  -1055.03733607     A.U. after   45 cycles
 SCF Done:  E(UB3LYP) =  -1055.04242083     A.U. after   38 cycles
 SCF Done:  E(UB3LYP) =  -1055.04267263     A.U. after   31 cycles
 SCF Done:  E(UB3LYP) =  -1055.04293015     A.U. after   33 cycles
 SCF Done:  E(UB3LYP) =  -1055.04273165     A.U. after   28 cycles
 SCF Done:  E(UB3LYP) =  -1055.04312142     A.U. after   29 cycles
 SCF Done:  E(UB3LYP) =  -1055.04313923     A.U. after   26 cycles
 SCF Done:  E(UB3LYP) =  -1055.04314496     A.U. after   19 cycles
 SCF Done:  E(UB3LYP) =  -1055.04314575     A.U. after   24 cycles
 SCF Done:  E(UB3LYP) =  -1055.04314599     A.U. after   24 cycles
 SCF Done:  E(UB3LYP) =  -1055.04314602     A.U. after   24 cycles
 Optimization completed.
    -- Stationary point found.
 Normal termination of Gaussian 16 at Wed Dec 20 04:23:53 2023.

 ----------------------------------------------------------------------
 #P Geom=AllCheck Guess=TCheck SCRF=Check GenChk UB3LYP/6-311++G(d,p) F
 req
 ----------------------------------------------------------------------

 Structure from the checkpoint file:  "103-an.chk"
 -------
 Reduced
 -------
 Charge = -2 Multiplicity = 1

                          Input orientation:
 ---------------------------------------------------------------------
 Center     Atomic      Atomic             Coordinates (Angstroms)
 Number     Number       Type             X           Y           Z
 ---------------------------------------------------------------------
      1          6           0       -0.124434    1.897857    5.040647
      2          6           0        1.052145    1.315911    4.458766
      3          6           0        1.377707    1.304453    3.100664
      4          6           0        0.483616    1.911383    2.129489
      5          6           0       -0.697877    2.475515    2.690395
      6          6           0       -0.991466    2.499178    4.062284
      7          8           0       -0.363973    1.852423    6.310363
      8          8           0        0.725063    1.942906    0.848540
      9         16           0       -2.477581    3.355938    4.597907
     10          6           0       -3.374360    2.038659    5.555151
     11          6           0       -4.491050    2.692931    6.367319
     12          6           0       -3.902447    0.929143    4.647866
     13          6           0        2.681500    0.653935    2.593610
     14          6           0        3.539488    0.041355    3.717388
     15          6           0        3.539764    1.722010    1.871040
     16          6           0        2.337956   -0.476064    1.591381
     17          1           0        1.712736    0.853617    5.186832
     18          1           0       -1.394279    2.929418    1.989813
     19          1           0       -2.600139    1.646432    6.221655
     20          1           0       -4.088927    3.433739    7.064494
     21          1           0       -5.041412    1.939806    6.949352
     22          1           0       -5.216952    3.196475    5.715580
     23          1           0       -3.097479    0.521651    4.032259
     24          1           0       -4.686920    1.304345    3.979569
     25          1           0       -4.326935    0.109111    5.248712
     26          1           0        3.001572   -0.746923    4.253443
     27          1           0        3.844536    0.794661    4.450504
     28          1           0        4.447803   -0.400176    3.284428
     29          1           0        3.848883    2.499259    2.579708
     30          1           0        2.940774    2.178802    1.079903
     31          1           0        4.447028    1.270778    1.438379
     32          1           0        1.785559   -1.275089    2.099457
     33          1           0        3.254068   -0.911477    1.160987
     34          1           0        1.715173   -0.063291    0.794552
 ---------------------------------------------------------------------

 SCF Done:  E(UB3LYP) =  -1055.04314602     A.U. after    2 cycles

 Alpha  occ. eigenvalues --  -88.58780 -18.77082 -18.76767  -9.96470  -9.95925
 Alpha  occ. eigenvalues --   -9.95484  -9.94597  -9.94508  -9.93192  -9.92821
 Alpha  occ. eigenvalues --   -9.92807  -9.92786  -9.91354  -9.90009  -9.88471
 Alpha  occ. eigenvalues --   -9.88319  -7.67347  -5.63727  -5.63373  -5.62763
 Alpha  occ. eigenvalues --   -0.68469  -0.67869  -0.58923  -0.58656  -0.53904
 Alpha  occ. eigenvalues --   -0.48937  -0.47648  -0.46589  -0.45576  -0.43373
 Alpha  occ. eigenvalues --   -0.40177  -0.35226  -0.32432  -0.30626  -0.27007
 Alpha  occ. eigenvalues --   -0.24054  -0.22634  -0.22042  -0.21495  -0.21480
 Alpha  occ. eigenvalues --   -0.20123  -0.18540  -0.18065  -0.17034  -0.16950
 Alpha  occ. eigenvalues --   -0.16039  -0.14573  -0.14264  -0.13435  -0.12983
 Alpha  occ. eigenvalues --   -0.11462  -0.10814  -0.10662  -0.09958  -0.09619
 Alpha  occ. eigenvalues --   -0.07829  -0.07520  -0.06082  -0.05814   0.00414
 Alpha  occ. eigenvalues --    0.02413   0.04020   0.05313   0.05637   0.12937
 Alpha virt. eigenvalues --    0.14525   0.15299   0.17057   0.17666   0.17880
 Alpha virt. eigenvalues --    0.17969   0.19099   0.19907   0.20624   0.20890
 Alpha virt. eigenvalues --    0.20975   0.21292   0.21929   0.22501   0.22850

  Beta  occ. eigenvalues --  -88.58780 -18.77082 -18.76767  -9.96470  -9.95925
  Beta  occ. eigenvalues --   -9.95484  -9.94597  -9.94508  -9.93192  -9.92821
  Beta  occ. eigenvalues --   -9.92807  -9.92786  -9.91354  -9.90009  -9.88471
  Beta  occ. eigenvalues --   -9.88319  -7.67347  -5.63727  -5.63373  -5.62763
  Beta  occ. eigenvalues --   -0.68469  -0.67869  -0.58923  -0.58656  -0.53904
  Beta  occ. eigenvalues --   -0.48937  -0.47648  -0.46589  -0.45576  -0.43373
  Beta  occ. eigenvalues --   -0.40177  -0.35226  -0.32432  -0.30626  -0.27007
  Beta  occ. eigenvalues --   -0.24054  -0.22634  -0.22042  -0.21495  -0.21480
  Beta  occ. eigenvalues --   -0.20123  -0.18540  -0.18065  -0.17034  -0.16950
  Beta  occ. eigenvalues --   -0.16039  -0.14573  -0.14264  -0.13435  -0.12983
  Beta  occ. eigenvalues --   -0.11462  -0.10814  -0.10662  -0.09958  -0.09619
  Beta  occ. eigenvalues --   -0.07829  -0.07520  -0.06082  -0.05814   0.00414
  Beta  occ. eigenvalues --    0.02413   0.04020   0.05313   0.05637   0.12937
  Beta virt. eigenvalues --    0.14525   0.15299   0.17057   0.17666   0.17880
  Beta virt. eigenvalues --    0.17969   0.19099   0.19907   0.20624   0.20890
  Beta virt. eigenvalues --    0.20975   0.21292   0.21929   0.22501   0.22850

 Mulliken charges and spin densities:
               1          2
     1  C   -1.092758  -0.000000
     2  C   -0.307280   0.000000
     3  C    1.105634  -0.000000
     4  C   -1.206739   0.000000
     5  C   -0.593012  -0.000000
     6  C    1.948025   0.000000
     7  O   -0.506590  -0.000000
     8  O   -0.520563  -0.000000
     9  S   -0.486924  -0.000000
    10  C   -0.086343   0.000000
    11  C    0.046115  -0.000000
    12  C   -0.534140  -0.000000
    13  C    0.779412   0.000000
    14  C   -0.633394  -0.000000
    15  C   -0.713594  -0.000000
    16  C   -0.692529  -0.000000
    17  H    0.104241   0.000000
    18  H    0.108062   0.000000
    19  H    0.249521   0.000000
    20  H    0.106258   0.000000
    21  H   -0.310159   0.000000
    22  H    0.031577   0.000000
    23  H    0.158526   0.000000
    24  H    0.076525   0.000000
    25  H   -0.068073   0.000000
    26  H    0.111235  -0.000000
    27  H    0.112830  -0.000000
    28  H    0.109411   0.000000
    29  H    0.088459  -0.000000
    30  H    0.197995  -0.000000
    31  H    0.066625   0.000000
    32  H    0.090567   0.000000
    33  H    0.057976   0.000000
    34  H    0.203102  -0.000000
 Sum of Mulliken charges =  -2.00000   0.00000

 Dipole moment (field-independent basis, Debye):
    X=              4.5295    Y=            -18.3764    Z=            -37.1936  Tot=             41.7321
 Quadrupole moment (field-independent basis, Debye-Ang):
   XX=           -183.5867   YY=           -167.7619   ZZ=           -326.8841
   XY=             18.0194   XZ=             50.8439   YZ=            -73.0353

  Exact polarizability:1514.196 -30.138 415.216-742.932  39.121 768.539
 Approx polarizability:3010.777 201.462 433.846********-138.4171397.346

                      1                      2                      3
                      A                      A                      A
 Frequencies --     36.2031                44.7999                53.8286
 Red. masses --      3.9108                 3.0209                 3.5187
 Frc consts  --      0.0030                 0.0036                 0.0060
 IR Inten    --      2.6100                 1.9210                 9.2724

                      4                      5                      6
                      A                      A                      A
 Frequencies --     77.8104               104.8776               174.9274
 Red. masses --      3.8686                 4.2997                 5.6271
 Frc consts  --      0.0138                 0.0279                 0.1014
 IR Inten    --      1.5273                19.8513                 8.4543

                      7                      8                      9
                      A                      A                      A
 Frequencies --    183.1280               213.3890               216.4026
 Red. masses --      4.5827                 4.3450                 1.2050
 Frc consts  --      0.0905                 0.1166                 0.0332
 IR Inten    --     30.0738                 8.2962                 5.6473

                     10                     11                     12
                      A                      A                      A
 Frequencies --    233.9563               242.6337               254.6248
 Red. masses --      1.9477                 2.8119                 1.0419
 Frc consts  --      0.0628                 0.0975                 0.0398
 IR Inten    --     13.8008                 6.6383                 0.0947

                     13                     14                     15
                      A                      A                      A
 Frequencies --    262.8738               292.9194               295.9190
 Red. masses --      1.7446                 1.9613                 1.4040
 Frc consts  --      0.0710                 0.0992                 0.0724
 IR Inten    --     26.3080                 1.4331                 5.0073

                     16                     17                     18
                      A                      A                      A
 Frequencies --    298.8261               318.3015               325.7831
 Red. masses --      3.6731                 1.0484                 3.0895
 Frc consts  --      0.1933                 0.0626                 0.1932
 IR Inten    --      0.5967                 0.1128                46.3694

                     19                     20                     21
                      A                      A                      A
 Frequencies --    338.6787               362.1287               382.5213
 Red. masses --      3.2527                 5.1816                 2.7263
 Frc consts  --      0.2198                 0.4004                 0.2350
 IR Inten    --      8.7135                32.8613                 3.8157

                     22                     23                     24
                      A                      A                      A
 Frequencies --    412.3380               415.0328               439.0718
 Red. masses --      2.5685                 2.7014                 4.1706
 Frc consts  --      0.2573                 0.2742                 0.4737
 IR Inten    --      1.9140                16.0346                 2.6115

                     25                     26                     27
                      A                      A                      A
 Frequencies --    457.2354               486.9720               501.0181
 Red. masses --      5.5702                 5.1037                 3.3187
 Frc consts  --      0.6861                 0.7131                 0.4908
 IR Inten    --    811.2479               418.3984                 7.0288

                     28                     29                     30
                      A                      A                      A
 Frequencies --    596.2999               611.8531               640.5353
 Red. masses --      4.5355                 3.8377                 4.5910
 Frc consts  --      0.9502                 0.8465                 1.1098
 IR Inten    --      1.0540                13.1959                15.8491

                     31                     32                     33
                      A                      A                      A
 Frequencies --    693.0931               701.5309               729.8785
 Red. masses --      4.2871                 6.7307                 2.6639
 Frc consts  --      1.2134                 1.9517                 0.8361
 IR Inten    --      8.3181                17.7638                 7.9082

                     34                     35                     36
                      A                      A                      A
 Frequencies --    810.0060               830.4452               836.5409
 Red. masses --      3.4731                 2.0083                 4.0291
 Frc consts  --      1.3426                 0.8160                 1.6612
 IR Inten    --      8.9170                31.8211                32.2609

                     37                     38                     39
                      A                      A                      A
 Frequencies --    851.3733               875.6897               914.8206
 Red. masses --      1.6166                 2.6400                 1.7978
 Frc consts  --      0.6904                 1.1928                 0.8865
 IR Inten    --     16.7545                 6.5097                 0.4497

                     40                     41                     42
                      A                      A                      A
 Frequencies --    927.9366               939.3469               952.3153
 Red. masses --      1.7460                 1.2578                 1.2147
 Frc consts  --      0.8858                 0.6539                 0.6490
 IR Inten    --     28.3145                39.2893                 0.2644

                     43                     44                     45
                      A                      A                      A
 Frequencies --    955.1140               967.5021              1033.7990
 Red. masses --      1.3445                 4.3369                 1.5328
 Frc consts  --      0.7227                 2.3918                 0.9652
 IR Inten    --     24.4037               323.0633               153.9639

                     46                     47                     48
                      A                      A                      A
 Frequencies --   1046.3960              1066.3972              1072.7636
 Red. masses --      1.3817                 1.7556                 1.5813
 Frc consts  --      0.8914                 1.1763                 1.0722
 IR Inten    --      1.1173                 5.5830               213.8063

                     49                     50                     51
                      A                      A                      A
 Frequencies --   1123.1886              1166.5917              1168.2043
 Red. masses --      2.5836                 2.6591                 3.7140
 Frc consts  --      1.9204                 2.1322                 2.9863
 IR Inten    --      0.2775               198.0715                 9.2862

                     52                     53                     54
                      A                      A                      A
 Frequencies --   1206.6713              1210.1131              1227.6401
 Red. masses --      2.6107                 2.3442                 1.4987
 Frc consts  --      2.2397                 2.0226                 1.3308
 IR Inten    --      8.8105               327.0650               935.3861

                     55                     56                     57
                      A                      A                      A
 Frequencies --   1242.4379              1255.9425              1275.3960
 Red. masses --      1.5954                 1.8144                 2.7065
 Frc consts  --      1.4510                 1.6862                 2.5939
 IR Inten    --    417.7196                80.2765               182.1229

                     58                     59                     60
                      A                      A                      A
 Frequencies --   1331.1950              1350.2869              1367.2359
 Red. masses --      3.9721                 1.2131                 1.3793
 Frc consts  --      4.1472                 1.3032                 1.5192
 IR Inten    --   2726.7929                17.8788               148.5891

                     61                     62                     63
                      A                      A                      A
 Frequencies --   1371.4402              1388.1967              1393.7344
 Red. masses --      1.2649                 1.5611                 1.2814
 Frc consts  --      1.4017                 1.7725                 1.4665
 IR Inten    --    133.3133                31.7880               148.8756

                     64                     65                     66
                      A                      A                      A
 Frequencies --   1395.4424              1405.2858              1429.3387
 Red. masses --      1.2714                 3.4449                 7.1888
 Frc consts  --      1.4586                 4.0083                 8.6532
 IR Inten    --     62.2690               106.2936               719.0492

                     67                     68                     69
                      A                      A                      A
 Frequencies --   1453.4540              1457.4678              1472.4134
 Red. masses --      2.5244                 1.0477                 1.0576
 Frc consts  --      3.1421                 1.3113                 1.3509
 IR Inten    --    478.8704                 1.3767                24.1718

                     70                     71                     72
                      A                      A                      A
 Frequencies --   1478.3076              1484.9409              1485.0950
 Red. masses --      1.0428                 1.0501                 1.0512
 Frc consts  --      1.3428                 1.3643                 1.3659
 IR Inten    --     25.5904                29.5941               105.0311

                     73                     74                     75
                      A                      A                      A
 Frequencies --   1486.5695              1493.5793              1500.9498
 Red. masses --      1.2137                 1.0518                 1.0481
 Frc consts  --      1.5802                 1.3824                 1.3912
 IR Inten    --     40.5370                 1.7973                51.8774

                     76                     77                     78
                      A                      A                      A
 Frequencies --   1510.8204              1528.4779              1568.7411
 Red. masses --      1.0539                 1.0605                 5.5726
 Frc consts  --      1.4173                 1.4597                 8.0799
 IR Inten    --      1.4912                37.6713              4117.3183

                     79                     80                     81
                      A                      A                      A
 Frequencies --   2940.2845              2950.6005              2952.8546
 Red. masses --      1.0505                 1.0489                 1.0513
 Frc consts  --      5.3510                 5.3805                 5.4011
 IR Inten    --     76.6029              1273.6593               115.9274

                     82                     83                     84
                      A                      A                      A
 Frequencies --   2970.2118              2983.3898              3010.6963
 Red. masses --      1.0422                 1.0437                 1.0927
 Frc consts  --      5.4171                 5.4735                 5.8357
 IR Inten    --     83.7394               560.9628               145.6113

                     85                     86                     87
                      A                      A                      A
 Frequencies --   3019.7130              3023.2259              3028.0298
 Red. masses --      1.0897                 1.0836                 1.0849
 Frc consts  --      5.8542                 5.8350                 5.8607
 IR Inten    --     10.0133                45.3510                14.3572

                     88                     89                     90
                      A                      A                      A
 Frequencies --   3043.8562              3046.3962              3069.7822
 Red. masses --      1.0887                 1.0861                 1.1010
 Frc consts  --      5.9430                 5.9387                 6.1131
 IR Inten    --    132.9619                92.0459                52.3497

                     91                     92                     93
                      A                      A                      A
 Frequencies --   3070.2322              3083.3774              3086.6736
 Red. masses --      1.0967                 1.1004                 1.0997
 Frc consts  --      6.0908                 6.1641                 6.1732
 IR Inten    --     23.4646                 1.5211               114.9910

                     94                     95                     96
                      A                      A                      A
 Frequencies --   3092.1280              3131.0777              3138.4669
 Red. masses --      1.0961                 1.0876                 1.0858
 Frc consts  --      6.1749                 6.2821                 6.3015
 IR Inten    --      5.7303                95.0463               128.4246

 - Thermochemistry -
 -------------------
 Temperature   298.150 Kelvin.  Pressure   1.00000 Atm.
 Atom     1 has atomic number  6 and mass  12.00000

 Molecular mass:   238.10275 amu.
 Principal axes and moments of inertia in atomic units:
                           1         2         3
     Eigenvalues --  1716.727697521.465568133.27518
           X            0.85772   0.37792   0.34855
           Y           -0.24027  -0.30469   0.92165
           Z           -0.45451   0.87426   0.17054
 This molecule is an asymmetric top.
 Rotational symmetry number  1.
 Warning -- assumption of classical behavior for rotation
           may cause significant error
 Rotational temperatures (Kelvin)      0.05045     0.01152     0.01065
 Rotational constants (GHZ):           1.05127     0.23995     0.22190
 Zero-point vibrational energy     725834.1 (Joules/Mol)
                                  173.47852 (Kcal/Mol)
 Warning -- explicit consideration of  29 degrees of freedom as
           vibrations may cause significant error
 Vibrational temperatures:     52.09    64.46    77.45   111.95   150.90
          (Kelvin)            251.68   263.48   307.02   311.36   336.61
                              349.10   366.35   378.22   421.45   425.76
                              429.94   457.96   468.73   487.28   521.02
                              550.36   593.26   597.14   631.73   657.86
                              700.64   720.85   857.94   880.32   921.59
                              997.21  1009.35  1050.13  1165.42  1194.83
                             1203.60  1224.94  1259.92  1316.22  1335.09
                             1351.51  1370.17  1374.20  1392.02  1487.41
                             1505.53  1534.31  1543.47  1616.02  1678.47
                             1680.79  1736.13  1741.08  1766.30  1787.59
                             1807.02  1835.01  1915.29  1942.76  1967.15
                             1973.20  1997.31  2005.27  2007.73  2021.89
                             2056.50  2091.20  2096.97  2118.47  2126.95
                             2136.50  2136.72  2138.84  2148.93  2159.53
                             2173.73  2199.14  2257.07  4230.41  4245.26
                             4248.50  4273.47  4292.43  4331.72  4344.69
                             4349.75  4356.66  4379.43  4383.08  4416.73
                             4417.38  4436.29  4441.03  4448.88  4504.92
                             4515.55

 Zero-point correction=                           0.276456 (Hartree/Particle)
 Thermal correction to Energy=                    0.294038
 Thermal correction to Enthalpy=                  0.294983
 Thermal correction to Gibbs Free Energy=         0.231671
 Sum of electronic and zero-point Energies=          -1054.766690
 Sum of electronic and thermal Energies=             -1054.749108
 Sum of electronic and thermal Enthalpies=           -1054.748163
 Sum of electronic and thermal Free Energies=        -1054.811475

                     E (Thermal)             CV                S
                      KCal/Mol        Cal/Mol-Kelvin    Cal/Mol-Kelvin
 Total                  184.512             67.420            133.249
 Electronic               0.000              0.000              0.000
 Translational            0.889              2.981             42.304
 Rotational               0.889              2.981             33.018
 Vibrational            182.734             61.458             57.928
 Vibration     1          0.594              1.982              5.457
 Vibration     2          0.595              1.979              5.035
 Vibration     3          0.596              1.976              4.672
 Vibration     4          0.599              1.964              3.945
 Vibration     5          0.605              1.945              3.362
 Vibration     6          0.627              1.873              2.382
 Vibration     7          0.631              1.863              2.296
 Vibration     8          0.644              1.821              2.014
 Vibration     9          0.645              1.816              1.989
 Vibration    10          0.654              1.789              1.848
 Vibration    11          0.659              1.775              1.783
 Vibration    12          0.665              1.755              1.698
 Vibration    13          0.670              1.741              1.643
 Vibration    14          0.688              1.687              1.457
 Vibration    15          0.690              1.681              1.440
 Vibration    16          0.692              1.676              1.423
 Vibration    17          0.705              1.639              1.319
 Vibration    18          0.710              1.624              1.281
 Vibration    19          0.719              1.598              1.218
 Vibration    20          0.736              1.550              1.113
 Vibration    21          0.752              1.507              1.029
 Vibration    22          0.776              1.443              0.918
 Vibration    23          0.778              1.438              0.909
 Vibration    24          0.799              1.385              0.830
 Vibration    25          0.815              1.345              0.774
 Vibration    26          0.843              1.279              0.692
 Vibration    27          0.856              1.248              0.656
 Vibration    28          0.954              1.040              0.456
 Vibration    29          0.971              1.007              0.430

 Optimization completed.
    -- Stationary point found.
 Normal termination of Gaussian 16 at Wed Dec 20 05:37:39 2023.
