 Q-Chem 5.4, Q-Chem, Inc., Pleasanton, CA (2021)
 Q-Chem 5.4.0 for Intel X86 EM64T Linux

User input:
--------------------------------------------------------------
$molecule
0 1
N                 -2.9263150000      1.8492790000      0.2750490000
C                 -2.5270110000      0.5596000000      0.1319940000
C                 -3.5009360000     -0.4650550000      0.0561820000
C                 -3.1379720000     -1.7873290000     -0.0895120000
C                 -1.7898700000     -2.1541840000     -0.1667580000
C                 -0.8100980000     -1.1754900000     -0.0958210000
C                  0.6162550000     -1.6192270000     -0.1829430000
O                  0.9066300000     -2.7983140000     -0.3110370000
C                  1.6700140000     -0.5717340000     -0.1079090000
C                  3.0157270000     -0.9451450000     -0.1864330000
C                  4.0122340000      0.0202240000     -0.1180020000
C                  3.6709410000      1.3679580000      0.0297280000
C                  2.3361380000      1.7464010000      0.1085180000
C                  1.3260120000      0.7810110000      0.0404190000
C                 -0.0989320000      1.2188950000      0.1278330000
O                 -0.3512500000      2.4217520000      0.2588700000
C                 -1.1483460000      0.1959880000      0.0541090000
H                 -3.9051990000      2.0712050000      0.3295710000
H                 -2.2194550000      2.5716590000      0.3300430000
H                 -4.5491150000     -0.1898550000      0.1152700000
H                 -3.9082100000     -2.5486300000     -0.1444270000
H                 -1.4894480000     -3.1870210000     -0.2809590000
H                  3.2534940000     -1.9954840000     -0.3006700000
H                  5.0544620000     -0.2719040000     -0.1792110000
H                  4.4492230000      2.1209200000      0.0830760000
H                  2.0510270000      2.7844810000      0.2230200000
$end
$rem
MAX_SCF_CYCLES=200
BASIS  =  6-311++G(d,p)
GUI  =  2
JOB_TYPE  =  SP
METHOD  =  B3LYP
SOLVENT_METHOD = PCM
$end
$pcm
theory = CPCM
$end
$solvent
dielectric 37.219
opticaldielectric 1.43
$end

--------------------------------------------------------------

             Standard Nuclear Orientation (Angstroms)
    I     Atom           X                Y                Z
 ----------------------------------------------------------------
    1      N      -2.9263150000     1.8492790000     0.2750490000
    2      C      -2.5270110000     0.5596000000     0.1319940000
    3      C      -3.5009360000    -0.4650550000     0.0561820000
    4      C      -3.1379720000    -1.7873290000    -0.0895120000
    5      C      -1.7898700000    -2.1541840000    -0.1667580000
    6      C      -0.8100980000    -1.1754900000    -0.0958210000
    7      C       0.6162550000    -1.6192270000    -0.1829430000
    8      O       0.9066300000    -2.7983140000    -0.3110370000
    9      C       1.6700140000    -0.5717340000    -0.1079090000
   10      C       3.0157270000    -0.9451450000    -0.1864330000
   11      C       4.0122340000     0.0202240000    -0.1180020000
   12      C       3.6709410000     1.3679580000     0.0297280000
   13      C       2.3361380000     1.7464010000     0.1085180000
   14      C       1.3260120000     0.7810110000     0.0404190000
   15      C      -0.0989320000     1.2188950000     0.1278330000
   16      O      -0.3512500000     2.4217520000     0.2588700000
   17      C      -1.1483460000     0.1959880000     0.0541090000
   18      H      -3.9051990000     2.0712050000     0.3295710000
   19      H      -2.2194550000     2.5716590000     0.3300430000
   20      H      -4.5491150000    -0.1898550000     0.1152700000
   21      H      -3.9082100000    -2.5486300000    -0.1444270000
   22      H      -1.4894480000    -3.1870210000    -0.2809590000
   23      H       3.2534940000    -1.9954840000    -0.3006700000
   24      H       5.0544620000    -0.2719040000    -0.1792110000
   25      H       4.4492230000     2.1209200000     0.0830760000
   26      H       2.0510270000     2.7844810000     0.2230200000
 ----------------------------------------------------------------

    9    -744.3536513542      1.94e-06  Convergence criterion met
 Total energy in the final basis set =     -744.3536513542

                    Orbital Energies (a.u.)
 --------------------------------------------------------------

 Alpha MOs
 -- Occupied --
-19.1268 -19.1239 -14.3313 -10.2791 -10.2767 -10.2459 -10.2047 -10.2039
-10.2033 -10.1991 -10.1945 -10.1943 -10.1940 -10.1934 -10.1926 -10.1891
-10.1845  -1.0626  -1.0574  -0.9418  -0.8870  -0.8649  -0.8074  -0.7748
 -0.7667  -0.7548  -0.6851  -0.6638  -0.6453  -0.6121  -0.5865  -0.5702
 -0.5557  -0.5246  -0.5067  -0.4992  -0.4811  -0.4725  -0.4669  -0.4536
 -0.4535  -0.4473  -0.4383  -0.4286  -0.4180  -0.4002  -0.3901  -0.3857
 -0.3713  -0.3713  -0.3639  -0.3329  -0.2870  -0.2849  -0.2755  -0.2731
 -0.2718  -0.2253

          Ground-State Mulliken Net Atomic Charges

     Atom                 Charge (a.u.)
  ----------------------------------------
      1 N                    -0.469274
      2 C                     0.345425
      3 C                    -0.244890
      4 C                    -0.445361
      5 C                     0.074762
      6 C                     0.446442
      7 C                    -0.519224
      8 O                    -0.298501
      9 C                     0.014083
     10 C                     0.177811
     11 C                    -0.434917
     12 C                    -0.462356
     13 C                     0.263808
     14 C                     0.047512
     15 C                    -0.416401
     16 O                    -0.331199
     17 C                     0.123615
     18 H                     0.334126
     19 H                     0.343920
     20 H                     0.209913
     21 H                     0.226855
     22 H                     0.183443
     23 H                     0.192296
     24 H                     0.219692
     25 H                     0.220622
     26 H                     0.197801
  ----------------------------------------
  Sum of atomic charges =     0.000000

                    Cartesian Multipole Moments
 -----------------------------------------------------------------
    Charge (ESU x 10^10)
                 0.0000
    Dipole Moment (Debye)
         X      -2.4464      Y       2.1725      Z       0.2990
       Tot       3.2854
    Quadrupole Moments (Debye-Ang)
        XX     -59.7809     XY       3.5577     YY    -105.4208
        XZ      -0.9348     YZ      -0.4201     ZZ    -102.1417

 Total job time:  236.84s(wall), 334.41s(cpu)
        *  Thank you very much for using Q-Chem.  Have a nice day.  *
