 Q-Chem 5.4, Q-Chem, Inc., Pleasanton, CA (2021)
 Q-Chem 5.4.0 for Intel X86 EM64T Linux

User input:
--------------------------------------------------------------
$molecule
0 1
O                 -0.0495460000     -1.5122090000     -2.3217710000
C                 -0.0271820000     -0.8309900000     -1.3075750000
C                  1.2586800000     -0.4519330000     -0.6544620000
C                  2.4425530000     -0.8842260000     -1.2148790000
C                  3.6920390000     -0.5564280000     -0.6405070000
C                  4.9208920000     -0.9922580000     -1.2030940000
C                  6.1169810000     -0.6543810000     -0.6173920000
C                  6.1426720000      0.1350130000      0.5582990000
C                  4.9717040000      0.5731370000      1.1283000000
C                  3.7179680000      0.2424290000      0.5491970000
C                  2.4933070000      0.6750750000      1.1072290000
C                  1.2846220000      0.3441090000      0.5309220000
C                  0.0271080000      0.8311370000      1.1673610000
O                  0.0497730000      1.5122690000      2.1816340000
C                 -1.2587710000      0.4520530000      0.5143480000
C                 -2.4424910000      0.8842660000      1.0747810000
C                 -3.6921170000      0.5563770000      0.5003890000
C                 -4.9206490000      0.9921260000      1.0630080000
C                 -6.1171100000      0.6542110000      0.4773440000
C                 -6.1428390000     -0.1349060000     -0.6979430000
C                 -4.9717120000     -0.5730750000     -1.2681250000
C                 -3.7182230000     -0.2424720000     -0.6893210000
C                 -2.4932820000     -0.6750340000     -1.2473340000
C                 -1.2846580000     -0.3441080000     -0.6712100000
H                  2.3988120000     -1.4873150000     -2.1146890000
H                  4.8989770000     -1.5966520000     -2.1034320000
H                  7.0499590000     -0.9918080000     -1.0542700000
H                  7.0949380000      0.3925930000      1.0076360000
H                  4.9891260000      1.1777160000      2.0285910000
H                  2.4889830000      1.2802160000      2.0067210000
H                 -2.3987970000      1.4873730000      1.9746070000
H                 -4.8989890000      1.5965160000      1.9633230000
H                 -7.0497350000      0.9918840000      0.9147130000
H                 -7.0948440000     -0.3928540000     -1.1477130000
H                 -4.9892990000     -1.1776610000     -2.1684440000
H                 -2.4888490000     -1.2801870000     -2.1468470000
$end
$rem
MAX_SCF_CYCLES=200
BASIS  =  6-311++G(d,p)
GUI  =  2
JOB_TYPE  =  SP
THRESH = 14
SCF_CONVERGENCE = 8
SCF_ALGORITHM = RCA_DIIS
scf_guess = GWH
METHOD  =  B3LYP
SOLVENT_METHOD = PCM
$end
$pcm
theory = CPCM
$end
$solvent
dielectric 37.219
opticaldielectric 1.43
$end

--------------------------------------------------------------

             Standard Nuclear Orientation (Angstroms)
    I     Atom           X                Y                Z
 ----------------------------------------------------------------
    1      O      -0.0495460000    -1.5122090000    -2.3217710000
    2      C      -0.0271820000    -0.8309900000    -1.3075750000
    3      C       1.2586800000    -0.4519330000    -0.6544620000
    4      C       2.4425530000    -0.8842260000    -1.2148790000
    5      C       3.6920390000    -0.5564280000    -0.6405070000
    6      C       4.9208920000    -0.9922580000    -1.2030940000
    7      C       6.1169810000    -0.6543810000    -0.6173920000
    8      C       6.1426720000     0.1350130000     0.5582990000
    9      C       4.9717040000     0.5731370000     1.1283000000
   10      C       3.7179680000     0.2424290000     0.5491970000
   11      C       2.4933070000     0.6750750000     1.1072290000
   12      C       1.2846220000     0.3441090000     0.5309220000
   13      C       0.0271080000     0.8311370000     1.1673610000
   14      O       0.0497730000     1.5122690000     2.1816340000
   15      C      -1.2587710000     0.4520530000     0.5143480000
   16      C      -2.4424910000     0.8842660000     1.0747810000
   17      C      -3.6921170000     0.5563770000     0.5003890000
   18      C      -4.9206490000     0.9921260000     1.0630080000
   19      C      -6.1171100000     0.6542110000     0.4773440000
   20      C      -6.1428390000    -0.1349060000    -0.6979430000
   21      C      -4.9717120000    -0.5730750000    -1.2681250000
   22      C      -3.7182230000    -0.2424720000    -0.6893210000
   23      C      -2.4932820000    -0.6750340000    -1.2473340000
   24      C      -1.2846580000    -0.3441080000    -0.6712100000
   25      H       2.3988120000    -1.4873150000    -2.1146890000
   26      H       4.8989770000    -1.5966520000    -2.1034320000
   27      H       7.0499590000    -0.9918080000    -1.0542700000
   28      H       7.0949380000     0.3925930000     1.0076360000
   29      H       4.9891260000     1.1777160000     2.0285910000
   30      H       2.4889830000     1.2802160000     2.0067210000
   31      H      -2.3987970000     1.4873730000     1.9746070000
   32      H      -4.8989890000     1.5965160000     1.9633230000
   33      H      -7.0497350000     0.9918840000     0.9147130000
   34      H      -7.0948440000    -0.3928540000    -1.1477130000
   35      H      -4.9892990000    -1.1776610000    -2.1684440000
   36      H      -2.4888490000    -1.2801870000    -2.1468470000
 ----------------------------------------------------------------

   93    -996.3275339173      4.51E-09 Convergence criterion met
 Total energy in the final basis set = -996.32753392

                    Orbital Energies (a.u.)
 --------------------------------------------------------------

 Alpha MOs
 -- Occupied --
-19.1253 -19.1253 -10.2795 -10.2795 -10.2058 -10.2058 -10.2054 -10.2053
-10.2043 -10.2043 -10.2039 -10.2039 -10.1986 -10.1986 -10.1986 -10.1986
-10.1906 -10.1906 -10.1904 -10.1904 -10.1899 -10.1899 -10.1896 -10.1896
 -1.0619  -1.0602  -0.9021  -0.8978  -0.8593  -0.8436  -0.7977  -0.7975
 -0.7898  -0.7609  -0.7509  -0.7451  -0.6864  -0.6791  -0.6423  -0.6375
 -0.6154  -0.6147  -0.5874  -0.5774  -0.5511  -0.5369  -0.5311  -0.5005
 -0.4990  -0.4828  -0.4802  -0.4627  -0.4578  -0.4534  -0.4523  -0.4504
 -0.4452  -0.4427  -0.4330  -0.4262  -0.4242  -0.4171  -0.4141  -0.4003
 -0.3996  -0.3853  -0.3719  -0.3631  -0.3513  -0.3491  -0.3490  -0.3382
 -0.3096  -0.3065  -0.2851  -0.2767  -0.2736  -0.2655  -0.2418  -0.2398

          Ground-State Mulliken Net Atomic Charges

     Atom                 Charge (a.u.)
  ----------------------------------------
      1 O                    -0.291554
      2 C                    -0.657017
      3 C                     0.250180
      4 C                     0.116883
      5 C                     0.095232
      6 C                    -0.212816
      7 C                    -0.360357
      8 C                    -0.359360
      9 C                    -0.211587
     10 C                     0.094317
     11 C                     0.119329
     12 C                     0.249748
     13 C                    -0.657354
     14 O                    -0.291540
     15 C                     0.250079
     16 C                     0.117007
     17 C                     0.094953
     18 C                    -0.212555
     19 C                    -0.360530
     20 C                    -0.359347
     21 C                    -0.211182
     22 C                     0.094231
     23 C                     0.119310
     24 C                     0.249450
     25 H                     0.171678
     26 H                     0.193569
     27 H                     0.218392
     28 H                     0.218464
     29 H                     0.193432
     30 H                     0.171688
     31 H                     0.171693
     32 H                     0.193602
     33 H                     0.218369
     34 H                     0.218456
     35 H                     0.193452
     36 H                     0.171686
  ----------------------------------------
  Sum of atomic charges =     0.000000

                    Cartesian Multipole Moments
 -----------------------------------------------------------------
    Charge (ESU x 10^10)
                -0.0000
    Dipole Moment (Debye)
         X      -0.0036      Y       0.0002      Z       0.0002
       Tot       0.0036
    Quadrupole Moments (Debye-Ang)
        XX     -74.2076     XY      -2.9298     YY    -143.3112
        XZ       0.4478     YZ       0.0315     ZZ    -143.3971

 Total job time:  1860.09s(wall), 11932.59s(cpu)
        *  Thank you very much for using Q-Chem.  Have a nice day.  *
