 Gaussian 16, Revision A.03,
 Gaussian 16:  ES64L-G16RevA.03 25-Dec-2016

 --------------------------------------
 #P UB3LYP/6-311++G(d,p) nosym opt freq
 --------------------------------------

 --------
 Oxidized
 --------
 Symbolic Z-matrix:
 Charge =  0 Multiplicity = 1

 SCF Done:  E(UB3LYP) =  -996.310459583     A.U. after   14 cycles
 Optimization completed.
    -- Stationary point found.
 Normal termination of Gaussian 16 at Wed Dec 27 19:52:26 2023.

 ----------------------------------------------------------------------
 #P Geom=AllCheck Guess=TCheck SCRF=Check GenChk UB3LYP/6-311++G(d,p) F
 req
 ----------------------------------------------------------------------

 Structure from the checkpoint file:  "136.chk"
 --------
 Oxidized
 --------
 Charge =  0 Multiplicity = 1

                          Input orientation:
 ---------------------------------------------------------------------
 Center     Atomic      Atomic             Coordinates (Angstroms)
 Number     Number       Type             X           Y           Z
 ---------------------------------------------------------------------
      1          8           0       -0.049546   -1.512209   -2.321771
      2          6           0       -0.027182   -0.830990   -1.307575
      3          6           0        1.258680   -0.451933   -0.654462
      4          6           0        2.442553   -0.884226   -1.214879
      5          6           0        3.692039   -0.556428   -0.640507
      6          6           0        4.920892   -0.992258   -1.203094
      7          6           0        6.116981   -0.654381   -0.617392
      8          6           0        6.142672    0.135013    0.558299
      9          6           0        4.971704    0.573137    1.128300
     10          6           0        3.717968    0.242429    0.549197
     11          6           0        2.493307    0.675075    1.107229
     12          6           0        1.284622    0.344109    0.530922
     13          6           0        0.027108    0.831137    1.167361
     14          8           0        0.049773    1.512269    2.181634
     15          6           0       -1.258771    0.452053    0.514348
     16          6           0       -2.442491    0.884266    1.074781
     17          6           0       -3.692117    0.556377    0.500389
     18          6           0       -4.920649    0.992126    1.063008
     19          6           0       -6.117110    0.654211    0.477344
     20          6           0       -6.142839   -0.134906   -0.697943
     21          6           0       -4.971712   -0.573075   -1.268125
     22          6           0       -3.718223   -0.242472   -0.689321
     23          6           0       -2.493282   -0.675034   -1.247334
     24          6           0       -1.284658   -0.344108   -0.671210
     25          1           0        2.398812   -1.487315   -2.114689
     26          1           0        4.898977   -1.596652   -2.103432
     27          1           0        7.049959   -0.991808   -1.054270
     28          1           0        7.094938    0.392593    1.007636
     29          1           0        4.989126    1.177716    2.028591
     30          1           0        2.488983    1.280216    2.006721
     31          1           0       -2.398797    1.487373    1.974607
     32          1           0       -4.898989    1.596516    1.963323
     33          1           0       -7.049735    0.991884    0.914713
     34          1           0       -7.094844   -0.392854   -1.147713
     35          1           0       -4.989299   -1.177661   -2.168444
     36          1           0       -2.488849   -1.280187   -2.146847
 ---------------------------------------------------------------------

 SCF Done:  E(UB3LYP) =  -996.310459583     A.U. after    1 cycles

 Alpha  occ. eigenvalues --  -19.11750 -19.11749 -10.27217 -10.27216 -10.20767
 Alpha  occ. eigenvalues --  -10.20767 -10.20725 -10.20725 -10.20297 -10.20296
 Alpha  occ. eigenvalues --  -10.20254 -10.20253 -10.19807 -10.19806 -10.19805
 Alpha  occ. eigenvalues --  -10.19803 -10.19714 -10.19713 -10.19679 -10.19679
 Alpha  occ. eigenvalues --  -10.19624 -10.19623 -10.19614 -10.19613  -1.05287
 Alpha  occ. eigenvalues --   -1.05100  -0.90275  -0.89944  -0.86071  -0.84576
 Alpha  occ. eigenvalues --   -0.79938  -0.79932  -0.79184  -0.76328  -0.75255
 Alpha  occ. eigenvalues --   -0.74767  -0.68820  -0.67875  -0.64439  -0.64128
 Alpha  occ. eigenvalues --   -0.61979  -0.61706  -0.58979  -0.57650  -0.55229
 Alpha  occ. eigenvalues --   -0.54005  -0.53528  -0.50452  -0.49619  -0.48599
 Alpha  occ. eigenvalues --   -0.48287  -0.46709  -0.45931  -0.45427  -0.44905
 Alpha  occ. eigenvalues --   -0.44482  -0.44464  -0.44204  -0.43678  -0.42832
 Alpha  occ. eigenvalues --   -0.42771  -0.41510  -0.40837  -0.40322  -0.40031
 Alpha  occ. eigenvalues --   -0.38705  -0.37793  -0.36619  -0.35651  -0.35260
 Alpha  occ. eigenvalues --   -0.35071  -0.33565  -0.31093  -0.30741  -0.27593
 Alpha  occ. eigenvalues --   -0.27574  -0.26699  -0.26525  -0.24194  -0.24165
 Alpha virt. eigenvalues --   -0.10477  -0.09651  -0.06159  -0.04002  -0.01789
 Alpha virt. eigenvalues --   -0.01054  -0.00926  -0.00387   0.00402   0.00454
 Alpha virt. eigenvalues --    0.00676   0.00772   0.02009   0.02808   0.03153

  Beta  occ. eigenvalues --  -19.11750 -19.11749 -10.27217 -10.27216 -10.20767
  Beta  occ. eigenvalues --  -10.20767 -10.20725 -10.20725 -10.20297 -10.20296
  Beta  occ. eigenvalues --  -10.20254 -10.20253 -10.19807 -10.19806 -10.19805
  Beta  occ. eigenvalues --  -10.19803 -10.19714 -10.19713 -10.19679 -10.19679
  Beta  occ. eigenvalues --  -10.19624 -10.19623 -10.19614 -10.19613  -1.05287
  Beta  occ. eigenvalues --   -1.05100  -0.90275  -0.89944  -0.86071  -0.84576
  Beta  occ. eigenvalues --   -0.79938  -0.79932  -0.79184  -0.76328  -0.75255
  Beta  occ. eigenvalues --   -0.74767  -0.68820  -0.67875  -0.64439  -0.64128
  Beta  occ. eigenvalues --   -0.61979  -0.61706  -0.58979  -0.57650  -0.55229
  Beta  occ. eigenvalues --   -0.54005  -0.53528  -0.50452  -0.49619  -0.48599
  Beta  occ. eigenvalues --   -0.48287  -0.46709  -0.45931  -0.45427  -0.44905
  Beta  occ. eigenvalues --   -0.44482  -0.44464  -0.44204  -0.43678  -0.42832
  Beta  occ. eigenvalues --   -0.42771  -0.41510  -0.40837  -0.40322  -0.40031
  Beta  occ. eigenvalues --   -0.38705  -0.37793  -0.36619  -0.35651  -0.35260
  Beta  occ. eigenvalues --   -0.35071  -0.33565  -0.31093  -0.30741  -0.27593
  Beta  occ. eigenvalues --   -0.27574  -0.26699  -0.26525  -0.24194  -0.24165
  Beta virt. eigenvalues --   -0.10477  -0.09651  -0.06159  -0.04002  -0.01789
  Beta virt. eigenvalues --   -0.01054  -0.00926  -0.00387   0.00402   0.00454
  Beta virt. eigenvalues --    0.00676   0.00772   0.02009   0.02808   0.03153

 Mulliken charges and spin densities:
               1          2
     1  O   -0.207847  -0.000000
     2  C   -0.778140   0.000000
     3  C    0.283472  -0.000000
     4  C    0.113307   0.000000
     5  C    0.127487   0.000000
     6  C   -0.207737  -0.000000
     7  C   -0.296428  -0.000000
     8  C   -0.296468   0.000000
     9  C   -0.207748  -0.000000
    10  C    0.127852   0.000000
    11  C    0.113637  -0.000000
    12  C    0.283551  -0.000000
    13  C   -0.778477   0.000000
    14  O   -0.207828  -0.000000
    15  C    0.283366  -0.000000
    16  C    0.113403  -0.000000
    17  C    0.127198   0.000000
    18  C   -0.207488   0.000000
    19  C   -0.296597   0.000000
    20  C   -0.296446   0.000000
    21  C   -0.207324  -0.000000
    22  C    0.127772   0.000000
    23  C    0.113588  -0.000000
    24  C    0.283227   0.000000
    25  H    0.154948   0.000000
    26  H    0.144574   0.000000
    27  H    0.173138  -0.000000
    28  H    0.173127   0.000000
    29  H    0.144580   0.000000
    30  H    0.154947   0.000000
    31  H    0.154956   0.000000
    32  H    0.144605   0.000000
    33  H    0.173117   0.000000
    34  H    0.173122  -0.000000
    35  H    0.144600  -0.000000
    36  H    0.154955   0.000000
 Sum of Mulliken charges =  -0.00000   0.00000

 Dipole moment (field-independent basis, Debye):
    X=             -0.0023    Y=              0.0002    Z=              0.0002  Tot=              0.0023
 Quadrupole moment (field-independent basis, Debye-Ang):
   XX=            -92.5031   YY=           -142.7244   ZZ=           -142.3941
   XY=             -2.1348   XZ=              0.3484   YZ=              0.4910

  Exact polarizability: 538.025 -16.338 162.965   4.844  63.909 214.586
 Approx polarizability: 757.804 -20.614 293.944   8.303 141.450 408.754

                      1                      2                      3
                      A                      A                      A
 Frequencies --     22.5915                64.5655                88.3994
 Red. masses --      7.4842                 4.0321                 6.0959
 Frc consts  --      0.0023                 0.0099                 0.0281
 IR Inten    --      2.8554                 0.0000                 0.0000

                      4                      5                      6
                      A                      A                      A
 Frequencies --     97.1149               101.3488               115.5482
 Red. masses --      5.8514                 8.4066                 5.8367
 Frc consts  --      0.0325                 0.0509                 0.0459
 IR Inten    --      0.0000                 2.0356                 0.7809

                      7                      8                      9
                      A                      A                      A
 Frequencies --    205.4393               223.4594               231.0739
 Red. masses --      6.6322                 6.8456                 4.4535
 Frc consts  --      0.1649                 0.2014                 0.1401
 IR Inten    --      0.0000                 3.9708                 0.0000

                     10                     11                     12
                      A                      A                      A
 Frequencies --    236.7413               247.9809               288.0715
 Red. masses --      4.1433                 7.2192                 6.0621
 Frc consts  --      0.1368                 0.2616                 0.2964
 IR Inten    --      0.0000                 0.0000                 0.0000

                     13                     14                     15
                      A                      A                      A
 Frequencies --    345.8497               353.0977               355.9096
 Red. masses --      7.6920                 5.0382                11.9319
 Frc consts  --      0.5421                 0.3701                 0.8905
 IR Inten    --      0.0000                 0.0160                17.8765

                     16                     17                     18
                      A                      A                      A
 Frequencies --    396.8930               428.0460               464.0263
 Red. masses --      3.3784                 3.4818                13.3429
 Frc consts  --      0.3135                 0.3759                 1.6927
 IR Inten    --      0.3051                 0.0000                 0.0000

                     19                     20                     21
                      A                      A                      A
 Frequencies --    488.6946               488.9140               489.3722
 Red. masses --      2.6432                 5.3300                 5.9512
 Frc consts  --      0.3719                 0.7507                 0.8397
 IR Inten    --      0.0005                 0.0010                 0.0000

                     22                     23                     24
                      A                      A                      A
 Frequencies --    490.3209               527.8262               546.6610
 Red. masses --      2.6413                 3.9477                 7.9887
 Frc consts  --      0.3741                 0.6480                 1.4066
 IR Inten    --     33.7959                 0.0000                55.2701

                     25                     26                     27
                      A                      A                      A
 Frequencies --    587.6549               596.9283               607.2689
 Red. masses --      6.9053                 7.0868                 4.5658
 Frc consts  --      1.4050                 1.4878                 0.9920
 IR Inten    --      0.2124                 0.0000                 0.0000

                     28                     29                     30
                      A                      A                      A
 Frequencies --    618.7710               643.5573               676.0094
 Red. masses --      6.6675                 6.8522                 5.5532
 Frc consts  --      1.5041                 1.6721                 1.4952
 IR Inten    --      0.0000                 1.5569                 0.0000

                     31                     32                     33
                      A                      A                      A
 Frequencies --    695.4911               715.3503               743.8084
 Red. masses --      6.9399                 6.6634                 2.0553
 Frc consts  --      1.9778                 2.0090                 0.6700
 IR Inten    --      0.0000                 3.4640                 6.9425

                     34                     35                     36
                      A                      A                      A
 Frequencies --    765.1888               773.3425               778.6189
 Red. masses --      1.2460                 3.9896                 3.4270
 Frc consts  --      0.4298                 1.4058                 1.2241
 IR Inten    --      0.0000                 0.0006                 0.0000

                     37                     38                     39
                      A                      A                      A
 Frequencies --    781.6710               781.7380               783.1436
 Red. masses --      5.0887                 2.0900                 8.0362
 Frc consts  --      1.8319                 0.7525                 2.9039
 IR Inten    --      7.9046               126.7170                 0.0000

                     40                     41                     42
                      A                      A                      A
 Frequencies --    797.0960               820.6347               870.4890
 Red. masses --      4.2925                 3.9754                 1.3606
 Frc consts  --      1.6069                 1.5774                 0.6074
 IR Inten    --      0.0001                 0.0000                 0.0000

                     43                     44                     45
                      A                      A                      A
 Frequencies --    872.5427               910.8075               945.2138
 Red. masses --      1.4358                 5.9857                 1.3760
 Frc consts  --      0.6440                 2.9256                 0.7243
 IR Inten    --      0.0000                 0.0420                 0.0002

                     46                     47                     48
                      A                      A                      A
 Frequencies --    945.9904               948.9217               956.1350
 Red. masses --      1.4744                 5.0697                 1.4428
 Frc consts  --      0.7774                 2.6896                 0.7772
 IR Inten    --      0.0000                 0.0000                27.5445

                     49                     50                     51
                      A                      A                      A
 Frequencies --    957.5826               985.1472               987.7419
 Red. masses --      1.6134                 1.4060                 1.4479
 Frc consts  --      0.8716                 0.8040                 0.8323
 IR Inten    --      0.0010                 0.0003                23.2355

                     52                     53                     54
                      A                      A                      A
 Frequencies --   1001.3157              1001.4803              1007.4805
 Red. masses --      1.3050                 1.3062                 3.1430
 Frc consts  --      0.7709                 0.7719                 1.8796
 IR Inten    --      0.0001                 0.0002               115.8374

                     55                     56                     57
                      A                      A                      A
 Frequencies --   1039.0302              1039.8286              1061.2252
 Red. masses --      2.3149                 2.2638                 4.6548
 Frc consts  --      1.4724                 1.4421                 3.0886
 IR Inten    --      2.5888                11.8766                 2.3130

                     58                     59                     60
                      A                      A                      A
 Frequencies --   1151.2379              1161.8678              1167.7379
 Red. masses --      1.7665                 1.5698                 1.4791
 Frc consts  --      1.3794                 1.2485                 1.1884
 IR Inten    --      0.0001                 0.0007                 2.4599

                     61                     62                     63
                      A                      A                      A
 Frequencies --   1177.3863              1180.0748              1205.9448
 Red. masses --      1.2254                 1.1864                 2.6544
 Frc consts  --      1.0009                 0.9734                 2.2744
 IR Inten    --      6.1859                 0.0002                 0.0114

                     64                     65                     66
                      A                      A                      A
 Frequencies --   1209.5027              1247.6566              1251.9050
 Red. masses --      1.7183                 3.4820                 1.6555
 Frc consts  --      1.4810                 3.1936                 1.5287
 IR Inten    --    268.8586                 0.0018                 0.0004

                     67                     68                     69
                      A                      A                      A
 Frequencies --   1260.1755              1285.3425              1285.9661
 Red. masses --      1.5143                 2.0512                 1.9803
 Frc consts  --      1.4169                 1.9967                 1.9294
 IR Inten    --      1.4814                 0.1026                11.5841

                     70                     71                     72
                      A                      A                      A
 Frequencies --   1291.1933              1353.7952              1370.6072
 Red. masses --      5.5865                 2.5805                 2.4295
 Frc consts  --      5.4875                 2.7865                 2.6890
 IR Inten    --    972.1047                 0.1973                 0.0000

                     73                     74                     75
                      A                      A                      A
 Frequencies --   1395.0025              1396.6540              1412.1916
 Red. masses --      5.3908                 5.8329                 4.8867
 Frc consts  --      6.1809                 6.7036                 5.7419
 IR Inten    --      0.1016                10.5958               162.4664

                     76                     77                     78
                      A                      A                      A
 Frequencies --   1417.5017              1473.7545              1477.3353
 Red. masses --      5.3828                 2.6546                 2.7378
 Frc consts  --      6.3725                 3.3970                 3.5205
 IR Inten    --      0.0744                16.7696               136.6044

                     79                     80                     81
                      A                      A                      A
 Frequencies --   1481.1073              1486.2743              1530.9524
 Red. masses --      3.0026                 2.4756                 3.4167
 Frc consts  --      3.8808                 3.2220                 4.7183
 IR Inten    --      0.0082                 0.0000                22.6703

                     82                     83                     84
                      A                      A                      A
 Frequencies --   1539.2147              1599.6468              1601.4255
 Red. masses --      3.8436                 6.9212                 7.4166
 Frc consts  --      5.3652                10.4346                11.2065
 IR Inten    --      0.0214                12.3695                 0.0200

                     85                     86                     87
                      A                      A                      A
 Frequencies --   1614.3839              1626.0453              1653.2266
 Red. masses --      6.6333                 5.8908                 5.8048
 Frc consts  --     10.1858                 9.1768                 9.3476
 IR Inten    --     99.0446                 0.0011                60.0193

                     88                     89                     90
                      A                      A                      A
 Frequencies --   1658.0460              1709.4835              1730.2965
 Red. masses --      5.9529                12.7804                11.3290
 Frc consts  --      9.6421                22.0051                19.9840
 IR Inten    --      0.0170                 0.0013               262.2583

                     91                     92                     93
                      A                      A                      A
 Frequencies --   3163.8630              3163.8927              3169.7206
 Red. masses --      1.0858                 1.0858                 1.0884
 Frc consts  --      6.4039                 6.4040                 6.4431
 IR Inten    --      0.2534                 0.4900                 0.3602

                     94                     95                     96
                      A                      A                      A
 Frequencies --   3169.7415              3180.2174              3180.2759
 Red. masses --      1.0884                 1.0939                 1.0940
 Frc consts  --      6.4432                 6.5184                 6.5190
 IR Inten    --      0.0197                 9.1874                21.6535

                     97                     98                     99
                      A                      A                      A
 Frequencies --   3185.0009              3185.3971              3186.1109
 Red. masses --      1.0905                 1.0907                 1.0905
 Frc consts  --      6.5176                 6.5204                 6.5223
 IR Inten    --      0.2080                 2.3728                 2.1117

                    100                    101                    102
                      A                      A                      A
 Frequencies --   3186.6696              3191.0740              3191.1988
 Red. masses --      1.0908                 1.0974                 1.0974
 Frc consts  --      6.5261                 6.5843                 6.5845
 IR Inten    --      0.0728                51.9240                 1.6508

 - Thermochemistry -
 -------------------
 Temperature   298.150 Kelvin.  Pressure   1.00000 Atm.
 Atom     1 has atomic number  8 and mass  15.99491

 Molecular mass:   308.08373 amu.
 Principal axes and moments of inertia in atomic units:
                           1         2         3
     Eigenvalues --  2166.10010********************
           X            0.99908   0.01814   0.03880
           Y           -0.04232   0.55740   0.82916
           Z            0.00659   0.83004  -0.55766
 This molecule is an asymmetric top.
 Rotational symmetry number  1.
 Warning -- assumption of classical behavior for rotation
           may cause significant error
 Rotational temperatures (Kelvin)      0.03999     0.00559     0.00490
 Rotational constants (GHZ):           0.83318     0.11647     0.10219
 Zero-point vibrational energy     715075.3 (Joules/Mol)
                                  170.90709 (Kcal/Mol)
 Warning -- explicit consideration of  28 degrees of freedom as
           vibrations may cause significant error
 Vibrational temperatures:     32.50    92.90   127.19   139.73   145.82
          (Kelvin)            166.25   295.58   321.51   332.46   340.62
                              356.79   414.47   497.60   508.03   512.07
                              571.04   615.86   667.63   703.12   703.44
                              704.10   705.46   759.42   786.52   845.50
                              858.85   873.72   890.27   925.94   972.63
                             1000.66  1029.23  1070.17  1100.94  1112.67
                             1120.26  1124.65  1124.75  1126.77  1146.84
                             1180.71  1252.44  1255.39  1310.45  1359.95
                             1361.07  1365.29  1375.67  1377.75  1417.41
                             1421.14  1440.67  1440.91  1449.54  1494.93
                             1496.08  1526.87  1656.37  1671.67  1680.11
                             1694.00  1697.86  1735.09  1740.20  1795.10
                             1801.21  1813.11  1849.32  1850.22  1857.74
                             1947.81  1972.00  2007.10  2009.47  2031.83
                             2039.47  2120.40  2125.56  2130.98  2138.42
                             2202.70  2214.59  2301.54  2304.09  2322.74
                             2339.52  2378.62  2385.56  2459.57  2489.51
                             4552.09  4552.14  4560.52  4560.55  4575.62
                             4575.71  4582.51  4583.08  4584.10  4584.91
                             4591.24  4591.42

 Zero-point correction=                           0.272358 (Hartree/Particle)
 Thermal correction to Energy=                    0.288945
 Thermal correction to Enthalpy=                  0.289890
 Thermal correction to Gibbs Free Energy=         0.227743
 Sum of electronic and zero-point Energies=           -996.038102
 Sum of electronic and thermal Energies=              -996.021514
 Sum of electronic and thermal Enthalpies=            -996.020570
 Sum of electronic and thermal Free Energies=         -996.082717

                     E (Thermal)             CV                S
                      KCal/Mol        Cal/Mol-Kelvin    Cal/Mol-Kelvin
 Total                  181.316             69.079            130.799
 Electronic               0.000              0.000              0.000
 Translational            0.889              2.981             43.072
 Rotational               0.889              2.981             34.738
 Vibrational            179.539             63.117             52.990
 Vibration     1          0.593              1.985              6.392
 Vibration     2          0.597              1.971              4.313
 Vibration     3          0.601              1.957              3.695
 Vibration     4          0.603              1.951              3.511
 Vibration     5          0.604              1.948              3.428
 Vibration     6          0.608              1.937              3.174
 Vibration     7          0.640              1.832              2.084
 Vibration     8          0.649              1.805              1.931
 Vibration     9          0.653              1.793              1.871
 Vibration    10          0.656              1.784              1.827
 Vibration    11          0.662              1.766              1.745
 Vibration    12          0.685              1.696              1.485
 Vibration    13          0.724              1.584              1.185
 Vibration    14          0.729              1.569              1.152
 Vibration    15          0.731              1.563              1.140
 Vibration    16          0.763              1.477              0.974
 Vibration    17          0.790              1.409              0.865
 Vibration    18          0.822              1.330              0.754
 Vibration    19          0.845              1.275              0.687
 Vibration    20          0.845              1.275              0.686
 Vibration    21          0.845              1.274              0.685
 Vibration    22          0.846              1.271              0.683
 Vibration    23          0.883              1.188              0.592
 Vibration    24          0.902              1.147              0.551
 Vibration    25          0.945              1.058              0.471
 Vibration    26          0.955              1.038              0.455
 Vibration    27          0.966              1.016              0.437
 Vibration    28          0.979              0.992              0.418

 Optimization completed.
    -- Stationary point found.
 Normal termination of Gaussian 16 at Wed Dec 27 21:41:14 2023.
