 Q-Chem 5.4, Q-Chem, Inc., Pleasanton, CA (2021)
 Q-Chem 5.4.0 for Intel X86 EM64T Linux

User input:
--------------------------------------------------------------
$molecule
-1 2
Cl                 2.3031190000     -2.0477020000      0.0546730000
C                  0.9916690000     -0.8788530000      0.0234670000
C                  1.2367110000      0.4748710000      0.0011460000
Cl                 2.8758220000      1.1100470000      0.0026340000
C                  0.1646800000      1.4695600000     -0.0250650000
O                  0.3757770000      2.7056720000     -0.0455630000
C                 -1.1683750000      0.9048560000     -0.0253230000
C                 -1.4117590000     -0.4372850000     -0.0031880000
C                 -0.3620430000     -1.4337450000      0.0228130000
O                 -0.5982500000     -2.6652950000      0.0430570000
H                 -1.9817670000      1.6236780000     -0.0445240000
H                 -2.4255850000     -0.8258040000     -0.0041270000
$end
$rem
MAX_SCF_CYCLES=200
BASIS  =  6-311++G(d,p)
GUI  =  2
JOB_TYPE  =  SP
METHOD  =  B3LYP
SOLVENT_METHOD = COSMO
$end
$solvent
dielectric 37.219
opticaldielectric 1.43
$end

--------------------------------------------------------------

             Standard Nuclear Orientation (Angstroms)
    I     Atom           X                Y                Z
 ----------------------------------------------------------------
    1      Cl     -1.6038897529    -1.7251199259    -0.0000077856
    2      C      -0.6880942331    -0.2256528648    -0.0000228638
    3      C       0.6878095988    -0.2245934236    -0.0000156668
    4      Cl      1.6057945967    -1.7237395729     0.0000281571
    5      C       1.4750163542     1.0081471056    -0.0000274574
    6      O       2.7291195775     1.0215669813    -0.0000381548
    7      C       0.6810766823     2.2187610414     0.0000270782
    8      C      -0.6831329096     2.2181422006     0.0000283595
    9      C      -1.4760695685     1.0070419916    -0.0000270232
   10      O      -2.7301718367     1.0191444175     0.0000077660
   11      H       1.2430460833     3.1476693700     0.0000617038
   12      H      -1.2466458995     3.1461746152     0.0000605320
 ----------------------------------------------------------------

    9   -1300.8944158107      8.65e-06  Convergence criterion met
 Total energy in the final basis set =    -1300.8944158107
    5   -1300.9763558104      4.66e-06  Convergence criterion met
 Total energy in the final basis set =    -1300.9763558104

                    Orbital Energies (a.u.)
 --------------------------------------------------------------

 Alpha MOs
 -- Occupied --
********-101.5581 -19.0960 -19.0960 -10.2440 -10.2440 -10.2411 -10.2405
-10.1773 -10.1767  -9.4726  -9.4725  -7.2371  -7.2370  -7.2280  -7.2279
 -7.2268  -7.2267  -1.0239  -1.0211  -0.8993  -0.8512  -0.8211  -0.7332
 -0.6960  -0.6044  -0.5859  -0.5046  -0.4861  -0.4602  -0.4404  -0.4351
 -0.4276  -0.4059  -0.3996  -0.3861  -0.3665  -0.3385  -0.3308  -0.3084
 -0.2946  -0.2646  -0.2605  -0.2570  -0.1792

 Beta MOs
 -- Occupied --
********-101.5580 -19.0891 -19.0891 -10.2427 -10.2426 -10.2398 -10.2392
-10.1763 -10.1757  -9.4726  -9.4725  -7.2371  -7.2370  -7.2277  -7.2277
 -7.2268  -7.2267  -1.0122  -1.0091  -0.8965  -0.8500  -0.8163  -0.7308
 -0.6854  -0.6000  -0.5817  -0.5023  -0.4818  -0.4570  -0.4341  -0.4249
 -0.4212  -0.4017  -0.3839  -0.3742  -0.3553  -0.3320  -0.3302  -0.3081
 -0.2657  -0.2582  -0.2542  -0.2492

          Ground-State Mulliken Net Atomic Charges

     Atom                 Charge (a.u.)    Spin (a.u.)
  --------------------------------------------------------
      1 Cl                    0.280530       0.007205
      2 C                     0.485010       0.064037
      3 C                     0.486831       0.063826
      4 Cl                    0.279942       0.007130
      5 C                    -0.977159       0.110724
      6 O                    -0.462074       0.241699
      7 C                    -0.050795       0.082675
      8 C                    -0.050201       0.082569
      9 C                    -0.974500       0.110768
     10 O                    -0.462096       0.241652
     11 H                     0.222287      -0.006138
     12 H                     0.222227      -0.006148
  --------------------------------------------------------
  Sum of atomic charges =    -1.000000

                    Cartesian Multipole Moments
 -----------------------------------------------------------------
    Charge (ESU x 10^10)
                -4.8032
    Dipole Moment (Debye)
         X      -0.0043      Y      -0.9535      Z      -0.0005
       Tot       0.9535
    Quadrupole Moments (Debye-Ang)
        XX    -115.3942     XY      -0.0101     YY     -75.2639
        XZ       0.0002     YZ      -0.0006     ZZ     -73.8660

 Total job time:  17.14s(wall), 118.72s(cpu)
        *  Thank you very much for using Q-Chem.  Have a nice day.  *
