 Gaussian 16, Revision A.03,
 Gaussian 16:  ES64L-G16RevA.03 25-Dec-2016

 ----------------------------------------------------------------------
 #P UB3LYP/6-311++G(d,p) nosym opt freq SCRF=(PCM,Solvent=n,n-DiMethylF
 ormamide)
 ----------------------------------------------------------------------

 --------
 Oxidized
 --------
 Symbolic Z-matrix:
 Charge =  0 Multiplicity = 1

 SCF Done:  E(UB3LYP) =  -805.921126034     A.U. after   16 cycles
 SCF Done:  E(UB3LYP) =  -805.921212397     A.U. after   14 cycles
 SCF Done:  E(UB3LYP) =  -805.921264073     A.U. after   13 cycles
 SCF Done:  E(UB3LYP) =  -805.921286221     A.U. after   12 cycles
 SCF Done:  E(UB3LYP) =  -805.921293240     A.U. after   11 cycles
 SCF Done:  E(UB3LYP) =  -805.921295108     A.U. after   11 cycles
 SCF Done:  E(UB3LYP) =  -805.921296314     A.U. after   10 cycles
 SCF Done:  E(UB3LYP) =  -805.921296913     A.U. after   11 cycles
 SCF Done:  E(UB3LYP) =  -805.921297130     A.U. after   11 cycles
 SCF Done:  E(UB3LYP) =  -805.921297195     A.U. after    9 cycles
 Optimization completed.
    -- Stationary point found.
 Normal termination of Gaussian 16 at Sun Feb 11 01:44:58 2024.

 ----------------------------------------------------------------------
 #P Geom=AllCheck Guess=TCheck SCRF=Check GenChk UB3LYP/6-311++G(d,p) F
 req
 ----------------------------------------------------------------------

 Structure from the checkpoint file:  "290.chk"
 --------
 Oxidized
 --------
 Charge =  0 Multiplicity = 1

                          Input orientation:
 ---------------------------------------------------------------------
 Center     Atomic      Atomic             Coordinates (Angstroms)
 Number     Number       Type             X           Y           Z
 ---------------------------------------------------------------------
      1          8           0       -0.431934    2.177851    0.218924
      2          6           0       -0.583531    0.962414    0.122617
      3          6           0        0.580942    0.061038    0.024090
      4          6           0        0.385498   -1.281238   -0.085617
      5          8           0        1.369657   -2.187144   -0.192382
      6          6           0       -0.975666   -1.911906   -0.115156
      7          8           0       -1.087101   -3.122811   -0.218887
      8          6           0       -2.147122   -1.008538   -0.020182
      9          6           0       -3.438376   -1.541061   -0.044952
     10          6           0       -4.541419   -0.696569    0.045688
     11          6           0       -4.356758    0.682223    0.160786
     12          6           0       -3.070349    1.217591    0.185425
     13          6           0       -1.959693    0.377932    0.095807
     14          6           0        1.957749    0.696094    0.001593
     15          1           0       -3.564692   -2.612643   -0.134413
     16          1           0       -5.542328   -1.111076    0.026970
     17          1           0       -5.215285    1.339747    0.230837
     18          1           0       -2.915379    2.285259    0.273836
     19          6           0        2.991951   -0.019056    0.839928
     20          6           0        4.219246   -0.427836    0.472215
     21          6           0        4.809709   -0.264729   -0.904909
     22          6           0        5.137394   -1.085091    1.472849
     23          1           0        2.230001   -1.760159   -0.008152
     24          1           0        1.842170    1.720153    0.366313
     25          1           0        2.283631    0.784666   -1.039607
     26          1           0        2.699833   -0.179087    1.876700
     27          1           0        4.119322    0.163744   -1.630451
     28          1           0        5.153605   -1.231287   -1.288360
     29          1           0        5.692407    0.382562   -0.855799
     30          1           0        4.669225   -1.184309    2.453645
     31          1           0        6.058446   -0.502526    1.586819
     32          1           0        5.437836   -2.080672    1.128202
 ---------------------------------------------------------------------

 SCF Done:  E(UB3LYP) =  -805.921297195     A.U. after    2 cycles

 Alpha  occ. eigenvalues --  -19.17815 -19.14047 -19.12935 -10.28969 -10.28195
 Alpha  occ. eigenvalues --  -10.27212 -10.21004 -10.20952 -10.20826 -10.20047
 Alpha  occ. eigenvalues --  -10.19966 -10.19854 -10.19836 -10.19683 -10.19033
 Alpha  occ. eigenvalues --  -10.17933 -10.17018 -10.16812  -1.10110  -1.06606
 Alpha  occ. eigenvalues --   -1.06106  -0.89212  -0.84659  -0.82639  -0.78746
 Alpha  occ. eigenvalues --   -0.77984  -0.74746  -0.70182  -0.70024  -0.66543
 Alpha  occ. eigenvalues --   -0.65122  -0.63096  -0.59232  -0.58084  -0.54979
 Alpha  occ. eigenvalues --   -0.53216  -0.51048  -0.50114  -0.47913  -0.46778
 Alpha  occ. eigenvalues --   -0.46420  -0.46286  -0.45661  -0.45334  -0.44506
 Alpha  occ. eigenvalues --   -0.44157  -0.42595  -0.42436  -0.41248  -0.40098
 Alpha  occ. eigenvalues --   -0.39605  -0.39211  -0.38382  -0.38118  -0.37565
 Alpha  occ. eigenvalues --   -0.37049  -0.36953  -0.34689  -0.29267  -0.28938
 Alpha  occ. eigenvalues --   -0.28358  -0.28013  -0.26326  -0.25297
 Alpha virt. eigenvalues --   -0.12406  -0.05698  -0.02782  -0.01145  -0.00496
 Alpha virt. eigenvalues --   -0.00153   0.01044   0.01311   0.01359   0.02365
 Alpha virt. eigenvalues --    0.02555   0.03160   0.03468   0.03678   0.04228

  Beta  occ. eigenvalues --  -19.17815 -19.14047 -19.12935 -10.28969 -10.28195
  Beta  occ. eigenvalues --  -10.27212 -10.21004 -10.20952 -10.20826 -10.20047
  Beta  occ. eigenvalues --  -10.19966 -10.19854 -10.19836 -10.19683 -10.19033
  Beta  occ. eigenvalues --  -10.17933 -10.17018 -10.16812  -1.10110  -1.06606
  Beta  occ. eigenvalues --   -1.06106  -0.89212  -0.84659  -0.82639  -0.78746
  Beta  occ. eigenvalues --   -0.77984  -0.74746  -0.70182  -0.70024  -0.66543
  Beta  occ. eigenvalues --   -0.65122  -0.63096  -0.59232  -0.58084  -0.54979
  Beta  occ. eigenvalues --   -0.53216  -0.51048  -0.50114  -0.47913  -0.46778
  Beta  occ. eigenvalues --   -0.46420  -0.46286  -0.45661  -0.45334  -0.44506
  Beta  occ. eigenvalues --   -0.44157  -0.42595  -0.42436  -0.41248  -0.40098
  Beta  occ. eigenvalues --   -0.39605  -0.39211  -0.38382  -0.38118  -0.37565
  Beta  occ. eigenvalues --   -0.37049  -0.36953  -0.34689  -0.29267  -0.28938
  Beta  occ. eigenvalues --   -0.28358  -0.28013  -0.26326  -0.25297
  Beta virt. eigenvalues --   -0.12406  -0.05698  -0.02782  -0.01145  -0.00496
  Beta virt. eigenvalues --   -0.00153   0.01044   0.01311   0.01359   0.02365
  Beta virt. eigenvalues --    0.02555   0.03160   0.03468   0.03678   0.04228

 Mulliken charges and spin densities:
               1          2
     1  O   -0.278466  -0.000000
     2  C   -1.206247   0.000000
     3  C    1.999733  -0.000000
     4  C   -0.924385   0.000000
     5  O   -0.278150  -0.000000
     6  C   -0.560289   0.000000
     7  O   -0.284240   0.000000
     8  C    0.730369  -0.000000
     9  C    0.083347   0.000000
    10  C   -0.348228  -0.000000
    11  C   -0.432916   0.000000
    12  C    0.241163  -0.000000
    13  C   -0.121237   0.000000
    14  C   -0.368466   0.000000
    15  H    0.180267   0.000000
    16  H    0.209845  -0.000000
    17  H    0.207333  -0.000000
    18  H    0.186391  -0.000000
    19  C   -0.381561   0.000000
    20  C    0.480510  -0.000000
    21  C   -0.559470  -0.000000
    22  C   -0.582569  -0.000000
    23  H    0.436065   0.000000
    24  H    0.214457  -0.000000
    25  H    0.186207   0.000000
    26  H    0.207998   0.000000
    27  H    0.155187  -0.000000
    28  H    0.161706   0.000000
    29  H    0.166861  -0.000000
    30  H    0.163483   0.000000
    31  H    0.154966  -0.000000
    32  H    0.160336  -0.000000
 Sum of Mulliken charges =  -0.00000  -0.00000

 Dipole moment (field-independent basis, Debye):
    X=              1.2571    Y=              1.4344    Z=              0.2499  Tot=              1.9236
 Quadrupole moment (field-independent basis, Debye-Ang):
   XX=            -67.5451   YY=           -128.5599   ZZ=           -105.6743
   XY=             -4.0588   XZ=             -0.5446   YZ=             -2.6706

  Exact polarizability: 342.564 -12.086 299.299  -5.040  11.730 153.706
 Approx polarizability: 352.003 -11.339 400.332  -9.053  20.586 175.348

                      1                      2                      3
                      A                      A                      A
 Frequencies --     24.5155                44.2589                55.6603
 Red. masses --      4.4701                 3.1237                 4.9553
 Frc consts  --      0.0016                 0.0036                 0.0090
 IR Inten    --      2.3849                 0.3342                 8.4112

                      4                      5                      6
                      A                      A                      A
 Frequencies --     67.5510               112.2380               117.3298
 Red. masses --      4.8670                 3.8617                 3.2250
 Frc consts  --      0.0131                 0.0287                 0.0262
 IR Inten    --      2.6859                 0.2558                 0.5875

                      7                      8                      9
                      A                      A                      A
 Frequencies --    131.4234               170.9721               182.4552
 Red. masses --      1.1999                 6.2576                 1.5277
 Frc consts  --      0.0122                 0.1078                 0.0300
 IR Inten    --      0.2462                 1.9148                 3.0020

                     10                     11                     12
                      A                      A                      A
 Frequencies --    196.1646               259.7413               282.3757
 Red. masses --      2.4514                 3.8741                 2.7468
 Frc consts  --      0.0556                 0.1540                 0.1290
 IR Inten    --      2.0748                 0.3789                 3.2640

                     13                     14                     15
                      A                      A                      A
 Frequencies --    291.1723               301.2221               368.8523
 Red. masses --      3.6660                 3.8516                 6.6728
 Frc consts  --      0.1831                 0.2059                 0.5349
 IR Inten    --      3.8093                 3.0821                 7.4596

                     16                     17                     18
                      A                      A                      A
 Frequencies --    386.1389               408.0220               415.5718
 Red. masses --      8.8859                 2.8427                 5.1251
 Frc consts  --      0.7806                 0.2788                 0.5215
 IR Inten    --     25.2868                 1.2180                16.8480

                     19                     20                     21
                      A                      A                      A
 Frequencies --    421.1521               445.5691               450.9781
 Red. masses --      4.4809                 4.5642                 3.2202
 Frc consts  --      0.4683                 0.5339                 0.3859
 IR Inten    --      1.9542                 0.4805                12.7460

                     22                     23                     24
                      A                      A                      A
 Frequencies --    485.5519               504.3414               533.7806
 Red. masses --      3.8791                 3.3581                 4.8331
 Frc consts  --      0.5388                 0.5033                 0.8113
 IR Inten    --      6.8935                 6.1293                13.5469

                     25                     26                     27
                      A                      A                      A
 Frequencies --    573.0072               639.0703               648.2790
 Red. masses --      3.7980                 1.5330                 2.9308
 Frc consts  --      0.7347                 0.3689                 0.7257
 IR Inten    --      1.5289               110.6285                57.7356

                     28                     29                     30
                      A                      A                      A
 Frequencies --    673.4341               696.1067               718.4742
 Red. masses --      5.9890                 4.3642                 5.8459
 Frc consts  --      1.6003                 1.2460                 1.7780
 IR Inten    --      4.5643                12.7850                 0.4007

                     31                     32                     33
                      A                      A                      A
 Frequencies --    738.3434               779.1879               789.6284
 Red. masses --      2.3001                 2.5795                 3.9786
 Frc consts  --      0.7388                 0.9227                 1.4616
 IR Inten    --     78.3629                 2.6750                 8.3630

                     34                     35                     36
                      A                      A                      A
 Frequencies --    813.0507               865.3474               865.7692
 Red. masses --      2.5592                 3.9167                 1.5578
 Frc consts  --      0.9968                 1.7280                 0.6880
 IR Inten    --     14.8516                 0.8213                28.4160

                     37                     38                     39
                      A                      A                      A
 Frequencies --    911.7777               935.2836               953.4640
 Red. masses --      1.3659                 4.4857                 2.6164
 Frc consts  --      0.6691                 2.3119                 1.4014
 IR Inten    --      0.1387               111.0192                79.1547

                     40                     41                     42
                      A                      A                      A
 Frequencies --    960.4134               998.7870              1012.1708
 Red. masses --      1.4118                 1.3867                 1.2497
 Frc consts  --      0.7673                 0.8151                 0.7544
 IR Inten    --      0.7100                 2.3024                12.1982

                     43                     44                     45
                      A                      A                      A
 Frequencies --   1021.5111              1028.9036              1045.4881
 Red. masses --      1.3280                 3.2519                 2.5658
 Frc consts  --      0.8165                 2.0283                 1.6524
 IR Inten    --      0.0274                43.7107                32.7141

                     46                     47                     48
                      A                      A                      A
 Frequencies --   1061.6304              1100.1909              1110.3267
 Red. masses --      2.2828                 1.6914                 2.2839
 Frc consts  --      1.5159                 1.2062                 1.6589
 IR Inten    --     33.2728                 0.9447                 6.8298

                     49                     50                     51
                      A                      A                      A
 Frequencies --   1122.7026              1160.4002              1182.1303
 Red. masses --      1.9340                 2.0477                 1.1549
 Frc consts  --      1.4363                 1.6245                 0.9509
 IR Inten    --     20.2034                14.4431                18.6151

                     52                     53                     54
                      A                      A                      A
 Frequencies --   1196.4350              1217.2214              1255.2482
 Red. masses --      1.8119                 2.7213                 1.7462
 Frc consts  --      1.5282                 2.3756                 1.6211
 IR Inten    --     36.1425               292.3284               194.9291

                     55                     56                     57
                      A                      A                      A
 Frequencies --   1266.0739              1304.4448              1306.1182
 Red. masses --      2.0361                 1.8645                 2.5303
 Frc consts  --      1.9230                 1.8692                 2.5433
 IR Inten    --    402.8227                26.0712               246.4108

                     58                     59                     60
                      A                      A                      A
 Frequencies --   1337.1438              1363.3448              1380.0954
 Red. masses --      2.3701                 7.3273                 1.3476
 Frc consts  --      2.4967                 8.0243                 1.5122
 IR Inten    --     92.1878                70.3447                20.7014

                     61                     62                     63
                      A                      A                      A
 Frequencies --   1406.3288              1411.6759              1416.1885
 Red. masses --      1.3599                 1.5122                 1.5684
 Frc consts  --      1.5846                 1.7755                 1.8533
 IR Inten    --     14.7123                30.1464                58.3473

                     64                     65                     66
                      A                      A                      A
 Frequencies --   1461.1953              1462.8697              1478.8088
 Red. masses --      1.0753                 1.0547                 1.0522
 Frc consts  --      1.3526                 1.3298                 1.3558
 IR Inten    --     14.0400                 2.0134                15.8674

                     67                     68                     69
                      A                      A                      A
 Frequencies --   1481.2138              1482.4822              1485.4239
 Red. masses --      1.0443                 2.3312                 1.0968
 Frc consts  --      1.3499                 3.0186                 1.4259
 IR Inten    --     28.3548                 0.5718                 7.4686

                     70                     71                     72
                      A                      A                      A
 Frequencies --   1505.7979              1608.0279              1620.6995
 Red. masses --      2.6762                 6.8433                 6.0144
 Frc consts  --      3.5752                10.4257                 9.3078
 IR Inten    --     14.9510               218.1643               243.1575

                     73                     74                     75
                      A                      A                      A
 Frequencies --   1642.6942              1671.6398              1703.5111
 Red. masses --      8.2659                11.4822                 6.1207
 Frc consts  --     13.1418                18.9043                10.4650
 IR Inten    --    401.6299               354.6775                29.6054

                     76                     77                     78
                      A                      A                      A
 Frequencies --   1709.1805              3012.5583              3019.9168
 Red. masses --     12.0121                 1.0377                 1.0406
 Frc consts  --     20.6749                 5.5488                 5.5916
 IR Inten    --    443.7722                35.8306                56.6493

                     79                     80                     81
                      A                      A                      A
 Frequencies --   3037.5402              3057.3922              3061.1734
 Red. masses --      1.0612                 1.0996                 1.0990
 Frc consts  --      5.7688                 6.0559                 6.0674
 IR Inten    --     17.3087                14.0066                38.6958

                     82                     83                     84
                      A                      A                      A
 Frequencies --   3073.1003              3103.8168              3118.5293
 Red. masses --      1.0979                 1.1004                 1.0879
 Frc consts  --      6.1092                 6.2457                 6.2335
 IR Inten    --      6.3093                29.6100                27.8254

                     85                     86                     87
                      A                      A                      A
 Frequencies --   3122.7406              3179.0789              3191.3151
 Red. masses --      1.0965                 1.0875                 1.0914
 Frc consts  --      6.3000                 6.4754                 6.5488
 IR Inten    --     42.4270                 3.4106                10.3833

                     88                     89                     90
                      A                      A                      A
 Frequencies --   3203.0818              3206.8242              3525.0054
 Red. masses --      1.0931                 1.0950                 1.0670
 Frc consts  --      6.6076                 6.6345                 7.8114
 IR Inten    --      5.7500                16.0813               928.0351

 - Thermochemistry -
 -------------------
 Temperature   298.150 Kelvin.  Pressure   1.00000 Atm.
 Atom     1 has atomic number  8 and mass  15.99491

 Molecular mass:   242.09429 amu.
 Principal axes and moments of inertia in atomic units:
                           1         2         3
     Eigenvalues --  1868.889047856.498809281.24427
           X            0.99846   0.03589  -0.04220
           Y           -0.03869   0.99697  -0.06748
           Z            0.03965   0.06901   0.99683
 This molecule is an asymmetric top.
 Rotational symmetry number  1.
 Warning -- assumption of classical behavior for rotation
           may cause significant error
 Rotational temperatures (Kelvin)      0.04635     0.01102     0.00933
 Rotational constants (GHZ):           0.96568     0.22971     0.19445
 Zero-point vibrational energy     664811.8 (Joules/Mol)
                                  158.89383 (Kcal/Mol)
 Warning -- explicit consideration of  25 degrees of freedom as
           vibrations may cause significant error
 Vibrational temperatures:     35.27    63.68    80.08    97.19   161.49
          (Kelvin)            168.81   189.09   245.99   262.51   282.24
                              373.71   406.28   418.93   433.39   530.70
                              555.57   587.05   597.92   605.94   641.07
                              648.86   698.60   725.63   767.99   824.43
                              919.48   932.73   968.92  1001.54  1033.72
                             1062.31  1121.08  1136.10  1169.80  1245.04
                             1245.65  1311.84  1345.66  1371.82  1381.82
                             1437.03  1456.29  1469.73  1480.36  1504.22
                             1527.45  1582.93  1597.51  1615.32  1669.56
                             1700.82  1721.40  1751.31  1806.02  1821.60
                             1876.81  1879.21  1923.85  1961.55  1985.65
                             2023.39  2031.09  2037.58  2102.33  2104.74
                             2127.68  2131.14  2132.96  2137.19  2166.51
                             2313.59  2331.83  2363.47  2405.12  2450.97
                             2459.13  4334.40  4344.99  4370.34  4398.91
                             4404.35  4421.51  4465.70  4486.87  4492.93
                             4573.99  4591.59  4608.52  4613.90  5071.70

 Zero-point correction=                           0.253213 (Hartree/Particle)
 Thermal correction to Energy=                    0.269690
 Thermal correction to Enthalpy=                  0.270634
 Thermal correction to Gibbs Free Energy=         0.208172
 Sum of electronic and zero-point Energies=           -805.668084
 Sum of electronic and thermal Energies=              -805.651607
 Sum of electronic and thermal Enthalpies=            -805.650663
 Sum of electronic and thermal Free Energies=         -805.713126

                     E (Thermal)             CV                S
                      KCal/Mol        Cal/Mol-Kelvin    Cal/Mol-Kelvin
 Total                  169.233             62.828            131.463
 Electronic               0.000              0.000              0.000
 Translational            0.889              2.981             42.354
 Rotational               0.889              2.981             33.277
 Vibrational            167.455             56.866             55.833
 Vibration     1          0.593              1.985              6.230
 Vibration     2          0.595              1.980              5.059
 Vibration     3          0.596              1.975              4.605
 Vibration     4          0.598              1.970              4.223
 Vibration     5          0.607              1.939              3.230
 Vibration     6          0.608              1.935              3.144
 Vibration     7          0.612              1.922              2.925
 Vibration     8          0.626              1.878              2.425
 Vibration     9          0.630              1.864              2.303
 Vibration    10          0.636              1.845              2.169
 Vibration    11          0.668              1.746              1.664
 Vibration    12          0.681              1.706              1.519
 Vibration    13          0.687              1.690              1.467
 Vibration    14          0.693              1.671              1.410
 Vibration    15          0.741              1.536              1.085
 Vibration    16          0.755              1.500              1.015
 Vibration    17          0.773              1.453              0.934
 Vibration    18          0.779              1.436              0.907
 Vibration    19          0.784              1.424              0.888
 Vibration    20          0.805              1.371              0.809
 Vibration    21          0.810              1.359              0.793
 Vibration    22          0.842              1.282              0.695
 Vibration    23          0.860              1.240              0.647
 Vibration    24          0.889              1.175              0.579
 Vibration    25          0.929              1.090              0.498

                           ! Non-Optimized Parameters !
 Normal termination of Gaussian 16 at Sun Feb 11 02:55:08 2024.
