 Gaussian 16, Revision A.03,
 Gaussian 16:  ES64L-G16RevA.03 25-Dec-2016

 --------------------------------------
 #P UB3LYP/6-311++G(d,p) nosym opt freq
 --------------------------------------

 -------
 Radical
 -------
 Symbolic Z-matrix:
 Charge = -1 Multiplicity = 2

 SCF Done:  E(UB3LYP) =  -990.033964941     A.U. after   23 cycles
 SCF Done:  E(UB3LYP) =  -990.033964866     A.U. after   10 cycles
 SCF Done:  E(UB3LYP) =  -990.033965055     A.U. after    9 cycles
 Optimization completed.
    -- Stationary point found.
 Normal termination of Gaussian 16 at Sun Jan  7 07:04:37 2024.

 ----------------------------------------------------------------------
 #P Geom=AllCheck Guess=TCheck SCRF=Check GenChk UB3LYP/6-311++G(d,p) F
 req
 ----------------------------------------------------------------------

 Structure from the checkpoint file:  "204-rad.chk"
 -------
 Radical
 -------
 Charge = -1 Multiplicity = 2

                          Input orientation:
 ---------------------------------------------------------------------
 Center     Atomic      Atomic             Coordinates (Angstroms)
 Number     Number       Type             X           Y           Z
 ---------------------------------------------------------------------
      1          8           0        4.872898   -0.894729    0.019089
      2          6           0        3.651487   -0.264862    0.058513
      3          6           0        3.577073    1.131037    0.125607
      4          6           0        2.339353    1.753974    0.164916
      5          6           0        1.148772    1.009512    0.138688
      6          6           0       -0.146257    1.716767    0.182444
      7          8           0       -0.174730    2.958279    0.241722
      8          6           0       -1.360910    0.880430    0.151749
      9          6           0       -2.659432    1.449267    0.188651
     10          8           0       -2.816650    2.813914    0.254979
     11          6           0       -3.788294    0.639162    0.158414
     12          6           0       -3.686498   -0.755358    0.091031
     13          6           0       -2.442636   -1.359445    0.052874
     14          8           0       -2.381594   -2.711832   -0.012136
     15          6           0       -1.257114   -0.557360    0.082317
     16          6           0        0.023890   -1.207797    0.041574
     17          8           0        0.124744   -2.512500   -0.021609
     18          6           0        1.217703   -0.406744    0.070634
     19          6           0        2.490933   -1.029186    0.031079
     20          8           0        2.642106   -2.381718   -0.034422
     21          1           0        4.683275   -1.842909   -0.024403
     22          1           0        4.498876    1.702096    0.145674
     23          1           0        2.256880    2.832268    0.216922
     24          1           0       -3.763817    2.987543    0.270277
     25          1           0       -4.771933    1.103399    0.187988
     26          1           0       -4.571680   -1.380417    0.067804
     27          1           0       -1.406829   -2.934139   -0.029738
     28          1           0        1.700384   -2.738652   -0.043783
 ---------------------------------------------------------------------

 SCF Done:  E(UB3LYP) =  -990.033965055     A.U. after    1 cycles

 Alpha  occ. eigenvalues --  -19.04714 -19.04088 -19.02729 -19.01265 -18.98295
 Alpha  occ. eigenvalues --  -18.95427 -10.12416 -10.12009 -10.11901 -10.11898
 Alpha  occ. eigenvalues --  -10.11836 -10.11400 -10.06792 -10.06787 -10.06665
 Alpha  occ. eigenvalues --  -10.06585 -10.06460 -10.06037 -10.05741 -10.05584
 Alpha  occ. eigenvalues --   -0.96566  -0.95288  -0.93989  -0.93162  -0.88691
 Alpha  occ. eigenvalues --   -0.88509  -0.74892  -0.73460  -0.67805  -0.63768
 Alpha  occ. eigenvalues --   -0.63010  -0.62390  -0.56291  -0.53811  -0.53378
 Alpha  occ. eigenvalues --   -0.49272  -0.47782  -0.44811  -0.44259  -0.42009
 Alpha  occ. eigenvalues --   -0.41291  -0.38337  -0.37534  -0.36689  -0.35190
 Alpha  occ. eigenvalues --   -0.33961  -0.33278  -0.32160  -0.31460  -0.31297
 Alpha  occ. eigenvalues --   -0.30171  -0.29084  -0.28893  -0.28553  -0.27709
 Alpha  occ. eigenvalues --   -0.27432  -0.26310  -0.26143  -0.24880  -0.24792
 Alpha  occ. eigenvalues --   -0.24662  -0.23477  -0.20910  -0.19695  -0.15872
 Alpha  occ. eigenvalues --   -0.15086  -0.13462  -0.11341  -0.10948  -0.10096
 Alpha  occ. eigenvalues --   -0.02724
 Alpha virt. eigenvalues --    0.07118   0.07141   0.08786   0.08918   0.09443
 Alpha virt. eigenvalues --    0.09874   0.11379   0.12493   0.12660   0.12935
 Alpha virt. eigenvalues --    0.14489   0.14919   0.15348   0.16144   0.16199

  Beta  occ. eigenvalues --  -19.04706 -19.04082 -19.02682 -19.01208 -18.97806
  Beta  occ. eigenvalues --  -18.94954 -10.12458 -10.11932 -10.11867 -10.11763
  Beta  occ. eigenvalues --  -10.11538 -10.11365 -10.06826 -10.06625 -10.06625
  Beta  occ. eigenvalues --  -10.06531 -10.06391 -10.05976 -10.05653 -10.05598
  Beta  occ. eigenvalues --   -0.96502  -0.95274  -0.93779  -0.93066  -0.87899
  Beta  occ. eigenvalues --   -0.87701  -0.74644  -0.73307  -0.67409  -0.63555
  Beta  occ. eigenvalues --   -0.62766  -0.62206  -0.55614  -0.53675  -0.53181
  Beta  occ. eigenvalues --   -0.49137  -0.47572  -0.44687  -0.44193  -0.41867
  Beta  occ. eigenvalues --   -0.41172  -0.38194  -0.37261  -0.36598  -0.35036
  Beta  occ. eigenvalues --   -0.33875  -0.32665  -0.32024  -0.31062  -0.31042
  Beta  occ. eigenvalues --   -0.30068  -0.28847  -0.28263  -0.28213  -0.27628
  Beta  occ. eigenvalues --   -0.26730  -0.26231  -0.25380  -0.24793  -0.24681
  Beta  occ. eigenvalues --   -0.23302  -0.23085  -0.20298  -0.18955  -0.14731
  Beta  occ. eigenvalues --   -0.14157  -0.12993  -0.10895  -0.09991  -0.09354
  Beta virt. eigenvalues --    0.02815   0.07141   0.08227   0.08790   0.09437
  Beta virt. eigenvalues --    0.09874   0.09897   0.11396   0.12664   0.12841
  Beta virt. eigenvalues --    0.12938   0.14516   0.15182   0.15358   0.16208

 Mulliken charges and spin densities:
               1          2
     1  O   -0.289350   0.002938
     2  C   -0.372130   0.014919
     3  C    0.059932   0.058529
     4  C    0.027769  -0.002230
     5  C    0.308094   0.069576
     6  C   -0.573828  -0.000224
     7  O   -0.325568   0.179294
     8  C    0.165205   0.087179
     9  C   -0.206935  -0.014225
    10  O   -0.186575   0.002100
    11  C   -0.200501   0.122595
    12  C   -0.106552   0.036447
    13  C   -0.266310   0.073720
    14  O   -0.381104   0.017708
    15  C    0.620855  -0.049612
    16  C   -0.528565   0.212026
    17  O   -0.544119   0.169368
    18  C    0.495872  -0.051727
    19  C   -0.106106   0.083376
    20  O   -0.476640   0.014290
    21  H    0.277974  -0.000133
    22  H    0.164288  -0.004496
    23  H    0.157443  -0.000283
    24  H    0.234961  -0.000680
    25  H    0.088466  -0.010709
    26  H    0.149357  -0.004069
    27  H    0.384927  -0.002811
    28  H    0.429141  -0.002864
 Sum of Mulliken charges =  -1.00000   1.00000

 Dipole moment (field-independent basis, Debye):
    X=             -2.0626    Y=             -0.0913    Z=             -0.4637  Tot=              2.1161
 Quadrupole moment (field-independent basis, Debye-Ang):
   XX=           -139.5633   YY=           -149.3971   ZZ=           -120.8444
   XY=             -5.8981   XZ=             -0.3388   YZ=             -1.3377

  Exact polarizability: 349.288  -5.567 235.255  -2.195   6.658  96.794
 Approx polarizability: 536.386 -10.735 447.242  -3.424  14.045 155.233

                      1                      2                      3
                      A                      A                      A
 Frequencies --     40.0096                62.3455               100.5810
 Red. masses --      7.8937                 7.7318                 8.4249
 Frc consts  --      0.0074                 0.0177                 0.0502
 IR Inten    --      4.7363                 0.0168                 2.0285

                      4                      5                      6
                      A                      A                      A
 Frequencies --    127.2041               134.4230               188.4804
 Red. masses --      7.5777                10.0920                 7.0097
 Frc consts  --      0.0722                 0.1074                 0.1467
 IR Inten    --      0.3225                 0.0000                 2.0057

                      7                      8                      9
                      A                      A                      A
 Frequencies --    192.3554               230.5665               272.3839
 Red. masses --      3.6213                 1.3834                 5.0466
 Frc consts  --      0.0789                 0.0433                 0.2206
 IR Inten    --      8.9227                61.8494                 6.9132

                     10                     11                     12
                      A                      A                      A
 Frequencies --    274.1897               319.1122               325.3499
 Red. masses --      7.4591                 7.8472                 5.8089
 Frc consts  --      0.3304                 0.4708                 0.3623
 IR Inten    --      8.0058                 1.1561                 0.5184

                     13                     14                     15
                      A                      A                      A
 Frequencies --    347.6164               360.0312               371.2057
 Red. masses --      5.8824                11.6706                 6.0546
 Frc consts  --      0.4188                 0.8913                 0.4915
 IR Inten    --      0.0797                 2.3644                 3.4328

                     16                     17                     18
                      A                      A                      A
 Frequencies --    414.3598               417.1784               451.0692
 Red. masses --      6.6547                 4.4527                 1.3859
 Frc consts  --      0.6732                 0.4566                 0.1661
 IR Inten    --     10.6541                15.8545                89.1633

                     19                     20                     21
                      A                      A                      A
 Frequencies --    455.2226               466.3492               476.9689
 Red. masses --      9.7920                 9.7985                 9.3860
 Frc consts  --      1.1956                 1.2555                 1.2581
 IR Inten    --      5.0112                54.4134                 0.9924

                     22                     23                     24
                      A                      A                      A
 Frequencies --    487.6698               504.5724               526.7391
 Red. masses --      7.8597                 3.4094                 7.1159
 Frc consts  --      1.1013                 0.5114                 1.1632
 IR Inten    --      6.4081                 6.9748                 4.0130

                     25                     26                     27
                      A                      A                      A
 Frequencies --    556.0765               583.5451               588.7920
 Red. masses --      5.0738                 5.5998                 3.6422
 Frc consts  --      0.9244                 1.1235                 0.7439
 IR Inten    --      0.1800                19.3499                18.1466

                     28                     29                     30
                      A                      A                      A
 Frequencies --    633.3136               647.0860               707.6543
 Red. masses --      6.3119                 5.6538                 8.5079
 Frc consts  --      1.4916                 1.3948                 2.5102
 IR Inten    --     26.9643                 4.9249                 0.5277

                     31                     32                     33
                      A                      A                      A
 Frequencies --    708.9334               727.0083               740.8012
 Red. masses --      6.4214                 4.8839                 7.1967
 Frc consts  --      1.9015                 1.5209                 2.3270
 IR Inten    --      4.4458                 0.1197                27.1909

                     34                     35                     36
                      A                      A                      A
 Frequencies --    766.6391               779.6491               807.2813
 Red. masses --      3.0866                 2.1078                 9.0634
 Frc consts  --      1.0689                 0.7549                 3.4801
 IR Inten    --      1.2475                67.7551               124.2700

                     37                     38                     39
                      A                      A                      A
 Frequencies --    819.3829               854.7645               855.7679
 Red. masses --      1.8324                 1.3165                 8.7123
 Frc consts  --      0.7248                 0.5667                 3.7592
 IR Inten    --     16.4591                20.2969                12.0077

                     40                     41                     42
                      A                      A                      A
 Frequencies --    874.6032               890.4016               931.6102
 Red. masses --      1.0688                 1.0458                 6.6991
 Frc consts  --      0.4817                 0.4885                 3.4256
 IR Inten    --    100.1515                20.6082                68.2177

                     43                     44                     45
                      A                      A                      A
 Frequencies --    955.1576               986.1235              1036.8379
 Red. masses --      1.2761                 6.8478                 3.1425
 Frc consts  --      0.6859                 3.9234                 1.9904
 IR Inten    --      0.5409                32.5129                43.8329

                     46                     47                     48
                      A                      A                      A
 Frequencies --   1088.5152              1162.5288              1169.3130
 Red. masses --      2.2177                 1.5758                 1.6809
 Frc consts  --      1.5482                 1.2547                 1.3541
 IR Inten    --     53.1893                 8.8108                27.8660

                     49                     50                     51
                      A                      A                      A
 Frequencies --   1194.4206              1227.2005              1238.5463
 Red. masses --      1.7652                 2.2937                 2.8414
 Frc consts  --      1.4837                 2.0353                 2.5681
 IR Inten    --     60.9472                71.4270                63.3022

                     52                     53                     54
                      A                      A                      A
 Frequencies --   1242.3516              1257.6657              1283.6746
 Red. masses --      3.1832                 4.3219                 3.2194
 Frc consts  --      2.8947                 4.0277                 3.1256
 IR Inten    --      9.2126                41.6885                84.4157

                     55                     56                     57
                      A                      A                      A
 Frequencies --   1317.2528              1335.0468              1340.5930
 Red. masses --      3.5631                 5.6495                 4.3986
 Frc consts  --      3.6427                 5.9327                 4.6576
 IR Inten    --    288.0472                 3.4966               132.7784

                     58                     59                     60
                      A                      A                      A
 Frequencies --   1374.1666              1396.0717              1405.9982
 Red. masses --      3.6410                 3.0118                 3.3146
 Frc consts  --      4.0509                 3.4585                 3.8606
 IR Inten    --    295.0807               175.8305               123.2435

                     61                     62                     63
                      A                      A                      A
 Frequencies --   1436.9001              1488.9615              1493.5704
 Red. masses --      3.5573                 2.7715                 2.7563
 Frc consts  --      4.3274                 3.6203                 3.6227
 IR Inten    --    119.1362               135.4025               229.5769

                     64                     65                     66
                      A                      A                      A
 Frequencies --   1518.0101              1554.4042              1586.4746
 Red. masses --      2.4537                 3.2015                 5.3611
 Frc consts  --      3.3314                 4.5576                 7.9501
 IR Inten    --     87.3363               437.3798               223.4150

                     67                     68                     69
                      A                      A                      A
 Frequencies --   1596.9526              1620.9734              1633.0811
 Red. masses --      5.5814                 4.4478                 3.5526
 Frc consts  --      8.3865                 6.8857                 5.5823
 IR Inten    --    232.5064                23.1275                29.3488

                     70                     71                     72
                      A                      A                      A
 Frequencies --   1675.5730              2969.7384              3095.4185
 Red. masses --      3.6622                 1.0699                 1.0717
 Frc consts  --      6.0579                 5.5594                 6.0503
 IR Inten    --     35.6520               724.0165               126.7098

                     73                     74                     75
                      A                      A                      A
 Frequencies --   3120.9194              3168.6336              3178.7265
 Red. masses --      1.0878                 1.0884                 1.0916
 Frc consts  --      6.2426                 6.4382                 6.4985
 IR Inten    --     34.1491                13.9690                24.7276

                     76                     77                     78
                      A                      A                      A
 Frequencies --   3197.3472              3753.0355              3812.2387
 Red. masses --      1.0920                 1.0650                 1.0654
 Frc consts  --      6.5776                 8.8379                 9.1230
 IR Inten    --     11.3187                69.9058                21.0176

 - Thermochemistry -
 -------------------
 Temperature   298.150 Kelvin.  Pressure   1.00000 Atm.
 Atom     1 has atomic number  8 and mass  15.99491

 Molecular mass:   272.03209 amu.
 Principal axes and moments of inertia in atomic units:
                           1         2         3
     Eigenvalues --  2904.261556657.465829561.72732
           X            0.98793   0.15469   0.00763
           Y           -0.15416   0.98690  -0.04766
           Z           -0.01490   0.04591   0.99883
 This molecule is an asymmetric top.
 Rotational symmetry number  1.
 Warning -- assumption of classical behavior for rotation
           may cause significant error
 Rotational temperatures (Kelvin)      0.02982     0.01301     0.00906
 Rotational constants (GHZ):           0.62141     0.27109     0.18875
 Zero-point vibrational energy     508004.5 (Joules/Mol)
                                  121.41599 (Kcal/Mol)
 Warning -- explicit consideration of  27 degrees of freedom as
           vibrations may cause significant error
 Vibrational temperatures:     57.56    89.70   144.71   183.02   193.40
          (Kelvin)            271.18   276.76   331.73   391.90   394.50
                              459.13   468.11   500.14   518.00   534.08
                              596.17   600.23   648.99   654.96   670.97
                              686.25   701.65   725.97   757.86   800.07
                              839.59   847.14   911.20   931.01  1018.16
                             1020.00  1046.00  1065.85  1103.02  1121.74
                             1161.50  1178.91  1229.82  1231.26  1258.36
                             1281.09  1340.38  1374.26  1418.81  1491.78
                             1566.13  1672.62  1682.38  1718.50  1765.67
                             1781.99  1787.47  1809.50  1846.92  1895.23
                             1920.83  1928.81  1977.12  2008.64  2022.92
                             2067.38  2142.28  2148.91  2184.08  2236.44
                             2282.58  2297.66  2332.22  2349.64  2410.78
                             4272.79  4453.62  4490.31  4558.96  4573.48
                             4600.27  5399.78  5484.96

 Zero-point correction=                           0.193489 (Hartree/Particle)
 Thermal correction to Energy=                    0.208940
 Thermal correction to Enthalpy=                  0.209884
 Thermal correction to Gibbs Free Energy=         0.150628
 Sum of electronic and zero-point Energies=           -989.840476
 Sum of electronic and thermal Energies=              -989.825025
 Sum of electronic and thermal Enthalpies=            -989.824081
 Sum of electronic and thermal Free Energies=         -989.883337

                     E (Thermal)             CV                S
                      KCal/Mol        Cal/Mol-Kelvin    Cal/Mol-Kelvin
 Total                  131.112             62.425            124.716
 Electronic               0.000              0.000              1.377
 Translational            0.889              2.981             42.701
 Rotational               0.889              2.981             33.580
 Vibrational            129.334             56.464             47.057
 Vibration     1          0.594              1.981              5.259
 Vibration     2          0.597              1.972              4.382
 Vibration     3          0.604              1.949              3.443
 Vibration     4          0.611              1.926              2.988
 Vibration     5          0.613              1.919              2.882
 Vibration     6          0.633              1.856              2.243
 Vibration     7          0.634              1.850              2.205
 Vibration     8          0.652              1.794              1.875
 Vibration     9          0.675              1.724              1.581
 Vibration    10          0.677              1.721              1.570
 Vibration    11          0.705              1.637              1.315
 Vibration    12          0.709              1.625              1.283
 Vibration    13          0.725              1.580              1.177
 Vibration    14          0.735              1.555              1.122
 Vibration    15          0.743              1.531              1.075
 Vibration    16          0.778              1.439              0.911
 Vibration    17          0.780              1.433              0.902
 Vibration    18          0.810              1.359              0.793
 Vibration    19          0.814              1.349              0.780
 Vibration    20          0.824              1.325              0.748
 Vibration    21          0.834              1.301              0.718
 Vibration    22          0.844              1.277              0.690
 Vibration    23          0.860              1.240              0.647
 Vibration    24          0.882              1.191              0.595
 Vibration    25          0.912              1.126              0.532
 Vibration    26          0.940              1.067              0.479
 Vibration    27          0.946              1.056              0.469

 Optimization completed.
    -- Stationary point found.
 Normal termination of Gaussian 16 at Sun Jan  7 08:28:45 2024.
