 Q-Chem 5.4, Q-Chem, Inc., Pleasanton, CA (2021)
 Q-Chem 5.4.0 for Intel X86 EM64T Linux

User input:
--------------------------------------------------------------
$molecule
-1 2
O                  4.8728980000     -0.8947290000      0.0190890000
C                  3.6514870000     -0.2648620000      0.0585130000
C                  3.5770730000      1.1310370000      0.1256070000
C                  2.3393530000      1.7539740000      0.1649160000
C                  1.1487720000      1.0095120000      0.1386880000
C                 -0.1462570000      1.7167670000      0.1824440000
O                 -0.1747300000      2.9582790000      0.2417220000
C                 -1.3609100000      0.8804300000      0.1517490000
C                 -2.6594320000      1.4492670000      0.1886510000
O                 -2.8166500000      2.8139140000      0.2549790000
C                 -3.7882940000      0.6391620000      0.1584140000
C                 -3.6864980000     -0.7553580000      0.0910310000
C                 -2.4426360000     -1.3594450000      0.0528740000
O                 -2.3815940000     -2.7118320000     -0.0121360000
C                 -1.2571140000     -0.5573600000      0.0823170000
C                  0.0238900000     -1.2077970000      0.0415740000
O                  0.1247440000     -2.5125000000     -0.0216090000
C                  1.2177030000     -0.4067440000      0.0706340000
C                  2.4909330000     -1.0291860000      0.0310790000
O                  2.6421060000     -2.3817180000     -0.0344220000
H                  4.6832750000     -1.8429090000     -0.0244030000
H                  4.4988760000      1.7020960000      0.1456740000
H                  2.2568800000      2.8322680000      0.2169220000
H                 -3.7638170000      2.9875430000      0.2702770000
H                 -4.7719330000      1.1033990000      0.1879880000
H                 -4.5716800000     -1.3804170000      0.0678040000
H                 -1.4068290000     -2.9341390000     -0.0297380000
H                  1.7003840000     -2.7386520000     -0.0437830000
$end
$rem
MAX_SCF_CYCLES=200
BASIS  =  6-311++G(d,p)
GUI  =  2
JOB_TYPE  =  SP
METHOD  =  B3LYP
SOLVENT_METHOD = PCM
$end
$pcm
theory = CPCM
$end
$solvent
dielectric 37.219
opticaldielectric 1.43
$end

--------------------------------------------------------------

             Standard Nuclear Orientation (Angstroms)
    I     Atom           X                Y                Z
 ----------------------------------------------------------------
    1      O       4.8728980000    -0.8947290000     0.0190890000
    2      C       3.6514870000    -0.2648620000     0.0585130000
    3      C       3.5770730000     1.1310370000     0.1256070000
    4      C       2.3393530000     1.7539740000     0.1649160000
    5      C       1.1487720000     1.0095120000     0.1386880000
    6      C      -0.1462570000     1.7167670000     0.1824440000
    7      O      -0.1747300000     2.9582790000     0.2417220000
    8      C      -1.3609100000     0.8804300000     0.1517490000
    9      C      -2.6594320000     1.4492670000     0.1886510000
   10      O      -2.8166500000     2.8139140000     0.2549790000
   11      C      -3.7882940000     0.6391620000     0.1584140000
   12      C      -3.6864980000    -0.7553580000     0.0910310000
   13      C      -2.4426360000    -1.3594450000     0.0528740000
   14      O      -2.3815940000    -2.7118320000    -0.0121360000
   15      C      -1.2571140000    -0.5573600000     0.0823170000
   16      C       0.0238900000    -1.2077970000     0.0415740000
   17      O       0.1247440000    -2.5125000000    -0.0216090000
   18      C       1.2177030000    -0.4067440000     0.0706340000
   19      C       2.4909330000    -1.0291860000     0.0310790000
   20      O       2.6421060000    -2.3817180000    -0.0344220000
   21      H       4.6832750000    -1.8429090000    -0.0244030000
   22      H       4.4988760000     1.7020960000     0.1456740000
   23      H       2.2568800000     2.8322680000     0.2169220000
   24      H      -3.7638170000     2.9875430000     0.2702770000
   25      H      -4.7719330000     1.1033990000     0.1879880000
   26      H      -4.5716800000    -1.3804170000     0.0678040000
   27      H      -1.4068290000    -2.9341390000    -0.0297380000
   28      H       1.7003840000    -2.7386520000    -0.0437830000
 ----------------------------------------------------------------

    8    -990.1162415844      8.87e-06  Convergence criterion met
 Total energy in the final basis set =     -990.1162415844

                    Orbital Energies (a.u.)
 --------------------------------------------------------------

 Alpha MOs
 -- Occupied --
-19.1557 -19.1493 -19.1423 -19.1329 -19.1031 -19.0784 -10.2385 -10.2372
-10.2368 -10.2361 -10.2338 -10.2332 -10.1847 -10.1831 -10.1830 -10.1761
-10.1748 -10.1745 -10.1710 -10.1707  -1.0772  -1.0614  -1.0577  -1.0471
 -1.0118  -1.0058  -0.8654  -0.8488  -0.7921  -0.7526  -0.7456  -0.7384
 -0.6781  -0.6524  -0.6471  -0.6051  -0.5917  -0.5611  -0.5547  -0.5354
 -0.5251  -0.4993  -0.4914  -0.4815  -0.4655  -0.4517  -0.4499  -0.4321
 -0.4305  -0.4300  -0.4198  -0.4100  -0.4062  -0.4012  -0.3933  -0.3887
 -0.3800  -0.3775  -0.3634  -0.3631  -0.3611  -0.3535  -0.3269  -0.3130
 -0.2746  -0.2702  -0.2497  -0.2393  -0.2272  -0.2171  -0.1452

 Beta MOs
 -- Occupied --
-19.1555 -19.1490 -19.1419 -19.1323 -19.0987 -19.0745 -10.2368 -10.2361
-10.2354 -10.2351 -10.2330 -10.2327 -10.1849 -10.1833 -10.1822 -10.1757
-10.1741 -10.1731 -10.1708 -10.1700  -1.0762  -1.0608  -1.0556  -1.0462
 -1.0049  -0.9985  -0.8630  -0.8473  -0.7883  -0.7502  -0.7433  -0.7363
 -0.6715  -0.6508  -0.6450  -0.6037  -0.5896  -0.5597  -0.5539  -0.5339
 -0.5239  -0.4978  -0.4888  -0.4805  -0.4639  -0.4508  -0.4428  -0.4308
 -0.4280  -0.4254  -0.4177  -0.4077  -0.4003  -0.3983  -0.3880  -0.3845
 -0.3766  -0.3718  -0.3623  -0.3599  -0.3521  -0.3512  -0.3204  -0.3060
 -0.2670  -0.2597  -0.2453  -0.2357  -0.2172  -0.2092

          Ground-State Mulliken Net Atomic Charges

     Atom                 Charge (a.u.)    Spin (a.u.)
  --------------------------------------------------------
      1 O                    -0.321252       0.005297
      2 C                    -0.335439       0.030894
      3 C                    -0.032755       0.038283
      4 C                    -0.042275       0.024564
      5 C                     0.245320       0.044011
      6 C                    -0.415074       0.048911
      7 O                    -0.450795       0.152658
      8 C                     0.095590       0.050676
      9 C                    -0.231553       0.015668
     10 O                    -0.275088       0.006104
     11 C                    -0.204234       0.105243
     12 C                    -0.178628       0.039262
     13 C                    -0.197515       0.076034
     14 O                    -0.426449       0.018891
     15 C                     0.613581      -0.046179
     16 C                    -0.478096       0.207092
     17 O                    -0.594036       0.155582
     18 C                     0.485481      -0.040287
     19 C                    -0.061930       0.076674
     20 O                    -0.496701       0.014452
     21 H                     0.321754      -0.000188
     22 H                     0.228794      -0.002992
     23 H                     0.173048      -0.001853
     24 H                     0.312042      -0.000606
     25 H                     0.198410      -0.008716
     26 H                     0.211590      -0.004463
     27 H                     0.405012      -0.002602
     28 H                     0.451201      -0.002412
  --------------------------------------------------------
  Sum of atomic charges =    -1.000000

                    Cartesian Multipole Moments
 -----------------------------------------------------------------
    Charge (ESU x 10^10)
                -4.8032
    Dipole Moment (Debye)
         X      -3.0852      Y      -0.6458      Z      -0.4785
       Tot       3.1882
    Quadrupole Moments (Debye-Ang)
        XX    -122.8272     XY      -8.2177     YY    -152.0707
        XZ      -0.6765     YZ      -1.4989     ZZ    -120.8539

 Total job time:  70.73s(wall), 451.10s(cpu)
        *  Thank you very much for using Q-Chem.  Have a nice day.  *
