 Gaussian 16, Revision A.03,
 Gaussian 16:  ES64L-G16RevA.03 25-Dec-2016

 ----------------------------------------------------------------
 #P UB3LYP/6-311++G(d,p) SCRF=(PCM,Solvent=n,n-DiMethylFormamide)
 ----------------------------------------------------------------

 ------------------
 Radical PCM in DMF
 ------------------
 Symbolic Z-matrix:
 Charge = -1 Multiplicity = 2

                         Standard orientation:
 ---------------------------------------------------------------------
 Center     Atomic      Atomic             Coordinates (Angstroms)
 Number     Number       Type             X           Y           Z
 ---------------------------------------------------------------------
      1          8           0        4.867591    0.138771    0.000212
      2          6           0        3.565233   -0.301680    0.000161
      3          6           0        3.281799   -1.672168    0.000229
      4          6           0        1.964357   -2.103321    0.000087
      5          6           0        0.899097   -1.188108   -0.000113
      6          6           0       -0.487685   -1.694131   -0.000243
      7          8           0       -0.702484   -2.918687   -0.000075
      8          6           0       -1.562930   -0.684363   -0.000176
      9          6           0       -2.932352   -1.052846   -0.000028
     10          8           0       -3.292962   -2.380001   -0.000053
     11          6           0       -3.926714   -0.081888    0.000177
     12          6           0       -3.616411    1.283140    0.000254
     13          6           0       -2.295734    1.694701    0.000098
     14          8           0       -2.032062    3.024130    0.000123
     15          6           0       -1.244145    0.723192   -0.000129
     16          6           0        0.120225    1.175070   -0.000195
     17          8           0        0.416095    2.451344   -0.000026
     18          6           0        1.180171    0.203352   -0.000151
     19          6           0        2.532649    0.628695   -0.000010
     20          8           0        2.885457    1.944755   -0.000188
     21          1           0        4.822647    1.105660   -0.000083
     22          1           0        4.107375   -2.375486    0.000370
     23          1           0        1.720703   -3.158241    0.000153
     24          1           0       -4.255567   -2.409948    0.000162
     25          1           0       -4.969073   -0.394016    0.000259
     26          1           0       -4.397655    2.034434    0.000418
     27          1           0       -1.034854    3.098112   -0.000321
     28          1           0        2.007989    2.439104   -0.000667
 ---------------------------------------------------------------------

 SCF Done:  E(UB3LYP) =  -990.109319421     A.U. after   19 cycles

 The electronic state is 2-A.
 Alpha  occ. eigenvalues --  -19.15693 -19.15130 -19.14263 -19.13210 -19.10213
 Alpha  occ. eigenvalues --  -19.07776 -10.23784 -10.23751 -10.23616 -10.23602
 Alpha  occ. eigenvalues --  -10.23381 -10.23340 -10.18463 -10.18326 -10.18297
 Alpha  occ. eigenvalues --  -10.17713 -10.17642 -10.17480 -10.17179 -10.17136
 Alpha  occ. eigenvalues --   -1.07783  -1.06333  -1.05728  -1.04734  -1.01066
 Alpha  occ. eigenvalues --   -1.00521  -0.86545  -0.84924  -0.79258  -0.75289
 Alpha  occ. eigenvalues --   -0.74584  -0.73883  -0.67841  -0.65282  -0.64780
 Alpha  occ. eigenvalues --   -0.60590  -0.59231  -0.56200  -0.55556  -0.53558
 Alpha  occ. eigenvalues --   -0.52592  -0.49948  -0.49160  -0.48174  -0.46612
 Alpha  occ. eigenvalues --   -0.45257  -0.44975  -0.43325  -0.43019  -0.43004
 Alpha  occ. eigenvalues --   -0.41910  -0.40985  -0.40595  -0.40162  -0.39294
 Alpha  occ. eigenvalues --   -0.38956  -0.37972  -0.37791  -0.36344  -0.36324
 Alpha  occ. eigenvalues --   -0.36195  -0.35323  -0.32671  -0.31307  -0.27472
 Alpha  occ. eigenvalues --   -0.26969  -0.24990  -0.23799  -0.22704  -0.21707
 Alpha  occ. eigenvalues --   -0.14508
 Alpha virt. eigenvalues --   -0.04646  -0.02431  -0.00409   0.00019   0.00957
 Alpha virt. eigenvalues --    0.01091   0.01571   0.02090   0.03792   0.04279
 Alpha virt. eigenvalues --    0.04419   0.04472   0.05213   0.05990   0.06043

  Beta  occ. eigenvalues --  -19.15678 -19.15113 -19.14215 -19.13147 -19.09750
  Beta  occ. eigenvalues --  -19.07347 -10.23764 -10.23534 -10.23518 -10.23427
  Beta  occ. eigenvalues --  -10.23304 -10.23297 -10.18502 -10.18331 -10.18226
  Beta  occ. eigenvalues --  -10.17657 -10.17489 -10.17398 -10.17141 -10.17120
  Beta  occ. eigenvalues --   -1.07695  -1.06290  -1.05510  -1.04642  -1.00337
  Beta  occ. eigenvalues --   -0.99755  -0.86303  -0.84770  -0.78871  -0.75058
  Beta  occ. eigenvalues --   -0.74351  -0.73678  -0.67169  -0.65130  -0.64578
  Beta  occ. eigenvalues --   -0.60448  -0.59025  -0.56065  -0.55481  -0.53411
  Beta  occ. eigenvalues --   -0.52475  -0.49797  -0.48891  -0.48075  -0.46453
  Beta  occ. eigenvalues --   -0.45162  -0.44272  -0.43194  -0.42759  -0.42560
  Beta  occ. eigenvalues --   -0.41722  -0.40713  -0.40062  -0.39825  -0.38883
  Beta  occ. eigenvalues --   -0.38427  -0.37704  -0.37152  -0.36261  -0.36072
  Beta  occ. eigenvalues --   -0.35174  -0.35034  -0.32025  -0.30586  -0.26632
  Beta  occ. eigenvalues --   -0.25935  -0.24554  -0.23401  -0.21694  -0.20945
  Beta virt. eigenvalues --   -0.09092  -0.03425  -0.01451  -0.00388   0.00031
  Beta virt. eigenvalues --    0.00967   0.01533   0.01587   0.02105   0.03807
  Beta virt. eigenvalues --    0.04298   0.04490   0.04628   0.06057   0.06085

 Mulliken charges and spin densities:
               1          2
     1  O   -0.308199   0.004504
     2  C   -0.344211   0.023786
     3  C   -0.011701   0.046368
     4  C   -0.022629   0.014251
     5  C    0.251488   0.053647
     6  C   -0.446077   0.034907
     7  O   -0.428410   0.161215
     8  C    0.108975   0.060959
     9  C   -0.211762   0.006280
    10  O   -0.251155   0.005071
    11  C   -0.210077   0.111563
    12  C   -0.161507   0.034147
    13  C   -0.206264   0.079881
    14  O   -0.414606   0.018945
    15  C    0.613869  -0.052175
    16  C   -0.491892   0.211085
    17  O   -0.581435   0.159381
    18  C    0.487640  -0.046840
    19  C   -0.065268   0.082208
    20  O   -0.488573   0.014798
    21  H    0.307711  -0.000148
    22  H    0.211730  -0.003673
    23  H    0.165973  -0.001006
    24  H    0.291371  -0.000606
    25  H    0.170786  -0.009402
    26  H    0.195533  -0.003881
    27  H    0.396832  -0.002700
    28  H    0.441859  -0.002565
 Sum of Mulliken charges =  -1.00000   1.00000

 Dipole moment (field-independent basis, Debye):
    X=             -2.3787    Y=              1.0508    Z=             -0.0014  Tot=              2.6004
 Quadrupole moment (field-independent basis, Debye-Ang):
   XX=           -123.2384   YY=           -153.4346   ZZ=           -120.7058
   XY=              3.3731   XZ=             -0.0053   YZ=             -0.0071

 Normal termination of Gaussian 16 at Tue Jan 16 05:53:41 2024.
