 Q-Chem 5.4, Q-Chem, Inc., Pleasanton, CA (2021)
 Q-Chem 5.4.0 for Intel X86 EM64T Linux

User input:
--------------------------------------------------------------
$molecule
-2 1
C                 -3.1564300000     -3.2101950000     -0.9354310000
C                 -2.1401340000     -2.1708650000     -0.9729510000
C                 -2.4889360000     -0.8292320000     -0.7311020000
C                 -3.8066580000     -0.3631610000     -0.4247160000
C                 -4.7957540000     -1.4125850000     -0.3901270000
C                 -4.4842130000     -2.7350020000     -0.6335800000
O                 -2.9241790000     -4.4575380000     -1.1309870000
O                 -4.0972020000      0.8742870000     -0.2147860000
C                 -0.7160980000     -2.4917090000     -1.1973390000
C                 -0.0820070000     -3.4721540000     -2.0676890000
C                  0.3308540000     -1.7961350000     -0.6257490000
C                  1.3294160000     -3.2784220000     -1.9887170000
N                  1.5539110000     -2.2553440000     -1.1000520000
C                 -0.5643760000     -4.4781000000     -2.9222710000
C                  0.3386260000     -5.2310120000     -3.6650480000
C                  1.7301060000     -5.0187410000     -3.5681140000
C                  2.2427000000     -4.0421450000     -2.7235990000
H                 -1.7222390000     -0.0615620000     -0.8120900000
H                 -5.8215490000     -1.1165910000     -0.1703940000
H                 -5.2582200000     -3.5006780000     -0.5955180000
H                  0.2938130000     -0.9891670000      0.0888570000
H                  2.4599030000     -1.9009310000     -0.8339520000
H                 -1.6294410000     -4.6750900000     -2.9306060000
H                 -0.0318290000     -6.0146800000     -4.3207530000
H                  2.4129640000     -5.6277680000     -4.1546440000
H                  3.3140100000     -3.8716020000     -2.6423940000
$end
$rem
MAX_SCF_CYCLES=200
BASIS  =  6-311++G(d,p)
GUI  =  2
JOB_TYPE  =  SP
METHOD  =  B3LYP
SOLVENT_METHOD = PCM
$end
$pcm
theory = CPCM
$end
$solvent
dielectric 37.219
opticaldielectric 1.43
$end

--------------------------------------------------------------

             Standard Nuclear Orientation (Angstroms)
    I     Atom           X                Y                Z
 ----------------------------------------------------------------
    1      C      -3.1564300000    -3.2101950000    -0.9354310000
    2      C      -2.1401340000    -2.1708650000    -0.9729510000
    3      C      -2.4889360000    -0.8292320000    -0.7311020000
    4      C      -3.8066580000    -0.3631610000    -0.4247160000
    5      C      -4.7957540000    -1.4125850000    -0.3901270000
    6      C      -4.4842130000    -2.7350020000    -0.6335800000
    7      O      -2.9241790000    -4.4575380000    -1.1309870000
    8      O      -4.0972020000     0.8742870000    -0.2147860000
    9      C      -0.7160980000    -2.4917090000    -1.1973390000
   10      C      -0.0820070000    -3.4721540000    -2.0676890000
   11      C       0.3308540000    -1.7961350000    -0.6257490000
   12      C       1.3294160000    -3.2784220000    -1.9887170000
   13      N       1.5539110000    -2.2553440000    -1.1000520000
   14      C      -0.5643760000    -4.4781000000    -2.9222710000
   15      C       0.3386260000    -5.2310120000    -3.6650480000
   16      C       1.7301060000    -5.0187410000    -3.5681140000
   17      C       2.2427000000    -4.0421450000    -2.7235990000
   18      H      -1.7222390000    -0.0615620000    -0.8120900000
   19      H      -5.8215490000    -1.1165910000    -0.1703940000
   20      H      -5.2582200000    -3.5006780000    -0.5955180000
   21      H       0.2938130000    -0.9891670000     0.0888570000
   22      H       2.4599030000    -1.9009310000    -0.8339520000
   23      H      -1.6294410000    -4.6750900000    -2.9306060000
   24      H      -0.0318290000    -6.0146800000    -4.3207530000
   25      H       2.4129640000    -5.6277680000    -4.1546440000
   26      H       3.3140100000    -3.8716020000    -2.6423940000
 ----------------------------------------------------------------

    9    -744.5514828669      6.31e-06  Convergence criterion met
 Total energy in the final basis set =     -744.5514828669

                    Orbital Energies (a.u.)
 --------------------------------------------------------------

 Alpha MOs
 -- Occupied --
-19.0135 -19.0110 -14.3414 -10.1944 -10.1835 -10.1677 -10.1652 -10.1651
-10.1619 -10.1585 -10.1555 -10.1541 -10.1536 -10.1326 -10.1202 -10.1193
-10.1154  -0.9662  -0.9325  -0.9287  -0.8311  -0.7903  -0.7626  -0.7254
 -0.7182  -0.6865  -0.6391  -0.6123  -0.5873  -0.5784  -0.5418  -0.5307
 -0.5057  -0.4681  -0.4599  -0.4337  -0.4276  -0.4193  -0.4158  -0.4112
 -0.4030  -0.3819  -0.3701  -0.3558  -0.3550  -0.3459  -0.3323  -0.3297
 -0.3228  -0.3146  -0.3090  -0.2760  -0.2302  -0.2231  -0.2188  -0.1948
 -0.1918  -0.1816  -0.1127

          Ground-State Mulliken Net Atomic Charges

     Atom                 Charge (a.u.)
  ----------------------------------------
      1 C                    -1.102874
      2 C                     1.039177
      3 C                    -0.626169
      4 C                    -0.340233
      5 C                    -0.151304
      6 C                     0.007668
      7 O                    -0.703191
      8 O                    -0.769797
      9 C                     0.454155
     10 C                     1.142253
     11 C                    -0.274820
     12 C                     0.055920
     13 N                    -0.141101
     14 C                    -0.847370
     15 C                    -0.608201
     16 C                    -0.299339
     17 C                    -0.537646
     18 H                     0.119698
     19 H                     0.139012
     20 H                     0.138292
     21 H                     0.209428
     22 H                     0.352802
     23 H                     0.177139
     24 H                     0.189763
     25 H                     0.186338
     26 H                     0.190400
  ----------------------------------------
  Sum of atomic charges =    -2.000000

                    Cartesian Multipole Moments
 -----------------------------------------------------------------
    Charge (ESU x 10^10)
                -9.6064
    Dipole Moment (Debye)
         X      33.9475      Y      18.9158      Z       8.4546
       Tot      39.7708
    Quadrupole Moments (Debye-Ang)
        XX    -215.5396     XY     -43.1102     YY    -206.7259
        XZ     -18.7989     YZ     -26.1245     ZZ    -122.4290

 Total job time:  49.47s(wall), 328.45s(cpu)
        *  Thank you very much for using Q-Chem.  Have a nice day.  *
