 Q-Chem 5.4, Q-Chem, Inc., Pleasanton, CA (2021)
 Q-Chem 5.4.0 for Intel X86 EM64T Linux

User input:
--------------------------------------------------------------
$molecule
-1 2
C                  0.6058130000      1.2909440000     -0.8955340000
C                 -0.7365140000      0.8229670000     -0.5801620000
C                 -1.0284990000     -0.4817050000     -0.2406630000
C                  0.0749420000     -1.4392410000     -0.1010240000
C                  1.4513790000     -0.9957280000     -0.3503790000
C                  1.6731610000      0.3231710000     -0.6865150000
O                  0.8278760000      2.4466460000     -1.3137430000
O                 -0.1569850000     -2.6310820000      0.2328590000
S                  3.3423710000      0.9523880000     -1.0311500000
C                  3.4983670000      2.5427040000     -0.1658750000
C                  3.4294090000      3.7292340000     -0.8873510000
C                  3.7856030000      2.5347200000      1.1955820000
C                  3.9941320000      3.7470170000      1.8520630000
C                  3.6579340000      4.9337060000     -0.2272960000
C                  3.9346930000      4.9443170000      1.1404090000
O                  3.5062930000      1.2105780000     -2.4693000000
O                  4.3190890000      0.0713910000     -0.3606940000
H                  3.1888990000      3.6914880000     -1.9408500000
H                  3.8596140000      1.5934410000      1.7257860000
H                  3.6085780000      5.8660210000     -0.7792760000
H                  4.2126810000      3.7533820000      2.9143990000
H                  4.1019200000      5.8864910000      1.6518670000
S                 -2.0381240000      2.0737870000     -0.7877320000
C                 -1.4847410000      3.5569240000      0.1049000000
C                 -0.9653520000      4.6360230000     -0.6016640000
C                 -1.6824750000      3.6159090000      1.4812520000
C                 -1.3389390000      4.7801760000      2.1670440000
C                 -0.6414450000      5.8008220000      0.0893530000
C                 -0.8231280000      5.8725070000      1.4709550000
O                 -2.1849250000      2.4338640000     -2.2053170000
O                 -3.2361540000      1.6262370000     -0.0502500000
H                 -0.8133490000      4.5431330000     -1.6679700000
H                 -2.1137520000      2.7690180000      2.0001980000
H                 -1.4841990000      4.8355890000      3.2404630000
H                 -0.2360930000      6.6496870000     -0.4503750000
H                 -0.5601160000      6.7793800000      2.0054440000
C                 -2.4059980000     -1.0479450000     -0.0080680000
C                  2.5064590000     -2.0649280000     -0.2260410000
H                 -2.8425410000     -0.6577820000      0.9145480000
H                 -2.3204560000     -2.1303630000      0.0681720000
H                 -3.0954060000     -0.7779440000     -0.8082790000
H                  2.0066250000     -3.0271670000     -0.1308990000
H                  3.1335330000     -1.8993180000      0.6534200000
H                  3.1801640000     -2.0712080000     -1.0831890000
$end
$rem
MAX_SCF_CYCLES=200
BASIS  =  6-311++G(d,p)
GUI  =  2
JOB_TYPE  =  SP
METHOD  =  B3LYP
SOLVENT_METHOD = COSMO
$end
$solvent
dielectric 37.219
opticaldielectric 1.43
$end

--------------------------------------------------------------

             Standard Nuclear Orientation (Angstroms)
    I     Atom           X                Y                Z
 ----------------------------------------------------------------
    1      C      -0.0160009128    -0.7276661274    -0.5811969359
    2      C      -1.2716099956    -1.3649869055    -0.2102902053
    3      C      -1.3511555398    -2.6221350372     0.3517906787
    4      C      -0.1076637068    -3.3296336012     0.6790980654
    5      C       1.1825220850    -2.6985429263     0.3780902667
    6      C       1.1903849488    -1.4395017084    -0.1844242889
    7      O       0.0241409333     0.3591341756    -1.1952910576
    8      O      -0.1472291944    -4.4677732294     1.2165231477
    9      S       2.7413407117    -0.5929610547    -0.6073361990
   10      C       2.5798122059     1.1250046774    -0.0375618203
   11      C       2.3429570594     2.1375527706    -0.9604823281
   12      C       2.7980476233     1.4036234719     1.3081269612
   13      C       2.7632398019     2.7286083328     1.7409308398
   14      C       2.3289959717     3.4591267744    -0.5224226083
   15      C       2.5334260659     3.7549790943     0.8259114919
   16      O       2.9277379332    -0.5622914392    -2.0654594349
   17      O       3.8213546291    -1.1570692185     0.2263285605
   18      H       2.1636792238     1.8761620686    -1.9942445455
   19      H       3.0069778799     0.5965098163     1.9991521129
   20      H       2.1469167934     4.2581720266    -1.2328471660
   21      H       2.9258737977     2.9572234539     2.7886174654
   22      H       2.5113929271     4.7858656684     1.1635998301
   23      S      -2.7571961445    -0.4203018099    -0.6602106802
   24      C      -2.5106247264     1.2691521254    -0.0375808309
   25      C      -2.1508412160     2.2847163987    -0.9165787284
   26      C      -2.7817987086     1.5290719436     1.3025046710
   27      C      -2.6769308771     2.8365753636     1.7750328102
   28      C      -2.0656310380     3.5901513497    -0.4393410897
   29      C      -2.3234472238     3.8661337248     0.9039146868
   30      O      -2.8950316818    -0.3425684723    -2.1216182567
   31      O      -3.8947229788    -0.9392376745     0.1247701181
   32      H      -1.9338148030     2.0374170008    -1.9463770065
   33      H      -3.0857171720     0.7216927755     1.9569522350
   34      H      -2.8812273437     3.0499945524     2.8186393555
   35      H      -1.7865567081     4.3912452929    -1.1150291529
   36      H      -2.2462806196     4.8838175410     1.2722045276
   37      C      -2.6204915173    -3.3752087145     0.6582182874
   38      C       2.3983529109    -3.5254569840     0.7094675870
   39      H      -3.1616226717    -2.9152966173     1.4886851305
   40      H      -2.3540395331    -4.3954763181     0.9280627891
   41      H      -3.3065677778    -3.3744195262    -0.1890244860
   42      H       2.0672660789    -4.5300180363     0.9664277448
   43      H       2.9444274097    -3.1016031680     1.5557835495
   44      H       3.1037230563    -3.5600179677    -0.1211219962
 ----------------------------------------------------------------

    9   -2019.8005155244      6.81e-06  Convergence criterion met
 Total energy in the final basis set =    -2019.8005155244
    4   -2019.8875040311      7.95e-06  Convergence criterion met
 Total energy in the final basis set =    -2019.8875040311

                    Orbital Energies (a.u.)
 --------------------------------------------------------------

 Alpha MOs
 -- Occupied --
-89.0568 -89.0568 -19.1248 -19.1247 -19.1194 -19.1193 -19.0994 -19.0951
-10.2565 -10.2420 -10.2112 -10.2111 -10.2105 -10.2104 -10.2101 -10.2100
-10.1910 -10.1910 -10.1881 -10.1881 -10.1848 -10.1847 -10.1833 -10.1833
-10.1822 -10.1822 -10.1590 -10.1588  -8.1204  -8.1204  -6.0833  -6.0832
 -6.0822  -6.0821  -6.0813  -6.0813  -1.1157  -1.1153  -1.0306  -1.0256
 -1.0113  -1.0110  -0.8737  -0.8736  -0.8587  -0.8134  -0.7785  -0.7774
 -0.7601  -0.7599  -0.7424  -0.7292  -0.6972  -0.6609  -0.6584  -0.6196
 -0.6195  -0.6127  -0.6092  -0.5733  -0.5730  -0.5408  -0.5395  -0.5220
 -0.5103  -0.4893  -0.4848  -0.4814  -0.4770  -0.4687  -0.4568  -0.4561
 -0.4548  -0.4510  -0.4490  -0.4466  -0.4351  -0.4336  -0.4311  -0.4161
 -0.4137  -0.4103  -0.3988  -0.3853  -0.3851  -0.3822  -0.3769  -0.3760
 -0.3747  -0.3700  -0.3572  -0.3571  -0.3483  -0.3480  -0.3355  -0.3342
 -0.3188  -0.3170  -0.3050  -0.3019  -0.2988  -0.2818  -0.2737  -0.2721
 -0.2672  -0.2644  -0.2628  -0.2475  -0.1838

 Beta MOs
 -- Occupied --
-89.0568 -89.0568 -19.1248 -19.1246 -19.1193 -19.1193 -19.0912 -19.0896
-10.2558 -10.2406 -10.2103 -10.2103 -10.2101 -10.2100 -10.2088 -10.2087
-10.1910 -10.1910 -10.1881 -10.1881 -10.1848 -10.1847 -10.1833 -10.1833
-10.1822 -10.1822 -10.1591 -10.1590  -8.1204  -8.1204  -6.0833  -6.0832
 -6.0822  -6.0821  -6.0813  -6.0813  -1.1155  -1.1152  -1.0216  -1.0118
 -1.0112  -1.0102  -0.8737  -0.8736  -0.8528  -0.8109  -0.7780  -0.7770
 -0.7601  -0.7599  -0.7378  -0.7279  -0.6954  -0.6579  -0.6557  -0.6196
 -0.6195  -0.6115  -0.6077  -0.5718  -0.5709  -0.5402  -0.5379  -0.5203
 -0.5085  -0.4888  -0.4842  -0.4811  -0.4769  -0.4683  -0.4559  -0.4546
 -0.4542  -0.4510  -0.4469  -0.4359  -0.4336  -0.4335  -0.4257  -0.4128
 -0.4115  -0.3990  -0.3977  -0.3849  -0.3824  -0.3768  -0.3759  -0.3735
 -0.3689  -0.3587  -0.3571  -0.3568  -0.3476  -0.3471  -0.3352  -0.3328
 -0.3185  -0.3160  -0.3044  -0.3006  -0.2790  -0.2723  -0.2718  -0.2698
 -0.2647  -0.2615  -0.2576  -0.2433

          Ground-State Mulliken Net Atomic Charges

     Atom                 Charge (a.u.)    Spin (a.u.)
  --------------------------------------------------------
      1 C                    -0.311569       0.024558
      2 C                    -0.176822       0.079246
      3 C                     0.740577       0.130270
      4 C                    -1.585349       0.047239
      5 C                     0.759457       0.129344
      6 C                    -0.183790       0.079857
      7 O                    -0.239810       0.210305
      8 O                    -0.408869       0.297926
      9 S                     0.635495      -0.011787
     10 C                    -0.028713      -0.005771
     11 C                    -0.160171       0.014761
     12 C                     0.161507      -0.003613
     13 C                    -0.537356       0.002339
     14 C                    -0.349132      -0.002059
     15 C                    -0.387858      -0.000336
     16 O                    -0.187961       0.002376
     17 O                    -0.192655      -0.001023
     18 H                     0.260206       0.000409
     19 H                     0.266010       0.000034
     20 H                     0.237172      -0.000061
     21 H                     0.235492       0.000043
     22 H                     0.211757      -0.000028
     23 S                     0.612813      -0.012907
     24 C                    -0.014198      -0.006944
     25 C                    -0.159507       0.015866
     26 C                     0.171939      -0.002720
     27 C                    -0.545027       0.002219
     28 C                    -0.307828      -0.001663
     29 C                    -0.416908      -0.000441
     30 O                    -0.195293       0.002414
     31 O                    -0.192072      -0.000980
     32 H                     0.260935       0.000487
     33 H                     0.266996       0.000146
     34 H                     0.235284       0.000011
     35 H                     0.233974      -0.000075
     36 H                     0.212584      -0.000027
     37 C                    -0.557076      -0.003699
     38 C                    -0.558922      -0.003997
     39 H                     0.210983       0.006810
     40 H                     0.182730      -0.002034
     41 H                     0.202020       0.004367
     42 H                     0.182213      -0.001960
     43 H                     0.212680       0.006816
     44 H                     0.204059       0.004283
  --------------------------------------------------------
  Sum of atomic charges =    -1.000000

                    Cartesian Multipole Moments
 -----------------------------------------------------------------
    Charge (ESU x 10^10)
                -4.8032
    Dipole Moment (Debye)
         X       0.3103      Y      13.4727      Z       6.8909
       Tot      15.1358
    Quadrupole Moments (Debye-Ang)
        XX    -240.1766     XY       1.7075     YY    -190.6785
        XZ      -0.7818     YZ      10.9229     ZZ    -190.5390

 Total job time:  304.16s(wall), 2225.24s(cpu)
        *  Thank you very much for using Q-Chem.  Have a nice day.  *
