 Gaussian 16, Revision A.03,
 Gaussian 16:  ES64L-G16RevA.03 25-Dec-2016

 ----------------------------------------------------------------------
 #P UB3LYP/6-311++G(d,p) nosym opt freq SCRF=(PCM,Solvent=n,n-DiMethylF
 ormamide)
 ----------------------------------------------------------------------

 -------
 Reduced
 -------
 Symbolic Z-matrix:
 Charge = -2 Multiplicity = 1

 SCF Done:  E(UB3LYP) =  -744.569038753     A.U. after   17 cycles
 SCF Done:  E(UB3LYP) =  -744.569734620     A.U. after   14 cycles
 SCF Done:  E(UB3LYP) =  -744.570108811     A.U. after   14 cycles
 SCF Done:  E(UB3LYP) =  -744.570213419     A.U. after   12 cycles
 SCF Done:  E(UB3LYP) =  -744.570248617     A.U. after   12 cycles
 SCF Done:  E(UB3LYP) =  -744.570267458     A.U. after   11 cycles
 SCF Done:  E(UB3LYP) =  -744.570272257     A.U. after   11 cycles
 SCF Done:  E(UB3LYP) =  -744.570274626     A.U. after   10 cycles
 SCF Done:  E(UB3LYP) =  -744.570275015     A.U. after   10 cycles
 SCF Done:  E(UB3LYP) =  -744.570275112     A.U. after    9 cycles
 Optimization completed.
    -- Stationary point found.
 Normal termination of Gaussian 16 at Sat Feb 10 18:19:26 2024.

 ----------------------------------------------------------------------
 #P Geom=AllCheck Guess=TCheck SCRF=Check GenChk UB3LYP/6-311++G(d,p) F
 req
 ----------------------------------------------------------------------

 Structure from the checkpoint file:  "150-an.chk"
 -------
 Reduced
 -------
 Charge = -2 Multiplicity = 1

                          Input orientation:
 ---------------------------------------------------------------------
 Center     Atomic      Atomic             Coordinates (Angstroms)
 Number     Number       Type             X           Y           Z
 ---------------------------------------------------------------------
      1          7           0       -2.916701    1.888811    0.079893
      2          6           0       -2.528233    0.549508    0.062477
      3          6           0       -3.490866   -0.451190    0.035107
      4          6           0       -3.116850   -1.812738   -0.075417
      5          6           0       -1.792418   -2.164419   -0.159093
      6          6           0       -0.755522   -1.182338   -0.111740
      7          6           0        0.610408   -1.626038   -0.181813
      8          8           0        0.926715   -2.887908   -0.294858
      9          6           0        1.607509   -0.596630   -0.114529
     10          6           0        2.989889   -0.934717   -0.199304
     11          6           0        3.984817    0.012140   -0.125358
     12          6           0        3.641505    1.383319    0.045499
     13          6           0        2.317124    1.748382    0.129367
     14          6           0        1.258085    0.798969    0.048087
     15          6           0       -0.105497    1.243424    0.132819
     16          8           0       -0.379159    2.517383    0.315862
     17          6           0       -1.115128    0.223259    0.019349
     18          1           0       -3.809301    2.078129    0.513513
     19          1           0       -2.128695    2.502840    0.320814
     20          1           0       -4.540710   -0.173457    0.073574
     21          1           0       -3.890448   -2.575378   -0.102367
     22          1           0       -1.493162   -3.200696   -0.256444
     23          1           0        3.234646   -1.983353   -0.325783
     24          1           0        5.028055   -0.281022   -0.196270
     25          1           0        4.422670    2.135015    0.106884
     26          1           0        2.041267    2.788703    0.259732
 ---------------------------------------------------------------------

 SCF Done:  E(UB3LYP) =  -744.570275112     A.U. after    1 cycles

 Alpha  occ. eigenvalues --  -19.02329 -19.01418 -14.28050 -10.18913 -10.17715
 Alpha  occ. eigenvalues --  -10.16866 -10.14825 -10.14743 -10.14577 -10.14512
 Alpha  occ. eigenvalues --  -10.14484 -10.14113 -10.13587 -10.13495 -10.13448
 Alpha  occ. eigenvalues --  -10.13325 -10.13100  -0.93711  -0.92409  -0.88337
 Alpha  occ. eigenvalues --   -0.82382  -0.80358  -0.75105  -0.72195  -0.70429
 Alpha  occ. eigenvalues --   -0.69866  -0.63575  -0.60601  -0.59090  -0.55372
 Alpha  occ. eigenvalues --   -0.52591  -0.51607  -0.49472  -0.47056  -0.44571
 Alpha  occ. eigenvalues --   -0.43873  -0.42959  -0.41450  -0.40623  -0.39698
 Alpha  occ. eigenvalues --   -0.38239  -0.37380  -0.36206  -0.35784  -0.34887
 Alpha  occ. eigenvalues --   -0.34820  -0.32503  -0.32330  -0.31316  -0.30629
 Alpha  occ. eigenvalues --   -0.29840  -0.27833  -0.22832  -0.22268  -0.21447
 Alpha  occ. eigenvalues --   -0.20376  -0.19328  -0.18524  -0.10631
 Alpha virt. eigenvalues --   -0.02118   0.00084   0.00388   0.00760   0.01372
 Alpha virt. eigenvalues --    0.02419   0.02468   0.02748   0.04409   0.04622
 Alpha virt. eigenvalues --    0.04958   0.05028   0.06503   0.06777   0.06962

  Beta  occ. eigenvalues --  -19.02329 -19.01418 -14.28050 -10.18913 -10.17715
  Beta  occ. eigenvalues --  -10.16866 -10.14825 -10.14743 -10.14577 -10.14512
  Beta  occ. eigenvalues --  -10.14484 -10.14113 -10.13587 -10.13495 -10.13448
  Beta  occ. eigenvalues --  -10.13325 -10.13100  -0.93711  -0.92409  -0.88337
  Beta  occ. eigenvalues --   -0.82382  -0.80358  -0.75105  -0.72195  -0.70429
  Beta  occ. eigenvalues --   -0.69866  -0.63575  -0.60601  -0.59090  -0.55372
  Beta  occ. eigenvalues --   -0.52591  -0.51607  -0.49472  -0.47056  -0.44571
  Beta  occ. eigenvalues --   -0.43873  -0.42959  -0.41450  -0.40623  -0.39698
  Beta  occ. eigenvalues --   -0.38239  -0.37380  -0.36206  -0.35784  -0.34887
  Beta  occ. eigenvalues --   -0.34820  -0.32503  -0.32330  -0.31316  -0.30629
  Beta  occ. eigenvalues --   -0.29840  -0.27833  -0.22832  -0.22268  -0.21447
  Beta  occ. eigenvalues --   -0.20376  -0.19328  -0.18524  -0.10631
  Beta virt. eigenvalues --   -0.02118   0.00084   0.00388   0.00760   0.01372
  Beta virt. eigenvalues --    0.02419   0.02468   0.02748   0.04409   0.04622
  Beta virt. eigenvalues --    0.04958   0.05028   0.06503   0.06777   0.06962

 Mulliken charges and spin densities:
               1          2
     1  N   -0.445045   0.000000
     2  C    0.108707  -0.000000
     3  C   -0.302320   0.000000
     4  C   -0.464727  -0.000000
     5  C   -0.160677   0.000000
     6  C    0.473585   0.000000
     7  C   -0.475959  -0.000000
     8  O   -0.684131   0.000000
     9  C    0.080873  -0.000000
    10  C   -0.020533   0.000000
    11  C   -0.459836   0.000000
    12  C   -0.530028  -0.000000
    13  C    0.054377   0.000000
    14  C    0.108601   0.000000
    15  C   -0.383476   0.000000
    16  O   -0.646644   0.000000
    17  C    0.170145   0.000000
    18  H    0.247533  -0.000000
    19  H    0.304173   0.000000
    20  H    0.133581   0.000000
    21  H    0.155087  -0.000000
    22  H    0.135321  -0.000000
    23  H    0.142618   0.000000
    24  H    0.155001   0.000000
    25  H    0.154045  -0.000000
    26  H    0.149729  -0.000000
 Sum of Mulliken charges =  -2.00000   0.00000

 Dipole moment (field-independent basis, Debye):
    X=             -2.3833    Y=              3.7267    Z=              1.3145  Tot=              4.6148
 Quadrupole moment (field-independent basis, Debye-Ang):
   XX=           -125.8339   YY=           -159.1197   ZZ=           -113.4628
   XY=              6.2773   XZ=             -2.7677   YZ=             -2.4813

  Exact polarizability: 547.934  34.754 395.150  -6.376  19.584 162.758
 Approx polarizability: 599.232  34.112 468.155  -8.031  25.241 178.562

                      1                      2                      3
                      A                      A                      A
 Frequencies --     59.7436                83.8747               135.2714
 Red. masses --      6.4548                 5.0188                 4.5084
 Frc consts  --      0.0136                 0.0208                 0.0486
 IR Inten    --     20.4953                 0.1451                 0.8404

                      4                      5                      6
                      A                      A                      A
 Frequencies --    167.7162               209.1381               222.1910
 Red. masses --      7.8759                 4.3667                 4.8444
 Frc consts  --      0.1305                 0.1125                 0.1409
 IR Inten    --      6.1981                 5.4231                22.8313

                      7                      8                      9
                      A                      A                      A
 Frequencies --    269.4404               318.3998               351.5850
 Red. masses --      4.1563                 7.0822                 6.0319
 Frc consts  --      0.1778                 0.4230                 0.4393
 IR Inten    --     18.3853                 1.9655                10.3583

                     10                     11                     12
                      A                      A                      A
 Frequencies --    385.6971               395.2496               409.1948
 Red. masses --      5.8042                 7.3826                 6.6714
 Frc consts  --      0.5087                 0.6795                 0.6582
 IR Inten    --     17.7973                 3.0010                27.0617

                     13                     14                     15
                      A                      A                      A
 Frequencies --    428.2532               447.7562               454.9384
 Red. masses --      1.5017                 2.5751                 4.4426
 Frc consts  --      0.1623                 0.3042                 0.5417
 IR Inten    --    274.9945                77.2732                12.0738

                     16                     17                     18
                      A                      A                      A
 Frequencies --    498.2195               502.8973               553.1815
 Red. masses --      4.1795                 8.1548                 5.4236
 Frc consts  --      0.6112                 1.2151                 0.9778
 IR Inten    --      8.6666                 5.4292                 6.5670

                     19                     20                     21
                      A                      A                      A
 Frequencies --    572.5076               598.0534               633.7214
 Red. masses --      3.9697                 6.2639                 3.7385
 Frc consts  --      0.7666                 1.3200                 0.8846
 IR Inten    --     23.5878                83.0923                17.3717

                     22                     23                     24
                      A                      A                      A
 Frequencies --    655.4981               688.4130               698.7620
 Red. masses --      6.2404                 6.7286                 2.1282
 Frc consts  --      1.5798                 1.8788                 0.6122
 IR Inten    --      6.4048                 4.1851               145.2533

                     25                     26                     27
                      A                      A                      A
 Frequencies --    724.0245               757.9664               761.8496
 Red. masses --      1.8686                 1.6787                 1.8309
 Frc consts  --      0.5771                 0.5682                 0.6261
 IR Inten    --     63.3891                13.1491               255.7132

                     28                     29                     30
                      A                      A                      A
 Frequencies --    777.9278               799.7998               814.1621
 Red. masses --      2.0081                 3.8426                 3.6570
 Frc consts  --      0.7160                 1.4482                 1.4282
 IR Inten    --     35.9504                18.9917                39.5825

                     31                     32                     33
                      A                      A                      A
 Frequencies --    827.3238               851.7154               867.6945
 Red. masses --      1.6302                 1.8386                 6.6375
 Frc consts  --      0.6574                 0.7858                 2.9443
 IR Inten    --      4.1181                 0.6381                75.9515

                     34                     35                     36
                      A                      A                      A
 Frequencies --    931.5446               951.2690               973.1632
 Red. masses --      6.2417                 1.2459                 1.3494
 Frc consts  --      3.1912                 0.6643                 0.7530
 IR Inten    --      6.0758                 1.5524                 2.9580

                     37                     38                     39
                      A                      A                      A
 Frequencies --    981.6239              1004.5624              1017.6513
 Red. masses --      1.2619                 3.4869                 2.2752
 Frc consts  --      0.7164                 2.0732                 1.3882
 IR Inten    --      0.8763               207.7090               176.0565

                     40                     41                     42
                      A                      A                      A
 Frequencies --   1054.5155              1092.8056              1117.3539
 Red. masses --      2.3851                 2.4553                 1.5751
 Frc consts  --      1.5626                 1.7276                 1.1586
 IR Inten    --    339.7970               347.7240               427.8251

                     43                     44                     45
                      A                      A                      A
 Frequencies --   1137.0039              1160.4382              1167.8584
 Red. masses --      1.6511                 1.5059                 1.5687
 Frc consts  --      1.2576                 1.1948                 1.2606
 IR Inten    --    326.5064               207.9487                17.6991

                     46                     47                     48
                      A                      A                      A
 Frequencies --   1186.3813              1224.4174              1247.4640
 Red. masses --      1.6354                 2.3666                 3.0406
 Frc consts  --      1.3562                 2.0904                 2.7878
 IR Inten    --     51.2709               313.5827               328.6474

                     49                     50                     51
                      A                      A                      A
 Frequencies --   1273.5906              1299.0746              1348.3911
 Red. masses --      3.3327                 5.3926                 5.6086
 Frc consts  --      3.1850                 5.3618                 6.0081
 IR Inten    --    124.2484                15.5702               652.1536

                     52                     53                     54
                      A                      A                      A
 Frequencies --   1351.9361              1382.0180              1430.6688
 Red. masses --      4.3875                 1.9774                 6.5155
 Frc consts  --      4.7248                 2.2253                 7.8573
 IR Inten    --   2059.1082                 6.2134               129.4770

                     55                     56                     57
                      A                      A                      A
 Frequencies --   1445.1837              1460.1601              1477.0499
 Red. masses --      2.6563                 2.8390                 2.5601
 Frc consts  --      3.2687                 3.5663                 3.2908
 IR Inten    --     22.7015               374.1254                36.9872

                     58                     59                     60
                      A                      A                      A
 Frequencies --   1498.4014              1531.9112              1572.9147
 Red. masses --      5.2904                 4.6108                 1.4575
 Frc consts  --      6.9983                 6.3752                 2.1246
 IR Inten    --     47.9422               194.9498               323.3211

                     61                     62                     63
                      A                      A                      A
 Frequencies --   1581.9386              1605.8866              1606.7194
 Red. masses --      5.0884                 5.2374                 4.4204
 Frc consts  --      7.5026                 7.9579                 6.7235
 IR Inten    --     67.4728                11.1645               133.5863

                     64                     65                     66
                      A                      A                      A
 Frequencies --   3129.1082              3137.7508              3147.0273
 Red. masses --      1.0850                 1.0845                 1.0919
 Frc consts  --      6.2592                 6.2910                 6.3712
 IR Inten    --     59.2439                24.6684                81.6874

                     67                     68                     69
                      A                      A                      A
 Frequencies --   3153.0389              3169.3364              3176.0215
 Red. masses --      1.0888                 1.0924                 1.0933
 Frc consts  --      6.3778                 6.4653                 6.4979
 IR Inten    --     31.0234                51.8808                82.8330

                     70                     71                     72
                      A                      A                      A
 Frequencies --   3183.8197              3252.4374              3607.0587
 Red. masses --      1.0911                 1.0680                 1.0831
 Frc consts  --      6.5165                 6.6565                 8.3029
 IR Inten    --     41.1604               438.8457                34.1296

 - Thermochemistry -
 -------------------
 Temperature   298.150 Kelvin.  Pressure   1.00000 Atm.
 Atom     1 has atomic number  7 and mass  14.00307

 Molecular mass:   223.06333 amu.
 Principal axes and moments of inertia in atomic units:
                           1         2         3
     Eigenvalues --  2069.485214409.382876474.74067
           X            0.99550  -0.09253   0.02061
           Y            0.09406   0.99118  -0.09331
           Z           -0.01179   0.09483   0.99542
 This molecule is an asymmetric top.
 Rotational symmetry number  1.
 Warning -- assumption of classical behavior for rotation
           may cause significant error
 Rotational temperatures (Kelvin)      0.04185     0.01964     0.01338
 Rotational constants (GHZ):           0.87207     0.40930     0.27874
 Zero-point vibrational energy     502381.7 (Joules/Mol)
                                  120.07211 (Kcal/Mol)
 Warning -- explicit consideration of  20 degrees of freedom as
           vibrations may cause significant error
 Vibrational temperatures:     85.96   120.68   194.63   241.31   300.90
          (Kelvin)            319.68   387.66   458.11   505.85   554.93
                              568.68   588.74   616.16   644.22   654.55
                              716.83   723.56   795.90   823.71   860.47
                              911.78   943.12   990.47  1005.36  1041.71
                             1090.54  1096.13  1119.26  1150.73  1171.40
                             1190.33  1225.43  1248.42  1340.28  1368.66
                             1400.16  1412.34  1445.34  1464.17  1517.21
                             1572.30  1607.62  1635.89  1669.61  1680.29
                             1706.94  1761.66  1794.82  1832.41  1869.08
                             1940.03  1945.13  1988.42  2058.41  2079.30
                             2100.84  2125.15  2155.87  2204.08  2263.07
                             2276.06  2310.51  2311.71  4502.09  4514.52
                             4527.87  4536.52  4559.97  4569.59  4580.81
                             4679.53  5189.75

 Zero-point correction=                           0.191347 (Hartree/Particle)
 Thermal correction to Energy=                    0.203801
 Thermal correction to Enthalpy=                  0.204745
 Thermal correction to Gibbs Free Energy=         0.152952
 Sum of electronic and zero-point Energies=           -744.378928
 Sum of electronic and thermal Energies=              -744.366474
 Sum of electronic and thermal Enthalpies=            -744.365530
 Sum of electronic and thermal Free Energies=         -744.417323

                     E (Thermal)             CV                S
                      KCal/Mol        Cal/Mol-Kelvin    Cal/Mol-Kelvin
 Total                  127.887             52.029            109.007
 Electronic               0.000              0.000              0.000
 Translational            0.889              2.981             42.109
 Rotational               0.889              2.981             32.446
 Vibrational            126.109             46.067             34.452
 Vibration     1          0.597              1.973              4.466
 Vibration     2          0.601              1.960              3.798
 Vibration     3          0.613              1.918              2.870
 Vibration     4          0.624              1.882              2.461
 Vibration     5          0.642              1.827              2.051
 Vibration     6          0.648              1.807              1.941
 Vibration     7          0.674              1.729              1.600
 Vibration     8          0.705              1.638              1.318
 Vibration     9          0.728              1.572              1.159
 Vibration    10          0.754              1.501              1.017
 Vibration    11          0.762              1.480              0.980
 Vibration    12          0.774              1.450              0.929
 Vibration    13          0.790              1.409              0.864
 Vibration    14          0.807              1.366              0.803
 Vibration    15          0.813              1.350              0.781
 Vibration    16          0.854              1.254              0.663
 Vibration    17          0.858              1.244              0.651
 Vibration    18          0.909              1.133              0.538
 Vibration    19          0.929              1.091              0.499
 Vibration    20          0.956              1.036              0.453

 Optimization completed.
    -- Stationary point found.
 Normal termination of Gaussian 16 at Sat Feb 10 18:48:53 2024.
