 Q-Chem 5.4, Q-Chem, Inc., Pleasanton, CA (2021)
 Q-Chem 5.4.0 for Intel X86 EM64T Linux

User input:
--------------------------------------------------------------
$molecule
0 1
C                  2.6459100000     -0.3449820000     -1.9403270000
C                  2.6265670000     -0.0049550000     -0.4286720000
C                  2.8290460000      1.5177390000     -0.2250340000
C                  3.8158150000     -0.7295020000      0.2310010000
C                  1.2940280000     -0.4465800000      0.1932220000
C                  1.2157050000     -1.3515420000      1.1856870000
C                 -0.0625570000     -1.7766030000      1.7832300000
O                 -0.0916130000     -2.6032820000      2.6855790000
C                 -1.3048220000     -1.1781250000      1.2633530000
C                 -1.3191520000     -0.2665390000      0.2739630000
C                  0.0054860000      0.1552360000     -0.3239980000
O                  0.0345440000      0.9803010000     -1.2226210000
C                 -2.6142160000      0.3565780000     -0.2664350000
C                 -2.7733120000      0.0286640000     -1.7724900000
C                 -3.8487100000     -0.2003080000      0.4686400000
C                 -2.5925850000      1.8917950000     -0.0573440000
H                  3.6190010000     -0.0731730000     -2.3596810000
H                  2.5028780000     -1.4179630000     -2.0995220000
H                  1.8746620000      0.1952680000     -2.4861040000
H                  2.0617090000      2.0990180000     -0.7328700000
H                  3.8040360000      1.8097150000     -0.6260310000
H                  2.8167230000      1.7729250000      0.8388330000
H                  3.7602960000     -1.8139120000      0.1017460000
H                  3.8888510000     -0.5119890000      1.3001450000
H                  4.7430890000     -0.3903380000     -0.2369140000
H                  2.0885820000     -1.8284470000      1.6118050000
H                 -2.2069950000     -1.5328520000      1.7441640000
H                 -3.7238150000      0.4333020000     -2.1322870000
H                 -2.7890870000     -1.0531410000     -1.9354100000
H                 -1.9702630000      0.4600660000     -2.3671180000
H                 -3.8247700000      0.0205180000      1.5393270000
H                 -4.7476630000      0.2652840000      0.0576510000
H                 -3.9511250000     -1.2814580000      0.3407880000
H                 -3.5413970000      2.3165190000     -0.3979570000
H                 -2.4789210000      2.1384390000      1.0025300000
H                 -1.7859240000      2.3643260000     -0.6146460000
$end
$rem
MAX_SCF_CYCLES=200
BASIS  =  6-311++G(d,p)
GUI  =  2
JOB_TYPE  =  SP
METHOD  =  B3LYP
SOLVENT_METHOD = COSMO
$end
$solvent
dielectric 37.219
opticaldielectric 1.43
$end

--------------------------------------------------------------

             Standard Nuclear Orientation (Angstroms)
    I     Atom           X                Y                Z
 ----------------------------------------------------------------
    1      C      -2.7172189156     1.4304206803     1.2691099125
    2      C      -2.6278691881     0.5455555910     0.0002033946
    3      C      -2.7187436218     1.4288344401    -1.2696877465
    4      C      -3.8432036335    -0.4017604795     0.0016442381
    5      C      -1.3103000566    -0.2427695016    -0.0001230726
    6      C      -1.2638067589    -1.5873571157    -0.0002297508
    7      C       0.0000274119    -2.3452564592    -0.0001589496
    8      O      -0.0000035759    -3.5693790307    -0.0004179661
    9      C       1.2638723094    -1.5873869801     0.0003602443
   10      C       1.3103188596    -0.2427942414     0.0001570104
   11      C       0.0000017589     0.5142962107    -0.0005373401
   12      O       0.0000347714     1.7345825572    -0.0016092821
   13      C       2.6278737096     0.5455868667     0.0002204972
   14      C       2.7174611707     1.4302641608     1.2692204830
   15      C       3.8432429925    -0.4016773386     0.0010807649
   16      C       2.7183622712     1.4290059272    -1.2696065647
   17      H      -3.6817908232     1.9462210375     1.2830752479
   18      H      -2.6533158784     0.8195718345     2.1745763763
   19      H      -1.9278552451     2.1792458644     1.2961638042
   20      H      -1.9292861431     2.1775043574    -1.2986531491
   21      H      -3.6832551313     1.9447732400    -1.2830586641
   22      H      -2.6560553320     0.8168466534    -2.1744672068
   23      H      -3.8664262531    -1.0403142969     0.8890246496
   24      H      -3.8680598387    -1.0410551141    -0.8851475043
   25      H      -4.7589551661     0.1942366089     0.0022260195
   26      H      -2.1538473439    -2.2027894366    -0.0002684276
   27      H       2.1539219317    -2.2028040240     0.0007010273
   28      H       3.6819834647     1.9461576825     1.2830900202
   29      H       2.6537474604     0.8192259529     2.1745749476
   30      H       1.9280134911     2.1789994250     1.2965280949
   31      H       3.8676185666    -1.0410386380    -0.8856722210
   32      H       4.7589742799     0.1943432770     0.0010758659
   33      H       3.8670504463    -1.0401781331     0.8884759582
   34      H       3.6831723331     1.9443687356    -1.2835573126
   35      H       2.6547113217     0.8171865820    -2.1744332381
   36      H       1.9292944392     2.1780996164    -1.2979550279
 ----------------------------------------------------------------

    9    -696.1578684441      3.06e-06  Convergence criterion met
 Total energy in the final basis set =     -696.1578684441
    4    -696.1685950773      7.91e-06  Convergence criterion met
 Total energy in the final basis set =     -696.1685950773

                    Orbital Energies (a.u.)
 --------------------------------------------------------------

 Alpha MOs
 -- Occupied --
-19.1384 -19.1374 -10.2875 -10.2803 -10.2155 -10.2155 -10.2013 -10.2013
-10.1975 -10.1974 -10.1587 -10.1587 -10.1570 -10.1570 -10.1570 -10.1570
 -1.0733  -1.0670  -0.8684  -0.8432  -0.8057  -0.7630  -0.7030  -0.6904
 -0.6876  -0.6871  -0.6851  -0.6394  -0.6099  -0.5576  -0.5426  -0.5235
 -0.5045  -0.4794  -0.4729  -0.4563  -0.4511  -0.4458  -0.4425  -0.4386
 -0.4326  -0.4229  -0.4154  -0.4046  -0.3933  -0.3838  -0.3808  -0.3784
 -0.3674  -0.3650  -0.3555  -0.3544  -0.3411  -0.3397  -0.3395  -0.3314
 -0.3008  -0.2844  -0.2831  -0.2678

          Ground-State Mulliken Net Atomic Charges

     Atom                 Charge (a.u.)
  ----------------------------------------
      1 C                    -0.723004
      2 C                     0.649112
      3 C                    -0.722784
      4 C                    -0.466977
      5 C                     0.716865
      6 C                    -0.287538
      7 C                    -0.578953
      8 O                    -0.329520
      9 C                    -0.288413
     10 C                     0.716646
     11 C                    -0.755182
     12 O                    -0.195657
     13 C                     0.649514
     14 C                    -0.723083
     15 C                    -0.467045
     16 C                    -0.723067
     17 H                     0.174574
     18 H                     0.161220
     19 H                     0.177872
     20 H                     0.178022
     21 H                     0.174465
     22 H                     0.161229
     23 H                     0.148242
     24 H                     0.148215
     25 H                     0.188101
     26 H                     0.252277
     27 H                     0.253098
     28 H                     0.174541
     29 H                     0.161209
     30 H                     0.177959
     31 H                     0.148027
     32 H                     0.188205
     33 H                     0.148158
     34 H                     0.174522
     35 H                     0.161264
     36 H                     0.177887
  ----------------------------------------
  Sum of atomic charges =     0.000000

                    Cartesian Multipole Moments
 -----------------------------------------------------------------
    Charge (ESU x 10^10)
                 0.0000
    Dipole Moment (Debye)
         X       0.0011      Y       2.2959      Z       0.0033
       Tot       2.2959
    Quadrupole Moments (Debye-Ang)
        XX     -85.3439     XY      -0.0035     YY    -122.5302
        XZ       0.0022     YZ       0.0024     ZZ     -98.8947

 Total job time:  80.46s(wall), 568.25s(cpu)
        *  Thank you very much for using Q-Chem.  Have a nice day.  *
