 Gaussian 16, Revision A.03,
 Gaussian 16:  ES64L-G16RevA.03 25-Dec-2016

 ----------------------------------------------------------------------
 #P UB3LYP/6-311++G(d,p) nosym opt freq SCRF=(PCM,Solvent=n,n-DiMethylF
 ormamide)
 ----------------------------------------------------------------------

 -------
 Reduced
 -------
 Symbolic Z-matrix:
 Charge = -2 Multiplicity = 1

 SCF Done:  E(UB3LYP) =  -1204.16955013     A.U. after   19 cycles
 SCF Done:  E(UB3LYP) =  -1204.16955018     A.U. after   10 cycles
 SCF Done:  E(UB3LYP) =  -1204.16955020     A.U. after   10 cycles
 SCF Done:  E(UB3LYP) =  -1204.16955022     A.U. after   10 cycles
 SCF Done:  E(UB3LYP) =  -1204.16955034     A.U. after   10 cycles
 SCF Done:  E(UB3LYP) =  -1204.16955100     A.U. after   12 cycles
 SCF Done:  E(UB3LYP) =  -1204.16955247     A.U. after   12 cycles
 SCF Done:  E(UB3LYP) =  -1204.16954250     A.U. after   13 cycles
 SCF Done:  E(UB3LYP) =  -1204.16955399     A.U. after   13 cycles
 SCF Done:  E(UB3LYP) =  -1204.16954971     A.U. after   13 cycles
 SCF Done:  E(UB3LYP) =  -1204.16967305     A.U. after   12 cycles
 SCF Done:  E(UB3LYP) =  -1204.16967484     A.U. after   11 cycles
 SCF Done:  E(UB3LYP) =  -1204.16967564     A.U. after   12 cycles
 SCF Done:  E(UB3LYP) =  -1204.16967624     A.U. after   12 cycles
 SCF Done:  E(UB3LYP) =  -1204.16967653     A.U. after   11 cycles
 SCF Done:  E(UB3LYP) =  -1204.16967668     A.U. after   11 cycles
 SCF Done:  E(UB3LYP) =  -1204.16967665     A.U. after   11 cycles
 SCF Done:  E(UB3LYP) =  -1204.16967672     A.U. after   11 cycles
 SCF Done:  E(UB3LYP) =  -1204.16967672     A.U. after   10 cycles
 Optimization completed.
    -- Stationary point found.
 Normal termination of Gaussian 16 at Thu Feb 15 07:42:36 2024.

 ----------------------------------------------------------------------
 #P Geom=AllCheck Guess=TCheck SCRF=Check GenChk UB3LYP/6-311++G(d,p) F
 req
 ----------------------------------------------------------------------

 Structure from the checkpoint file:  "313-an.chk"
 -------
 Reduced
 -------
 Charge = -2 Multiplicity = 1

                          Input orientation:
 ---------------------------------------------------------------------
 Center     Atomic      Atomic             Coordinates (Angstroms)
 Number     Number       Type             X           Y           Z
 ---------------------------------------------------------------------
      1          6           0       -5.570503    0.108910   -0.642901
      2          6           0       -5.704457   -0.357920   -1.936714
      3          6           0       -4.553460   -0.541447   -2.734722
      4          6           0       -4.307342    0.412734   -0.079801
      5          6           0       -3.136462    0.221248   -0.889996
      6          6           0       -3.306522   -0.255842   -2.213497
      7          6           0       -4.242542    0.911923    1.299031
      8          6           0       -2.926285    1.191347    1.738707
      9          6           0       -1.764781    0.990889    0.928978
     10          6           0       -1.796497    0.507498   -0.383265
     11         16           0       -2.678699    1.915642    3.355881
     12          6           0       -2.587161    0.543469    4.510259
     13          6           0       -2.715623   -0.792141    4.123062
     14          6           0       -2.373374    0.849597    5.863591
     15          6           0       -2.281391   -0.152935    6.830818
     16          6           0       -2.626543   -1.798952    5.085498
     17          6           0       -2.411435   -1.490255    6.426790
     18          6           0       -2.033965    0.192516    8.280904
     19          8           0       -5.320064    1.060263    2.000461
     20          8           0       -0.731998    0.318554   -1.122255
     21          1           0       -6.442304    0.256507   -0.015599
     22          1           0       -6.687561   -0.582131   -2.338999
     23          1           0       -4.650451   -0.905275   -3.753161
     24          1           0       -2.413353   -0.388872   -2.813542
     25          1           0       -0.795091    1.230343    1.357814
     26          1           0       -2.888467   -1.031729    3.080676
     27          1           0       -2.277799    1.888518    6.166460
     28          1           0       -2.729441   -2.835707    4.781426
     29          1           0       -2.346702   -2.284750    7.163264
     30          1           0       -2.131953    1.265562    8.457029
     31          1           0       -1.026551   -0.105581    8.589724
     32          1           0       -2.738428   -0.325978    8.937391
 ---------------------------------------------------------------------

 SCF Done:  E(UB3LYP) =  -1204.16967672     A.U. after    2 cycles

 Alpha  occ. eigenvalues --  -88.83140 -19.02161 -19.01444 -10.19760 -10.18191
 Alpha  occ. eigenvalues --  -10.18176 -10.17143 -10.17117 -10.16739 -10.16405
 Alpha  occ. eigenvalues --  -10.16346 -10.16274 -10.15471 -10.15357 -10.15277
 Alpha  occ. eigenvalues --  -10.15031 -10.14940 -10.14650 -10.14568 -10.12289
 Alpha  occ. eigenvalues --   -7.91711  -5.88103  -5.87691  -5.87159  -0.93628
 Alpha  occ. eigenvalues --   -0.92203  -0.85988  -0.83083  -0.79419  -0.76854
 Alpha  occ. eigenvalues --   -0.75607  -0.72662  -0.72216  -0.68422  -0.67659
 Alpha  occ. eigenvalues --   -0.64124  -0.59664  -0.59004  -0.58543  -0.55642
 Alpha  occ. eigenvalues --   -0.52743  -0.50144  -0.47758  -0.47091  -0.46147
 Alpha  occ. eigenvalues --   -0.43995  -0.43426  -0.42001  -0.41813  -0.40677
 Alpha  occ. eigenvalues --   -0.40541  -0.40045  -0.38476  -0.38193  -0.37461
 Alpha  occ. eigenvalues --   -0.36347  -0.36118  -0.35667  -0.34324  -0.33903
 Alpha  occ. eigenvalues --   -0.33075  -0.31918  -0.31715  -0.30873  -0.30081
 Alpha  occ. eigenvalues --   -0.27943  -0.24670  -0.23243  -0.22572  -0.21977
 Alpha  occ. eigenvalues --   -0.20395  -0.20074  -0.19208  -0.12074
 Alpha virt. eigenvalues --   -0.01289  -0.01140  -0.00775  -0.00152  -0.00057
 Alpha virt. eigenvalues --    0.00410   0.01510   0.01612   0.01932   0.02944
 Alpha virt. eigenvalues --    0.03096   0.03464   0.04196   0.04345   0.04468

  Beta  occ. eigenvalues --  -88.83140 -19.02161 -19.01444 -10.19760 -10.18191
  Beta  occ. eigenvalues --  -10.18176 -10.17143 -10.17117 -10.16739 -10.16405
  Beta  occ. eigenvalues --  -10.16346 -10.16274 -10.15471 -10.15357 -10.15277
  Beta  occ. eigenvalues --  -10.15031 -10.14940 -10.14650 -10.14568 -10.12289
  Beta  occ. eigenvalues --   -7.91711  -5.88103  -5.87691  -5.87159  -0.93628
  Beta  occ. eigenvalues --   -0.92203  -0.85988  -0.83083  -0.79419  -0.76854
  Beta  occ. eigenvalues --   -0.75607  -0.72662  -0.72216  -0.68422  -0.67659
  Beta  occ. eigenvalues --   -0.64124  -0.59664  -0.59004  -0.58543  -0.55642
  Beta  occ. eigenvalues --   -0.52743  -0.50144  -0.47758  -0.47091  -0.46147
  Beta  occ. eigenvalues --   -0.43995  -0.43426  -0.42001  -0.41813  -0.40677
  Beta  occ. eigenvalues --   -0.40541  -0.40045  -0.38476  -0.38193  -0.37461
  Beta  occ. eigenvalues --   -0.36347  -0.36118  -0.35667  -0.34324  -0.33903
  Beta  occ. eigenvalues --   -0.33075  -0.31918  -0.31715  -0.30873  -0.30081
  Beta  occ. eigenvalues --   -0.27943  -0.24670  -0.23243  -0.22572  -0.21977
  Beta  occ. eigenvalues --   -0.20395  -0.20074  -0.19208  -0.12074
  Beta virt. eigenvalues --   -0.01289  -0.01140  -0.00775  -0.00152  -0.00057
  Beta virt. eigenvalues --    0.00410   0.01510   0.01612   0.01932   0.02944
  Beta virt. eigenvalues --    0.03096   0.03464   0.04196   0.04345   0.04468

 Mulliken charges and spin densities:
               1          2
     1  C   -0.034651   0.000000
     2  C   -0.452567  -0.000000
     3  C   -0.499136  -0.000000
     4  C   -0.041155  -0.000000
     5  C    0.511560   0.000000
     6  C   -0.141718   0.000000
     7  C   -0.754152   0.000000
     8  C    1.745451  -0.000000
     9  C   -0.523205   0.000000
    10  C   -0.687637  -0.000000
    11  S   -0.184142  -0.000000
    12  C   -0.037796   0.000000
    13  C   -0.034383  -0.000000
    14  C   -0.831992   0.000000
    15  C    0.232903   0.000000
    16  C   -0.175218  -0.000000
    17  C   -0.319468  -0.000000
    18  C   -0.418803  -0.000000
    19  O   -0.636855  -0.000000
    20  O   -0.725573   0.000000
    21  H    0.167444   0.000000
    22  H    0.162146  -0.000000
    23  H    0.161872   0.000000
    24  H    0.160025  -0.000000
    25  H    0.152653  -0.000000
    26  H    0.189438  -0.000000
    27  H    0.163806  -0.000000
    28  H    0.202607   0.000000
    29  H    0.164144   0.000000
    30  H    0.157547  -0.000000
    31  H    0.172639  -0.000000
    32  H    0.154216  -0.000000
 Sum of Mulliken charges =  -2.00000   0.00000

 Dipole moment (field-independent basis, Debye):
    X=             28.4994    Y=             -7.7278    Z=             -5.9530  Tot=             30.1226
 Quadrupole moment (field-independent basis, Debye-Ang):
   XX=           -261.2501   YY=           -142.0451   ZZ=           -160.2974
   XY=             28.4629   XZ=             42.2305   YZ=            -13.3625

  Exact polarizability: 367.234  20.558 294.320  47.712  39.525 510.591
 Approx polarizability: 420.988  25.091 338.150  37.478  50.876 525.888

                      1                      2                      3
                      A                      A                      A
 Frequencies --     20.3257                23.2737                26.2911
 Red. masses --      3.3026                 1.0905                 6.8389
 Frc consts  --      0.0008                 0.0003                 0.0028
 IR Inten    --      0.7864                 0.4348                 2.8113

                      4                      5                      6
                      A                      A                      A
 Frequencies --     39.4647                96.7454               148.9232
 Red. masses --      5.7299                 8.1671                 4.5166
 Frc consts  --      0.0053                 0.0450                 0.0590
 IR Inten    --      4.6900                22.5114                 0.5910

                      7                      8                      9
                      A                      A                      A
 Frequencies --    159.2638               175.3166               191.6721
 Red. masses --      4.8265                 5.3401                 6.9512
 Frc consts  --      0.0721                 0.0967                 0.1505
 IR Inten    --      0.4480                 4.8502                 1.3052

                     10                     11                     12
                      A                      A                      A
 Frequencies --    214.1586               223.7117               236.7735
 Red. masses --      3.1224                 8.8376                 5.0414
 Frc consts  --      0.0844                 0.2606                 0.1665
 IR Inten    --      7.0132                 8.3556                 1.1293

                     13                     14                     15
                      A                      A                      A
 Frequencies --    281.9805               342.7910               364.1857
 Red. masses --      7.8113                 4.7372                10.0458
 Frc consts  --      0.3659                 0.3280                 0.7850
 IR Inten    --      6.9570                 5.3913                10.5551

                     16                     17                     18
                      A                      A                      A
 Frequencies --    385.1495               410.7584               440.3769
 Red. masses --      6.0109                 8.0318                 4.7484
 Frc consts  --      0.5253                 0.7984                 0.5426
 IR Inten    --      2.8083                 6.3480                 9.0583

                     19                     20                     21
                      A                      A                      A
 Frequencies --    442.0160               448.6956               474.3460
 Red. masses --      2.8813                 3.7187                 9.6224
 Frc consts  --      0.3317                 0.4411                 1.2756
 IR Inten    --      9.7241                 6.0004                 2.1909

                     22                     23                     24
                      A                      A                      A
 Frequencies --    507.4586               521.3739               539.6248
 Red. masses --      6.8644                 5.6879                 4.4950
 Frc consts  --      1.0415                 0.9110                 0.7712
 IR Inten    --      2.7074                 2.5982                 7.1430

                     25                     26                     27
                      A                      A                      A
 Frequencies --    541.4205               606.7992               640.6944
 Red. masses --      4.5105                 7.1438                 2.7884
 Frc consts  --      0.7790                 1.5498                 0.6744
 IR Inten    --      2.6971                19.7837                 1.7606

                     28                     29                     30
                      A                      A                      A
 Frequencies --    655.7994               683.9611               699.5779
 Red. masses --      6.3446                 6.6066                 3.4415
 Frc consts  --      1.6077                 1.8209                 0.9924
 IR Inten    --      2.9864                17.0889                45.3572

                     31                     32                     33
                      A                      A                      A
 Frequencies --    703.1595               721.7629               778.3098
 Red. masses --      2.5269                 6.3038                 1.5231
 Frc consts  --      0.7361                 1.9348                 0.5436
 IR Inten    --     27.5673                66.6079               106.4274

                     34                     35                     36
                      A                      A                      A
 Frequencies --    783.7285               794.1320               818.4570
 Red. masses --      1.3687                 3.6546                 7.2643
 Frc consts  --      0.4953                 1.3579                 2.8670
 IR Inten    --     67.9293                 0.2448               212.5405

                     37                     38                     39
                      A                      A                      A
 Frequencies --    827.4622               838.1228               852.9826
 Red. masses --      1.8281                 6.0883                 5.0748
 Frc consts  --      0.7375                 2.5198                 2.1755
 IR Inten    --     32.6864                33.9750                35.4570

                     40                     41                     42
                      A                      A                      A
 Frequencies --    878.2657               882.3897               902.5911
 Red. masses --      1.5144                 1.3335                 1.3380
 Frc consts  --      0.6882                 0.6117                 0.6422
 IR Inten    --      0.3192                 8.9595                 0.3941

                     43                     44                     45
                      A                      A                      A
 Frequencies --    984.9618               990.7605               994.8381
 Red. masses --      1.3416                 1.3069                 1.2512
 Frc consts  --      0.7668                 0.7558                 0.7296
 IR Inten    --      5.4405                 0.3044                 0.6191

                     46                     47                     48
                      A                      A                      A
 Frequencies --   1001.8126              1010.0009              1027.1177
 Red. masses --      2.2294                 2.4940                 2.4151
 Frc consts  --      1.3183                 1.4990                 1.5012
 IR Inten    --      2.3052                 4.2498               103.1022

                     49                     50                     51
                      A                      A                      A
 Frequencies --   1058.3621              1072.4690              1089.3349
 Red. masses --      1.5400                 2.8119                 3.0646
 Frc consts  --      1.0163                 1.9056                 2.1426
 IR Inten    --      9.0158               127.5398                82.5575

                     52                     53                     54
                      A                      A                      A
 Frequencies --   1094.2144              1106.9641              1136.7719
 Red. masses --      2.2242                 1.5430                 1.5736
 Frc consts  --      1.5690                 1.1140                 1.1981
 IR Inten    --     54.3798                 0.1654                64.1809

                     55                     56                     57
                      A                      A                      A
 Frequencies --   1153.8771              1180.0124              1201.1209
 Red. masses --      1.6112                 1.1366                 1.7437
 Frc consts  --      1.2639                 0.9325                 1.4821
 IR Inten    --      7.9200                 1.3400               192.8520

                     58                     59                     60
                      A                      A                      A
 Frequencies --   1224.3276              1226.9906              1258.6432
 Red. masses --      2.9416                 2.7948                 2.4566
 Frc consts  --      2.5979                 2.4790                 2.2929
 IR Inten    --    268.8334                10.8829                72.4478

                     61                     62                     63
                      A                      A                      A
 Frequencies --   1303.0324              1309.0495              1337.5894
 Red. masses --      2.5808                 4.5828                 1.9155
 Frc consts  --      2.5817                 4.6269                 2.0192
 IR Inten    --      3.6964               381.7350                10.5123

                     64                     65                     66
                      A                      A                      A
 Frequencies --   1349.7020              1365.1708              1407.1978
 Red. masses --      7.9873                 6.1379                 1.2489
 Frc consts  --      8.5729                 6.7398                 1.4571
 IR Inten    --    284.8358              1176.9071                 0.2803

                     67                     68                     69
                      A                      A                      A
 Frequencies --   1418.7374              1427.1762              1439.7916
 Red. masses --      2.6699                 2.3596                 2.9339
 Frc consts  --      3.1663                 2.8316                 3.5833
 IR Inten    --    346.8366                12.1741                67.8729

                     70                     71                     72
                      A                      A                      A
 Frequencies --   1476.1648              1486.7704              1501.6414
 Red. masses --      1.0480                 1.1812                 3.9726
 Frc consts  --      1.3455                 1.5384                 5.2778
 IR Inten    --     10.9107                30.7308               148.1888

                     73                     74                     75
                      A                      A                      A
 Frequencies --   1502.5451              1515.0627              1589.6257
 Red. masses --      2.2228                 4.0591                 7.4048
 Frc consts  --      2.9566                 5.4897                11.0243
 IR Inten    --     96.6562               284.5762                50.1217

                     76                     77                     78
                      A                      A                      A
 Frequencies --   1600.0443              1616.5207              1621.7984
 Red. masses --      5.4918                 5.6757                 5.5685
 Frc consts  --      8.2838                 8.7384                 8.6295
 IR Inten    --     81.9410                 3.7900               114.0383

                     79                     80                     81
                      A                      A                      A
 Frequencies --   3021.5075              3071.1254              3100.6094
 Red. masses --      1.0381                 1.0988                 1.1013
 Frc consts  --      5.5840                 6.1060                 6.2379
 IR Inten    --     56.8933                28.7563                31.7482

                     82                     83                     84
                      A                      A                      A
 Frequencies --   3135.1653              3141.8820              3146.5196
 Red. masses --      1.0877                 1.0850                 1.0895
 Frc consts  --      6.2992                 6.3105                 6.3552
 IR Inten    --     72.2169                14.0602                34.3014

                     85                     86                     87
                      A                      A                      A
 Frequencies --   3152.3768              3157.5015              3168.2261
 Red. masses --      1.0862                 1.0899                 1.0925
 Frc consts  --      6.3597                 6.4019                 6.4613
 IR Inten    --     10.1429                36.3459                30.2020

                     88                     89                     90
                      A                      A                      A
 Frequencies --   3175.1654              3179.5177              3182.7114
 Red. masses --      1.0911                 1.0932                 1.0934
 Frc consts  --      6.4810                 6.5116                 6.5258
 IR Inten    --     37.0083                62.6011                16.8620

 - Thermochemistry -
 -------------------
 Temperature   298.150 Kelvin.  Pressure   1.00000 Atm.
 Atom     1 has atomic number  6 and mass  12.00000

 Molecular mass:   280.05580 amu.
 Principal axes and moments of inertia in atomic units:
                           1         2         3
     Eigenvalues --  2450.79399********************
           X            0.19081   0.96817  -0.16197
           Y           -0.01590   0.16803   0.98565
           Z            0.98150  -0.18550   0.04746
 This molecule is an asymmetric top.
 Rotational symmetry number  1.
 Warning -- assumption of classical behavior for rotation
           may cause significant error
 Rotational temperatures (Kelvin)      0.03534     0.00748     0.00714
 Rotational constants (GHZ):           0.73639     0.15594     0.14873
 Zero-point vibrational energy     622278.3 (Joules/Mol)
                                  148.72807 (Kcal/Mol)
 Warning -- explicit consideration of  26 degrees of freedom as
           vibrations may cause significant error
 Vibrational temperatures:     29.24    33.49    37.83    56.78   139.20
          (Kelvin)            214.27   229.15   252.24   275.77   308.13
                              321.87   340.66   405.71   493.20   523.98
                              554.14   590.99   633.60   635.96   645.57
                              682.48   730.12   750.14   776.40   778.98
                              873.05   921.82   943.55   984.07  1006.54
                             1011.69  1038.46  1119.81  1127.61  1142.58
                             1177.58  1190.53  1205.87  1227.25  1263.63
                             1269.56  1298.63  1417.14  1425.48  1431.35
                             1441.38  1453.17  1477.79  1522.75  1543.04
                             1567.31  1574.33  1592.67  1635.56  1660.17
                             1697.77  1728.15  1761.53  1765.37  1810.91
                             1874.77  1883.43  1924.49  1941.92  1964.18
                             2024.64  2041.25  2053.39  2071.54  2123.87
                             2139.13  2160.53  2161.83  2179.84  2287.12
                             2302.11  2325.81  2333.41  4347.28  4418.66
                             4461.09  4510.80  4520.47  4527.14  4535.57
                             4542.94  4558.37  4568.35  4574.62  4579.21

 Zero-point correction=                           0.237013 (Hartree/Particle)
 Thermal correction to Energy=                    0.253944
 Thermal correction to Enthalpy=                  0.254888
 Thermal correction to Gibbs Free Energy=         0.189597
 Sum of electronic and zero-point Energies=          -1203.932663
 Sum of electronic and thermal Energies=             -1203.915733
 Sum of electronic and thermal Enthalpies=           -1203.914789
 Sum of electronic and thermal Free Energies=        -1203.980080

                     E (Thermal)             CV                S
                      KCal/Mol        Cal/Mol-Kelvin    Cal/Mol-Kelvin
 Total                  159.352             65.726            137.417
 Electronic               0.000              0.000              0.000
 Translational            0.889              2.981             42.788
 Rotational               0.889              2.981             34.197
 Vibrational            157.575             59.765             60.431
 Vibration     1          0.593              1.986              6.602
 Vibration     2          0.593              1.985              6.333
 Vibration     3          0.593              1.985              6.091
 Vibration     4          0.594              1.981              5.286
 Vibration     5          0.603              1.951              3.519
 Vibration     6          0.618              1.904              2.686
 Vibration     7          0.621              1.892              2.559
 Vibration     8          0.627              1.873              2.378
 Vibration     9          0.634              1.851              2.212
 Vibration    10          0.644              1.819              2.008
 Vibration    11          0.649              1.805              1.929
 Vibration    12          0.656              1.784              1.827
 Vibration    13          0.681              1.707              1.522
 Vibration    14          0.722              1.590              1.199
 Vibration    15          0.738              1.546              1.104
 Vibration    16          0.754              1.502              1.019
 Vibration    17          0.775              1.447              0.924
 Vibration    18          0.800              1.382              0.825
 Vibration    19          0.802              1.379              0.820
 Vibration    20          0.808              1.364              0.800
 Vibration    21          0.831              1.307              0.725
 Vibration    22          0.863              1.233              0.640
 Vibration    23          0.876              1.203              0.607
 Vibration    24          0.895              1.162              0.566
 Vibration    25          0.897              1.158              0.562
 Vibration    26          0.966              1.017              0.438

 Optimization completed.
    -- Stationary point found.
 Normal termination of Gaussian 16 at Thu Feb 15 09:29:33 2024.
