 Gaussian 16, Revision A.03,
 Gaussian 16:  ES64L-G16RevA.03 25-Dec-2016

 ----------------------------------------------------------------------
 #P UB3LYP/6-311++G(d,p) nosym opt freq SCRF=(PCM,Solvent=n,n-DiMethylF
 ormamide)
 ----------------------------------------------------------------------

 -------
 Reduced
 -------
 Symbolic Z-matrix:
 Charge = -2 Multiplicity = 1

 SCF Done:  E(UB3LYP) =  -650.053930426     A.U. after   19 cycles
 SCF Done:  E(UB3LYP) =  -650.055874255     A.U. after   13 cycles
 SCF Done:  E(UB3LYP) =  -650.056202720     A.U. after   12 cycles
 SCF Done:  E(UB3LYP) =  -650.056211670     A.U. after   12 cycles
 SCF Done:  E(UB3LYP) =  -650.056232153     A.U. after   12 cycles
 SCF Done:  E(UB3LYP) =  -650.056232695     A.U. after   10 cycles
 SCF Done:  E(UB3LYP) =  -650.056233060     A.U. after   10 cycles
 SCF Done:  E(UB3LYP) =  -650.056233131     A.U. after    9 cycles
 Optimization completed.
    -- Stationary point found.
 Normal termination of Gaussian 16 at Sun Feb 11 02:20:49 2024.

 ----------------------------------------------------------------------
 #P Geom=AllCheck Guess=TCheck SCRF=Check GenChk UB3LYP/6-311++G(d,p) F
 req
 ----------------------------------------------------------------------

 Structure from the checkpoint file:  "258-an.chk"
 -------
 Reduced
 -------
 Charge = -2 Multiplicity = 1

                          Input orientation:
 ---------------------------------------------------------------------
 Center     Atomic      Atomic             Coordinates (Angstroms)
 Number     Number       Type             X           Y           Z
 ---------------------------------------------------------------------
      1          6           0        3.336197   -0.923696   -0.094676
      2          8           0        1.948012   -1.162565    0.087149
      3          6           0        1.066307   -0.123595   -0.089897
      4          6           0        1.524527    1.131753   -0.462574
      5          6           0        0.617698    2.202395   -0.639534
      6          6           0       -0.723484    1.999935   -0.438827
      7          6           0       -1.238895    0.731161   -0.056862
      8          6           0       -2.676619    0.626535    0.131795
      9          8           0       -3.472841    1.658899   -0.034917
     10          6           0       -3.129583   -0.649618    0.501095
     11          6           0       -2.267051   -1.745593    0.676859
     12          6           0       -0.863417   -1.708011    0.511527
     13          8           0       -0.139701   -2.780765    0.694529
     14          6           0       -0.334202   -0.395575    0.127580
     15          1           0        3.829130   -1.873589    0.111441
     16          1           0        3.567005   -0.614641   -1.120424
     17          1           0        3.713763   -0.164608    0.599692
     18          1           0        2.579077    1.307362   -0.621081
     19          1           0        0.997090    3.176760   -0.932822
     20          1           0       -1.441390    2.801396   -0.564953
     21          1           0       -4.199600   -0.786814    0.653931
     22          1           0       -2.692022   -2.707125    0.960969
 ---------------------------------------------------------------------

 SCF Done:  E(UB3LYP) =  -650.056233131     A.U. after    1 cycles

 Alpha  occ. eigenvalues --  -19.13246 -19.00952 -19.00571 -10.21363 -10.20813
 Alpha  occ. eigenvalues --  -10.17016 -10.16339 -10.14795 -10.14489 -10.14273
 Alpha  occ. eigenvalues --  -10.13775 -10.13598 -10.11748 -10.11495  -1.04668
 Alpha  occ. eigenvalues --   -0.91744  -0.91342  -0.82114  -0.76091  -0.73401
 Alpha  occ. eigenvalues --   -0.70416  -0.67591  -0.63855  -0.58288  -0.57635
 Alpha  occ. eigenvalues --   -0.53338  -0.48871  -0.47142  -0.45678  -0.45446
 Alpha  occ. eigenvalues --   -0.43976  -0.41734  -0.40118  -0.38522  -0.37224
 Alpha  occ. eigenvalues --   -0.37184  -0.34718  -0.34645  -0.33149  -0.32288
 Alpha  occ. eigenvalues --   -0.31093  -0.30945  -0.30694  -0.29011  -0.21784
 Alpha  occ. eigenvalues --   -0.21424  -0.20373  -0.19048  -0.18199  -0.10958
 Alpha virt. eigenvalues --    0.00077   0.00435   0.01035   0.01111   0.01469
 Alpha virt. eigenvalues --    0.02927   0.03079   0.03833   0.04192   0.05212
 Alpha virt. eigenvalues --    0.06351   0.06467   0.07109   0.07267   0.08445

  Beta  occ. eigenvalues --  -19.13246 -19.00952 -19.00571 -10.21363 -10.20813
  Beta  occ. eigenvalues --  -10.17016 -10.16339 -10.14795 -10.14489 -10.14273
  Beta  occ. eigenvalues --  -10.13775 -10.13598 -10.11748 -10.11495  -1.04668
  Beta  occ. eigenvalues --   -0.91744  -0.91342  -0.82114  -0.76091  -0.73401
  Beta  occ. eigenvalues --   -0.70416  -0.67591  -0.63855  -0.58288  -0.57635
  Beta  occ. eigenvalues --   -0.53338  -0.48871  -0.47142  -0.45678  -0.45446
  Beta  occ. eigenvalues --   -0.43976  -0.41734  -0.40118  -0.38522  -0.37224
  Beta  occ. eigenvalues --   -0.37184  -0.34718  -0.34645  -0.33149  -0.32288
  Beta  occ. eigenvalues --   -0.31093  -0.30945  -0.30694  -0.29011  -0.21784
  Beta  occ. eigenvalues --   -0.21424  -0.20373  -0.19048  -0.18199  -0.10958
  Beta virt. eigenvalues --    0.00077   0.00435   0.01035   0.01111   0.01469
  Beta virt. eigenvalues --    0.02927   0.03079   0.03833   0.04192   0.05212
  Beta virt. eigenvalues --    0.06351   0.06467   0.07109   0.07267   0.08445

 Mulliken charges and spin densities:
               1          2
     1  C   -0.274274  -0.000000
     2  O   -0.166060   0.000000
     3  C    0.135430   0.000000
     4  C   -0.094267   0.000000
     5  C   -0.448534   0.000000
     6  C   -0.115290   0.000000
     7  C    0.126823  -0.000000
     8  C   -0.475789  -0.000000
     9  O   -0.743363   0.000000
    10  C   -0.117659  -0.000000
    11  C   -0.074078   0.000000
    12  C   -0.337228  -0.000000
    13  O   -0.734895   0.000000
    14  C    0.118470  -0.000000
    15  H    0.184661  -0.000000
    16  H    0.149844   0.000000
    17  H    0.149999   0.000000
    18  H    0.159325   0.000000
    19  H    0.167237  -0.000000
    20  H    0.139821  -0.000000
    21  H    0.125928  -0.000000
    22  H    0.123898  -0.000000
 Sum of Mulliken charges =  -2.00000   0.00000

 Dipole moment (field-independent basis, Debye):
    X=             17.2704    Y=              4.5001    Z=             -2.9039  Tot=             18.0818
 Quadrupole moment (field-independent basis, Debye-Ang):
   XX=           -135.3208   YY=           -135.2654   ZZ=            -94.8453
   XY=             19.3398   XZ=             -0.0578   YZ=              8.2775

  Exact polarizability: 328.550  10.738 301.324 -24.051 -43.190 148.284
 Approx polarizability: 359.992  11.808 344.457 -26.738 -51.382 161.519

                      1                      2                      3
                      A                      A                      A
 Frequencies --     56.7351                96.1224               116.7495
 Red. masses --      4.1555                 5.7301                 4.8880
 Frc consts  --      0.0079                 0.0312                 0.0393
 IR Inten    --      4.2072                22.9135                 0.0650

                      4                      5                      6
                      A                      A                      A
 Frequencies --    181.8850               204.5951               246.3477
 Red. masses --      3.8235                 4.7255                 2.1189
 Frc consts  --      0.0745                 0.1165                 0.0758
 IR Inten    --      2.0776                13.4646                 0.2560

                      7                      8                      9
                      A                      A                      A
 Frequencies --    297.0473               325.3516               337.3632
 Red. masses --      1.6036                 6.0299                 6.0349
 Frc consts  --      0.0834                 0.3761                 0.4047
 IR Inten    --      0.0739                 6.5237                 6.8073

                     10                     11                     12
                      A                      A                      A
 Frequencies --    356.5401               371.2348               463.7141
 Red. masses --      6.5964                 7.4899                10.7296
 Frc consts  --      0.4941                 0.6082                 1.3594
 IR Inten    --      0.1562                 3.3422                 1.7863

                     13                     14                     15
                      A                      A                      A
 Frequencies --    473.4061               514.9242               525.6130
 Red. masses --      3.8754                 6.1574                 7.3576
 Frc consts  --      0.5117                 0.9619                 1.1976
 IR Inten    --      0.1470                 0.0350                10.2702

                     16                     17                     18
                      A                      A                      A
 Frequencies --    532.4413               621.0340               644.0136
 Red. masses --      3.4773                 5.0748                 2.7371
 Frc consts  --      0.5808                 1.1532                 0.6689
 IR Inten    --      0.7052                 2.0702                 0.1925

                     19                     20                     21
                      A                      A                      A
 Frequencies --    661.0155               685.3950               743.6140
 Red. masses --      5.2259                 3.1994                 1.3846
 Frc consts  --      1.3453                 0.8855                 0.4511
 IR Inten    --     10.2455                 3.0090               139.6795

                     22                     23                     24
                      A                      A                      A
 Frequencies --    756.9535               790.0700               804.0324
 Red. masses --      6.7764                 5.4979                 2.6100
 Frc consts  --      2.2876                 2.0220                 0.9941
 IR Inten    --    226.9978                19.7756                 9.1600

                     25                     26                     27
                      A                      A                      A
 Frequencies --    811.2528               843.8302               876.4476
 Red. masses --      3.1984                 1.5273                 1.3828
 Frc consts  --      1.2402                 0.6407                 0.6258
 IR Inten    --     82.8664                 0.0351                 0.0140

                     28                     29                     30
                      A                      A                      A
 Frequencies --    891.6748               969.9424              1031.2007
 Red. masses --      6.3355                 1.2537                 3.8967
 Frc consts  --      2.9679                 0.6949                 2.4414
 IR Inten    --    155.5016                 3.4122               259.7119

                     31                     32                     33
                      A                      A                      A
 Frequencies --   1068.9363              1099.5001              1128.5505
 Red. masses --      5.2380                 1.9238                 1.7939
 Frc consts  --      3.5263                 1.3703                 1.3462
 IR Inten    --    248.5138               118.4428                63.1621

                     34                     35                     36
                      A                      A                      A
 Frequencies --   1156.2788              1161.1577              1168.3006
 Red. masses --      2.3428                 1.2804                 1.5902
 Frc consts  --      1.8455                 1.0171                 1.2788
 IR Inten    --    249.9090                 1.6641                59.2759

                     37                     38                     39
                      A                      A                      A
 Frequencies --   1194.5994              1219.4551              1238.2100
 Red. masses --      1.6083                 2.4539                 3.0677
 Frc consts  --      1.3523                 2.1500                 2.7711
 IR Inten    --     74.5963                43.5885               146.1244

                     40                     41                     42
                      A                      A                      A
 Frequencies --   1282.7153              1296.4056              1354.3814
 Red. masses --      3.4777                 2.8093                 7.1558
 Frc consts  --      3.3713                 2.7818                 7.7337
 IR Inten    --    988.7229               269.7919               278.8718

                     43                     44                     45
                      A                      A                      A
 Frequencies --   1358.8982              1402.9767              1441.1409
 Red. masses --      4.6223                 3.3420                 2.0188
 Frc consts  --      5.0290                 3.8757                 2.4703
 IR Inten    --   1145.6587                73.0585                32.8498

                     46                     47                     48
                      A                      A                      A
 Frequencies --   1471.8442              1480.6023              1496.0131
 Red. masses --      1.2659                 1.0466                 1.1483
 Frc consts  --      1.6158                 1.3517                 1.5142
 IR Inten    --     13.8283                 9.7468               159.5987

                     49                     50                     51
                      A                      A                      A
 Frequencies --   1514.7471              1528.8007              1591.8945
 Red. masses --      2.9769                 4.4048                 6.3846
 Frc consts  --      4.0244                 6.0656                 9.5326
 IR Inten    --    229.2270               534.6003                99.6895

                     52                     53                     54
                      A                      A                      A
 Frequencies --   1612.0498              2994.7332              3049.2786
 Red. masses --      5.6462                 1.0340                 1.1054
 Frc consts  --      8.6450                 5.4639                 6.0559
 IR Inten    --     11.9168               118.0114                75.6086

                     55                     56                     57
                      A                      A                      A
 Frequencies --   3092.7471              3114.0290              3116.9594
 Red. masses --      1.0842                 1.0991                 1.0917
 Frc consts  --      6.1100                 6.2796                 6.2493
 IR Inten    --    111.6025                43.4613               150.8171

                     58                     59                     60
                      A                      A                      A
 Frequencies --   3144.7685              3183.9336              3207.0660
 Red. masses --      1.0874                 1.0909                 1.0898
 Frc consts  --      6.3362                 6.5160                 6.6042
 IR Inten    --     39.6485                35.5146                23.7589

 - Thermochemistry -
 -------------------
 Temperature   298.150 Kelvin.  Pressure   1.00000 Atm.
 Atom     1 has atomic number  6 and mass  12.00000

 Molecular mass:   188.04734 amu.
 Principal axes and moments of inertia in atomic units:
                           1         2         3
     Eigenvalues --  1611.675582868.265854468.25907
           X            0.97434   0.20036   0.10253
           Y           -0.21985   0.94477   0.24304
           Z           -0.04817  -0.25935   0.96458
 This molecule is an asymmetric top.
 Rotational symmetry number  1.
 Warning -- assumption of classical behavior for rotation
           may cause significant error
 Rotational temperatures (Kelvin)      0.05374     0.03020     0.01938
 Rotational constants (GHZ):           1.11979     0.62921     0.40390
 Zero-point vibrational energy     421094.6 (Joules/Mol)
                                  100.64403 (Kcal/Mol)
 Warning -- explicit consideration of  16 degrees of freedom as
           vibrations may cause significant error
 Vibrational temperatures:     81.63   138.30   167.98   261.69   294.37
          (Kelvin)            354.44   427.38   468.11   485.39   512.98
                              534.12   667.18   681.13   740.86   756.24
                              766.06   893.53   926.59   951.05   986.13
                             1069.89  1089.09  1136.73  1156.82  1167.21
                             1214.08  1261.01  1282.92  1395.53  1483.67
                             1537.96  1581.94  1623.73  1663.63  1670.65
                             1680.92  1718.76  1754.52  1781.51  1845.54
                             1865.24  1948.65  1955.15  2018.57  2073.48
                             2117.66  2130.26  2152.43  2179.38  2199.60
                             2290.38  2319.38  4308.75  4387.23  4449.77
                             4480.39  4484.61  4524.62  4580.97  4614.25

 Zero-point correction=                           0.160386 (Hartree/Particle)
 Thermal correction to Energy=                    0.171597
 Thermal correction to Enthalpy=                  0.172541
 Thermal correction to Gibbs Free Energy=         0.123240
 Sum of electronic and zero-point Energies=           -649.895847
 Sum of electronic and thermal Energies=              -649.884636
 Sum of electronic and thermal Enthalpies=            -649.883692
 Sum of electronic and thermal Free Energies=         -649.932993

                     E (Thermal)             CV                S
                      KCal/Mol        Cal/Mol-Kelvin    Cal/Mol-Kelvin
 Total                  107.679             44.356            103.763
 Electronic               0.000              0.000              0.000
 Translational            0.889              2.981             41.600
 Rotational               0.889              2.981             31.402
 Vibrational            105.901             38.394             30.760
 Vibration     1          0.596              1.975              4.568
 Vibration     2          0.603              1.952              3.531
 Vibration     3          0.608              1.935              3.153
 Vibration     4          0.630              1.864              2.309
 Vibration     5          0.640              1.833              2.091
 Vibration     6          0.661              1.769              1.757
 Vibration     7          0.691              1.679              1.433
 Vibration     8          0.709              1.625              1.283
 Vibration     9          0.718              1.601              1.225
 Vibration    10          0.732              1.562              1.137
 Vibration    11          0.743              1.531              1.075
 Vibration    12          0.821              1.331              0.755
 Vibration    13          0.830              1.309              0.728
 Vibration    14          0.870              1.217              0.622
 Vibration    15          0.881              1.193              0.597
 Vibration    16          0.887              1.178              0.582

                           ! Non-Optimized Parameters !
 Normal termination of Gaussian 16 at Sun Feb 11 02:36:10 2024.
