 Q-Chem 5.4, Q-Chem, Inc., Pleasanton, CA (2021)
 Q-Chem 5.4.0 for Intel X86 EM64T Linux

User input:
--------------------------------------------------------------
$molecule
-1 2
O                  3.3906070000      2.7157570000      0.9626380000
C                  3.0429620000      1.5390320000      0.6935460000
C                  4.0212410000      0.4664940000      0.4916640000
C                  5.3977110000      0.7587410000      0.6031560000
C                  6.3562300000     -0.2184510000      0.4200320000
C                  5.9612490000     -1.5404660000      0.1145670000
C                  4.6212800000     -1.8508950000      0.0003800000
C                  3.6213060000     -0.8683070000      0.1832800000
C                  2.2152260000     -1.2474440000      0.0535750000
O                  1.8623980000     -2.4262350000     -0.2177590000
C                  1.2391150000     -0.1764350000      0.2584210000
C                 -0.1352650000     -0.4799900000      0.1346450000
C                 -1.1202970000      0.4803820000      0.3224330000
C                 -0.7080610000      1.8103690000      0.6239860000
C                  0.6287360000      2.1226630000      0.7357210000
C                  1.6387200000      1.1538970000      0.5614140000
N                 -2.5063310000      0.1918420000      0.2487170000
C                 -2.9237890000     -1.1913470000      0.0633520000
C                 -4.3480690000     -1.4168420000      0.6087140000
C                 -5.2754440000     -0.2083310000      0.3440700000
C                 -4.7215590000      0.6323560000     -0.8071140000
C                 -3.3392980000      1.1907490000     -0.4432310000
H                  5.6699110000      1.7815530000      0.8381070000
H                  7.4105330000      0.0265100000      0.5100590000
H                  6.7131570000     -2.3110650000     -0.0299590000
H                  4.2912820000     -2.8568210000     -0.2328160000
H                 -0.3662280000     -1.5039680000     -0.1252290000
H                 -1.4494340000      2.5831510000      0.7891570000
H                  0.9430530000      3.1329810000      0.9727270000
H                 -2.8632910000     -1.5030770000     -0.9945880000
H                 -2.2320340000     -1.8321890000      0.6075160000
H                 -4.2963410000     -1.6132500000      1.6834920000
H                 -4.7551280000     -2.3205660000      0.1408550000
H                 -6.2956310000     -0.5423960000      0.1288260000
H                 -5.3337830000      0.4196720000      1.2398290000
H                 -4.6572140000      0.0187420000     -1.7127220000
H                 -5.3868180000      1.4687790000     -1.0446050000
H                 -3.4787010000      2.0580690000      0.2124910000
H                 -2.8319970000      1.5563340000     -1.3494580000
$end

$rem
BASIS  =  6-311++G(d,p)
GUI  =  2
JOB_TYPE  =  SP
METHOD  =  B3LYP
SCF_CONVERGENCE  = 8
SOLVENT_METHOD = sm12
$end

$smx
solvent dimethylformamide
charges CM5
$end

--------------------------------------------------------------

             Standard Nuclear Orientation (Angstroms)
    I     Atom           X                Y                Z
 ----------------------------------------------------------------
    1      O       3.3906070000     2.7157570000     0.9626380000
    2      C       3.0429620000     1.5390320000     0.6935460000
    3      C       4.0212410000     0.4664940000     0.4916640000
    4      C       5.3977110000     0.7587410000     0.6031560000
    5      C       6.3562300000    -0.2184510000     0.4200320000
    6      C       5.9612490000    -1.5404660000     0.1145670000
    7      C       4.6212800000    -1.8508950000     0.0003800000
    8      C       3.6213060000    -0.8683070000     0.1832800000
    9      C       2.2152260000    -1.2474440000     0.0535750000
   10      O       1.8623980000    -2.4262350000    -0.2177590000
   11      C       1.2391150000    -0.1764350000     0.2584210000
   12      C      -0.1352650000    -0.4799900000     0.1346450000
   13      C      -1.1202970000     0.4803820000     0.3224330000
   14      C      -0.7080610000     1.8103690000     0.6239860000
   15      C       0.6287360000     2.1226630000     0.7357210000
   16      C       1.6387200000     1.1538970000     0.5614140000
   17      N      -2.5063310000     0.1918420000     0.2487170000
   18      C      -2.9237890000    -1.1913470000     0.0633520000
   19      C      -4.3480690000    -1.4168420000     0.6087140000
   20      C      -5.2754440000    -0.2083310000     0.3440700000
   21      C      -4.7215590000     0.6323560000    -0.8071140000
   22      C      -3.3392980000     1.1907490000    -0.4432310000
   23      H       5.6699110000     1.7815530000     0.8381070000
   24      H       7.4105330000     0.0265100000     0.5100590000
   25      H       6.7131570000    -2.3110650000    -0.0299590000
   26      H       4.2912820000    -2.8568210000    -0.2328160000
   27      H      -0.3662280000    -1.5039680000    -0.1252290000
   28      H      -1.4494340000     2.5831510000     0.7891570000
   29      H       0.9430530000     3.1329810000     0.9727270000
   30      H      -2.8632910000    -1.5030770000    -0.9945880000
   31      H      -2.2320340000    -1.8321890000     0.6075160000
   32      H      -4.2963410000    -1.6132500000     1.6834920000
   33      H      -4.7551280000    -2.3205660000     0.1408550000
   34      H      -6.2956310000    -0.5423960000     0.1288260000
   35      H      -5.3337830000     0.4196720000     1.2398290000
   36      H      -4.6572140000     0.0187420000    -1.7127220000
   37      H      -5.3868180000     1.4687790000    -1.0446050000
   38      H      -3.4787010000     2.0580690000     0.2124910000
   39      H      -2.8319970000     1.5563340000    -1.3494580000
 ----------------------------------------------------------------

   16    -939.7717845126      8.80e-09  Convergence criterion met
 Total energy in the final basis set =     -939.8706756127

                    Orbital Energies (a.u.)
 --------------------------------------------------------------

 Alpha MOs
 -- Occupied --
-19.0753 -19.0743 -14.3276 -10.2258 -10.2216 -10.2170 -10.2023 -10.1986
-10.1816 -10.1807 -10.1781 -10.1778 -10.1774 -10.1773 -10.1772 -10.1771
-10.1765 -10.1713 -10.1705 -10.1679 -10.1675 -10.1669  -1.0015  -0.9982
 -0.9486  -0.8639  -0.8537  -0.8062  -0.7817  -0.7639  -0.7569  -0.7498
 -0.7377  -0.6738  -0.6628  -0.6422  -0.6307  -0.6114  -0.5916  -0.5621
 -0.5529  -0.5366  -0.5300  -0.5007  -0.4968  -0.4782  -0.4719  -0.4630
 -0.4474  -0.4396  -0.4308  -0.4284  -0.4262  -0.4211  -0.4160  -0.4113
 -0.4084  -0.4006  -0.3899  -0.3839  -0.3788  -0.3708  -0.3662  -0.3577
 -0.3537  -0.3489  -0.3391  -0.3319  -0.3223  -0.3200  -0.2805  -0.2673
 -0.2634  -0.2577  -0.2448  -0.2361  -0.2096  -0.1417

 Beta MOs
 -- Occupied --
-19.0701 -19.0680 -14.3275 -10.2245 -10.2198 -10.2167 -10.2023 -10.1986
-10.1812 -10.1800 -10.1783 -10.1775 -10.1774 -10.1768 -10.1764 -10.1762
-10.1760 -10.1713 -10.1701 -10.1679 -10.1674 -10.1665  -0.9923  -0.9873
 -0.9482  -0.8613  -0.8526  -0.8051  -0.7788  -0.7634  -0.7547  -0.7482
 -0.7363  -0.6692  -0.6599  -0.6408  -0.6297  -0.6094  -0.5911  -0.5600
 -0.5518  -0.5354  -0.5291  -0.4998  -0.4959  -0.4773  -0.4695  -0.4618
 -0.4469  -0.4390  -0.4305  -0.4277  -0.4227  -0.4166  -0.4110  -0.4083
 -0.4050  -0.3983  -0.3878  -0.3830  -0.3689  -0.3659  -0.3568  -0.3559
 -0.3522  -0.3443  -0.3373  -0.3258  -0.3219  -0.3199  -0.2741  -0.2589
 -0.2501  -0.2477  -0.2395  -0.2307  -0.2046

          Ground-State Mulliken Net Atomic Charges

     Atom                 Charge (a.u.)    Spin (a.u.)
  --------------------------------------------------------
      1 O                    -0.290815       0.197190
      2 C                    -2.820705       0.059533
      3 C                    -1.351794       0.060822
      4 C                    -0.019050       0.012579
      5 C                     1.031380       0.061137
      6 C                     0.941716       0.029057
      7 C                    -0.039178       0.039585
      8 C                    -0.784680       0.038507
      9 C                    -1.994408       0.096350
     10 O                    -0.287345       0.235782
     11 C                     0.401025       0.051824
     12 C                     0.164785       0.051846
     13 C                     0.921272       0.013162
     14 C                     0.851892       0.031075
     15 C                     0.168617       0.020126
     16 C                    -2.403560       0.010135
     17 N                     0.364961       0.009904
     18 C                    -0.333518      -0.003588
     19 C                     0.481314       0.001670
     20 C                    -0.067207      -0.000899
     21 C                     0.530436      -0.001898
     22 C                     0.077552      -0.001045
     23 H                     0.154973      -0.000512
     24 H                     0.355524      -0.004384
     25 H                     0.359696      -0.002635
     26 H                     0.153674      -0.002562
     27 H                     0.054558      -0.002515
     28 H                     0.385253      -0.001796
     29 H                     0.207419      -0.001250
     30 H                     0.172208       0.001244
     31 H                     0.132238       0.000608
     32 H                     0.192818       0.000164
     33 H                     0.211669      -0.000125
     34 H                     0.284881       0.000025
     35 H                     0.082292      -0.000111
     36 H                     0.144745       0.000016
     37 H                     0.298247       0.000010
     38 H                     0.114901       0.000166
     39 H                     0.152213       0.000804
  --------------------------------------------------------
  Sum of atomic charges =    -1.000000

                    Cartesian Multipole Moments
 -----------------------------------------------------------------
    Charge (ESU x 10^10)
                -4.8032
    Dipole Moment (Debye)
         X     -15.5880      Y      -0.7799      Z      -2.4297
       Tot      15.7955
    Quadrupole Moments (Debye-Ang)
        XX    -169.2948     XY      -9.1262     YY    -160.7703
        XZ      -4.6803     YZ      -6.3228     ZZ    -140.4938

 Total job time:  1587.81s(wall), 12350.50s(cpu)
        *  Thank you very much for using Q-Chem.  Have a nice day.  *
