 Gaussian 16, Revision A.03,
 Gaussian 16:  ES64L-G16RevA.03 25-Dec-2016

 ----------------------------------------------------------------
 #P UB3LYP/6-311++G(d,p) SCRF=(PCM,Solvent=n,n-DiMethylFormamide)
 ----------------------------------------------------------------

 ------------------
 Radical PCM in DMF
 ------------------
 Symbolic Z-matrix:
 Charge = -1 Multiplicity = 2

                         Standard orientation:
 ---------------------------------------------------------------------
 Center     Atomic      Atomic             Coordinates (Angstroms)
 Number     Number       Type             X           Y           Z
 ---------------------------------------------------------------------
      1          6           0        4.640472    0.255179   -1.259127
      2          6           0        3.928578   -0.294752   -0.000279
      3          6           0        4.074684   -1.827278   -0.003177
      4          6           0        4.639787    0.250440    1.261061
      5          6           0        2.456878    0.153463    0.000127
      6          6           0        2.146550    1.541916    0.000799
      7          6           0        0.841399    1.983197    0.000773
      8          6           0       -0.242550    1.078781    0.000335
      9          6           0       -1.612457    1.590889   -0.000020
     10          8           0       -1.864435    2.822176   -0.000193
     11          6           0       -2.673175    0.580639   -0.000153
     12          6           0       -4.022624    0.997606   -0.000574
     13          6           0       -5.055730    0.081843   -0.000545
     14          6           0       -4.769544   -1.301710   -0.000074
     15          6           0       -3.458337   -1.733391    0.000259
     16          6           0       -2.384012   -0.815847    0.000173
     17          6           0       -1.010497   -1.323970    0.000313
     18          8           0       -0.756602   -2.555739    0.000499
     19          6           0        0.047746   -0.313047    0.000240
     20          6           0        1.397598   -0.736294    0.000027
     21          1           0        5.694110   -0.047944   -1.270056
     22          1           0        4.164771   -0.126400   -2.167006
     23          1           0        4.603912    1.346517   -1.299184
     24          1           0        3.613293   -2.277838    0.879268
     25          1           0        5.136085   -2.097710   -0.003861
     26          1           0        3.612940   -2.274532   -0.887137
     27          1           0        4.603035    1.341608    1.305215
     28          1           0        5.693445   -0.052626    1.271264
     29          1           0        4.163712   -0.134714    2.167220
     30          1           0        2.946429    2.276029    0.001278
     31          1           0        0.607709    3.041921    0.001081
     32          1           0       -4.212052    2.065002   -0.000885
     33          1           0       -6.087028    0.422588   -0.000880
     34          1           0       -5.581269   -2.023423    0.000021
     35          1           0       -3.209657   -2.788514    0.000548
     36          1           0        1.550265   -1.807450   -0.000285
 ---------------------------------------------------------------------

 SCF Done:  E(UB3LYP) =  -846.390834145     A.U. after   17 cycles

 The electronic state is 2-A.
 Alpha  occ. eigenvalues --  -19.07463 -19.07426 -10.22241 -10.22157 -10.18819
 Alpha  occ. eigenvalues --  -10.17774 -10.17214 -10.17166 -10.17146 -10.17102
 Alpha  occ. eigenvalues --  -10.16966 -10.16903 -10.16891 -10.16872 -10.16843
 Alpha  occ. eigenvalues --  -10.16744 -10.16338 -10.15570 -10.15570 -10.15374
 Alpha  occ. eigenvalues --   -1.00168  -0.99916  -0.86247  -0.85278  -0.81689
 Alpha  occ. eigenvalues --   -0.77591  -0.75001  -0.74569  -0.73151  -0.68512
 Alpha  occ. eigenvalues --   -0.68376  -0.66381  -0.63676  -0.61602  -0.58642
 Alpha  occ. eigenvalues --   -0.55943  -0.55351  -0.52877  -0.50865  -0.47373
 Alpha  occ. eigenvalues --   -0.46686  -0.45856  -0.45389  -0.43842  -0.42822
 Alpha  occ. eigenvalues --   -0.42684  -0.42192  -0.42025  -0.41577  -0.40974
 Alpha  occ. eigenvalues --   -0.40202  -0.39355  -0.38746  -0.37915  -0.37525
 Alpha  occ. eigenvalues --   -0.36454  -0.36134  -0.35928  -0.34833  -0.34006
 Alpha  occ. eigenvalues --   -0.33593  -0.32532  -0.32187  -0.31659  -0.26457
 Alpha  occ. eigenvalues --   -0.25707  -0.25287  -0.24542  -0.24199  -0.23563
 Alpha  occ. eigenvalues --   -0.14008
 Alpha virt. eigenvalues --   -0.05134  -0.01971  -0.00627  -0.00135   0.00140
 Alpha virt. eigenvalues --    0.01104   0.01641   0.02013   0.02070   0.03174
 Alpha virt. eigenvalues --    0.03291   0.03863   0.04046   0.04827   0.04953

  Beta  occ. eigenvalues --  -19.06923 -19.06873 -10.22064 -10.21972 -10.18822
  Beta  occ. eigenvalues --  -10.17725 -10.17165 -10.17116 -10.17067 -10.17022
  Beta  occ. eigenvalues --  -10.16901 -10.16890 -10.16886 -10.16834 -10.16781
  Beta  occ. eigenvalues --  -10.16732 -10.16329 -10.15568 -10.15567 -10.15373
  Beta  occ. eigenvalues --   -0.99215  -0.98934  -0.86029  -0.85140  -0.81572
  Beta  occ. eigenvalues --   -0.77258  -0.74755  -0.74410  -0.72982  -0.68475
  Beta  occ. eigenvalues --   -0.68369  -0.65665  -0.63511  -0.61365  -0.58573
  Beta  occ. eigenvalues --   -0.55834  -0.55104  -0.52702  -0.50712  -0.47135
  Beta  occ. eigenvalues --   -0.46567  -0.45749  -0.45272  -0.43795  -0.42763
  Beta  occ. eigenvalues --   -0.42635  -0.42153  -0.41358  -0.40774  -0.40500
  Beta  occ. eigenvalues --   -0.39991  -0.39245  -0.38592  -0.37510  -0.36427
  Beta  occ. eigenvalues --   -0.35851  -0.35830  -0.35556  -0.34756  -0.33509
  Beta  occ. eigenvalues --   -0.33474  -0.32121  -0.31788  -0.31618  -0.25294
  Beta  occ. eigenvalues --   -0.24511  -0.24382  -0.24040  -0.23606  -0.23061
  Beta virt. eigenvalues --   -0.08125  -0.04196  -0.00948  -0.00619   0.00095
  Beta virt. eigenvalues --    0.00144   0.01109   0.01653   0.02019   0.02067
  Beta virt. eigenvalues --    0.03177   0.03297   0.03866   0.04155   0.04940

 Mulliken charges and spin densities:
               1          2
     1  C   -0.680101  -0.000491
     2  C    0.579508   0.000772
     3  C   -0.523526  -0.000073
     4  C   -0.680482  -0.000490
     5  C    0.154203   0.025308
     6  C   -0.582214   0.036087
     7  C   -0.098448   0.024203
     8  C    0.235058   0.032262
     9  C   -0.748843   0.096418
    10  O   -0.458344   0.200141
    11  C    0.158622   0.035905
    12  C    0.098271   0.027772
    13  C   -0.475605   0.042683
    14  C   -0.493686   0.035292
    15  C    0.082309   0.026643
    16  C    0.403051   0.037253
    17  C   -0.618659   0.106311
    18  O   -0.459037   0.206213
    19  C    0.498236   0.056187
    20  C    0.061743   0.026499
    21  H    0.163272  -0.000165
    22  H    0.147191  -0.000086
    23  H    0.147621  -0.000354
    24  H    0.142122   0.000600
    25  H    0.171222  -0.000101
    26  H    0.142156   0.000604
    27  H    0.147855  -0.000353
    28  H    0.163259  -0.000161
    29  H    0.147168  -0.000088
    30  H    0.165505  -0.002682
    31  H    0.177275  -0.001574
    32  H    0.163532  -0.001291
    33  H    0.181651  -0.003375
    34  H    0.182112  -0.003124
    35  H    0.163153  -0.001724
    36  H    0.142850  -0.001023
 Sum of Mulliken charges =  -1.00000   1.00000

 Dipole moment (field-independent basis, Debye):
    X=              7.0470    Y=             -0.6939    Z=             -0.0007  Tot=              7.0811
 Quadrupole moment (field-independent basis, Debye-Ang):
   XX=           -125.1636   YY=           -154.9957   ZZ=           -126.7669
   XY=              8.4642   XZ=              0.0013   YZ=              0.0055

 Normal termination of Gaussian 16 at Sun Jan 14 01:15:18 2024.
