 Gaussian 16, Revision A.03,
 Gaussian 16:  ES64L-G16RevA.03 25-Dec-2016

 --------------------------------------
 #P UB3LYP/6-311++G(d,p) nosym opt freq
 --------------------------------------

 -------
 Reduced
 -------
 Symbolic Z-matrix:
 Charge = -2 Multiplicity = 1

 SCF Done:  E(UB3LYP) =  -10675.7207987     A.U. after   22 cycles
 SCF Done:  E(UB3LYP) =  -10675.7436864     A.U. after   17 cycles
 SCF Done:  E(UB3LYP) =  -10675.7481255     A.U. after   16 cycles
 SCF Done:  E(UB3LYP) =  -10675.7490456     A.U. after   14 cycles
 SCF Done:  E(UB3LYP) =  -10675.7491984     A.U. after   13 cycles
 SCF Done:  E(UB3LYP) =  -10675.7492165     A.U. after   13 cycles
 SCF Done:  E(UB3LYP) =  -10675.7492185     A.U. after   11 cycles
 Optimization completed.
    -- Stationary point found.
 Normal termination of Gaussian 16 at Sat Jan  6 02:00:16 2024.

 ----------------------------------------------------------------------
 #P Geom=AllCheck Guess=TCheck SCRF=Check GenChk UB3LYP/6-311++G(d,p) F
 req
 ----------------------------------------------------------------------

 Structure from the checkpoint file:  "318-an.chk"
 -------
 Reduced
 -------
 Charge = -2 Multiplicity = 1

                          Input orientation:
 ---------------------------------------------------------------------
 Center     Atomic      Atomic             Coordinates (Angstroms)
 Number     Number       Type             X           Y           Z
 ---------------------------------------------------------------------
      1         35           0       -2.362440    2.155633    0.818203
      2          6           0       -0.972897    0.886066    0.336713
      3          6           0       -1.266627   -0.501609    0.244266
      4         35           0       -3.075359   -1.156576    0.600458
      5          6           0       -0.330218   -1.520005   -0.099278
      6          8           0       -0.603692   -2.743517   -0.176886
      7          6           0        1.091282   -1.044617   -0.383545
      8          8           0        1.976056   -1.880682   -0.693386
      9          6           0        1.308776    0.359684   -0.271058
     10          6           0        0.318750    1.318185    0.078188
     11         35           0        0.771827    3.204106    0.191086
     12         35           0        3.144542    0.923332   -0.644760
 ---------------------------------------------------------------------

 SCF Done:  E(UB3LYP) =  -10675.7492185     A.U. after    1 cycles

 Alpha  occ. eigenvalues -- -482.59596-482.59595-482.57086-482.57085 -62.24877
 Alpha  occ. eigenvalues --  -62.24876 -62.22354 -62.22353 -56.06895 -56.06894
 Alpha  occ. eigenvalues --  -56.06542 -56.06541 -56.06516 -56.06515 -56.04360
 Alpha  occ. eigenvalues --  -56.04360 -56.04030 -56.04030 -56.03999 -56.03999
 Alpha  occ. eigenvalues --  -18.78034 -18.78032  -9.97559  -9.97503  -9.94829
 Alpha  occ. eigenvalues --   -9.94808  -9.94592  -9.94591  -8.45842  -8.45841
 Alpha  occ. eigenvalues --   -8.43305  -8.43304  -6.28924  -6.28923  -6.27744
 Alpha  occ. eigenvalues --   -6.27743  -6.27677  -6.27676  -6.26346  -6.26345
 Alpha  occ. eigenvalues --   -6.25241  -6.25240  -6.25150  -6.25149  -2.40028
 Alpha  occ. eigenvalues --   -2.40027  -2.39700  -2.39699  -2.39651  -2.39650
 Alpha  occ. eigenvalues --   -2.38711  -2.38710  -2.38710  -2.38709  -2.37457
 Alpha  occ. eigenvalues --   -2.37456  -2.37156  -2.37155  -2.37087  -2.37086
 Alpha  occ. eigenvalues --   -2.36206  -2.36206  -2.36205  -2.36205  -0.72024
 Alpha  occ. eigenvalues --   -0.69084  -0.61835  -0.56663  -0.54427  -0.53176
 Alpha  occ. eigenvalues --   -0.50830  -0.42476  -0.41724  -0.30066  -0.29994
 Alpha  occ. eigenvalues --   -0.22947  -0.20610  -0.16009  -0.15233  -0.14070
 Alpha  occ. eigenvalues --   -0.13227  -0.11128  -0.10506  -0.10158  -0.09284
 Alpha  occ. eigenvalues --   -0.07946  -0.06416  -0.05829  -0.05057  -0.03035
 Alpha  occ. eigenvalues --   -0.03021  -0.02711  -0.02126   0.03580   0.04922
 Alpha  occ. eigenvalues --    0.05925   0.10794
 Alpha virt. eigenvalues --    0.16276   0.18918   0.19913   0.20204   0.21435
 Alpha virt. eigenvalues --    0.22856   0.23682   0.23757   0.24382   0.24613
 Alpha virt. eigenvalues --    0.24656   0.24851   0.24926   0.25311   0.26931

  Beta  occ. eigenvalues -- -482.59596-482.59595-482.57086-482.57085 -62.24877
  Beta  occ. eigenvalues --  -62.24876 -62.22354 -62.22353 -56.06895 -56.06894
  Beta  occ. eigenvalues --  -56.06542 -56.06541 -56.06516 -56.06515 -56.04360
  Beta  occ. eigenvalues --  -56.04360 -56.04030 -56.04030 -56.03999 -56.03999
  Beta  occ. eigenvalues --  -18.78034 -18.78032  -9.97559  -9.97503  -9.94829
  Beta  occ. eigenvalues --   -9.94808  -9.94592  -9.94591  -8.45842  -8.45841
  Beta  occ. eigenvalues --   -8.43305  -8.43304  -6.28924  -6.28923  -6.27744
  Beta  occ. eigenvalues --   -6.27743  -6.27677  -6.27676  -6.26346  -6.26345
  Beta  occ. eigenvalues --   -6.25241  -6.25240  -6.25150  -6.25149  -2.40028
  Beta  occ. eigenvalues --   -2.40027  -2.39700  -2.39699  -2.39651  -2.39650
  Beta  occ. eigenvalues --   -2.38711  -2.38710  -2.38710  -2.38709  -2.37457
  Beta  occ. eigenvalues --   -2.37456  -2.37156  -2.37155  -2.37087  -2.37086
  Beta  occ. eigenvalues --   -2.36206  -2.36206  -2.36205  -2.36205  -0.72024
  Beta  occ. eigenvalues --   -0.69084  -0.61835  -0.56663  -0.54427  -0.53176
  Beta  occ. eigenvalues --   -0.50830  -0.42476  -0.41724  -0.30066  -0.29994
  Beta  occ. eigenvalues --   -0.22947  -0.20610  -0.16009  -0.15233  -0.14070
  Beta  occ. eigenvalues --   -0.13227  -0.11128  -0.10506  -0.10158  -0.09284
  Beta  occ. eigenvalues --   -0.07946  -0.06416  -0.05829  -0.05057  -0.03035
  Beta  occ. eigenvalues --   -0.03021  -0.02711  -0.02126   0.03580   0.04922
  Beta  occ. eigenvalues --    0.05925   0.10794
  Beta virt. eigenvalues --    0.16276   0.18918   0.19913   0.20204   0.21435
  Beta virt. eigenvalues --    0.22856   0.23682   0.23757   0.24382   0.24613
  Beta virt. eigenvalues --    0.24656   0.24851   0.24926   0.25311   0.26931

 Mulliken charges and spin densities:
               1          2
     1  Br  -0.327361   0.000000
     2  C   -0.440461  -0.000000
     3  C    0.861126   0.000000
     4  Br  -0.330958   0.000000
     5  C   -0.344392  -0.000000
     6  O   -0.417971   0.000000
     7  C   -0.344118   0.000000
     8  O   -0.417976  -0.000000
     9  C    0.860766   0.000000
    10  C   -0.440415   0.000000
    11  Br  -0.327321  -0.000000
    12  Br  -0.330919  -0.000000
 Sum of Mulliken charges =  -2.00000   0.00000

 Dipole moment (field-independent basis, Debye):
    X=             -1.4456    Y=              4.8683    Z=              0.9164  Tot=              5.1604
 Quadrupole moment (field-independent basis, Debye-Ang):
   XX=           -174.5900   YY=           -178.5458   ZZ=           -131.9032
   XY=             -0.6196   XZ=             10.9316   YZ=             -5.7032

  Exact polarizability: 256.539  14.405 231.176 -32.893  10.518 121.190
 Approx polarizability: 375.890   7.582 378.881 -48.054  22.504 185.573

 ******    2 imaginary frequencies (negative Signs) ******

                      1                      2                      3
                      A                      A                      A
 Frequencies --   -154.1629               -11.2648                83.9528
 Red. masses --     14.8051                49.9300                17.7703
 Frc consts  --      0.2073                 0.0037                 0.0738
 IR Inten    --      0.6572                 0.0000                 0.0000

                      4                      5                      6
                      A                      A                      A
 Frequencies --     99.4975               132.1466               132.7638
 Red. masses --     18.6400                68.5327                50.4397
 Frc consts  --      0.1087                 0.7051                 0.5238
 IR Inten    --      3.9148                 2.2419                 3.2604

                      7                      8                      9
                      A                      A                      A
 Frequencies --    143.4026               164.0326               184.1433
 Red. masses --     73.0301                13.6172                65.5861
 Frc consts  --      0.8848                 0.2159                 1.3103
 IR Inten    --      0.2702                 1.1726                 0.7923

                     10                     11                     12
                      A                      A                      A
 Frequencies --    201.3904               203.6956               234.6059
 Red. masses --     12.2711                69.2055                19.2477
 Frc consts  --      0.2932                 1.6918                 0.6242
 IR Inten    --      0.0000                 0.6325                 0.8260

                     13                     14                     15
                      A                      A                      A
 Frequencies --    253.7655               303.7944               375.3204
 Red. masses --     12.1337                19.3315                15.8067
 Frc consts  --      0.4604                 1.0512                 1.3119
 IR Inten    --      0.0001                 0.4944                 0.1997

                     16                     17                     18
                      A                      A                      A
 Frequencies --    405.6529               545.3845               560.5551
 Red. masses --     15.0685                12.3680                13.2566
 Frc consts  --      1.4609                 2.1675                 2.4542
 IR Inten    --      0.2740                 9.1154                94.9120

                     19                     20                     21
                      A                      A                      A
 Frequencies --    665.8568               696.3455               743.4183
 Red. masses --     12.5414                12.6660                12.2675
 Frc consts  --      3.2761                 3.6186                 3.9946
 IR Inten    --     45.5188                33.8321                 0.0000

                     22                     23                     24
                      A                      A                      A
 Frequencies --    839.4743               866.7629              1145.6739
 Red. masses --     12.7585                12.2489                12.0318
 Frc consts  --      5.2974                 5.4218                 9.3047
 IR Inten    --      0.0210                98.3834                 0.0544

                     25                     26                     27
                      A                      A                      A
 Frequencies --   1181.6858              1272.9680              1362.1291
 Red. masses --     12.2598                12.2005                12.1948
 Frc consts  --     10.0865                11.6483                13.3309
 IR Inten    --     13.7230                 0.2253                21.8801

                     28                     29                     30
                      A                      A                      A
 Frequencies --   1450.6623              1523.3400              1562.6733
 Red. masses --     12.0636                12.8449                12.9392
 Frc consts  --     14.9575                17.5620                18.6164
 IR Inten    --     76.7528               172.2074              1125.9976

 - Thermochemistry -
 -------------------
 Temperature   298.150 Kelvin.  Pressure   1.00000 Atm.
 Atom     1 has atomic number 35 and mass  78.91834

 Molecular mass:   419.66317 amu.
 Principal axes and moments of inertia in atomic units:
                           1         2         3
     Eigenvalues --  4511.267348347.80913**********
           X            0.93174  -0.27991   0.23131
           Y            0.31155   0.94345  -0.11331
           Z           -0.18652   0.17764   0.96626
 This molecule is an asymmetric top.
 Rotational symmetry number  1.
 Warning -- assumption of classical behavior for rotation
           may cause significant error
 Rotational temperatures (Kelvin)      0.01920     0.01038     0.00674
 Rotational constants (GHZ):           0.40005     0.21619     0.14035
    2 imaginary frequencies ignored.
 Zero-point vibrational energy     103686.9 (Joules/Mol)
                                   24.78176 (Kcal/Mol)
 Warning -- explicit consideration of  16 degrees of freedom as
           vibrations may cause significant error
 Vibrational temperatures:    120.79   143.15   190.13   191.02   206.32
          (Kelvin)            236.01   264.94   289.76   293.07   337.55
                              365.11   437.09   540.00   583.64   784.69
                              806.51   958.02  1001.89  1069.61  1207.82
                             1247.08  1648.37  1700.18  1831.52  1959.80
                             2087.18  2191.75  2248.34

 Zero-point correction=                           0.039492 (Hartree/Particle)
 Thermal correction to Energy=                    0.051108
 Thermal correction to Enthalpy=                  0.052052
 Thermal correction to Gibbs Free Energy=        -0.001559
 Sum of electronic and zero-point Energies=         -10675.709726
 Sum of electronic and thermal Energies=            -10675.698110
 Sum of electronic and thermal Enthalpies=          -10675.697166
 Sum of electronic and thermal Free Energies=       -10675.750777

                     E (Thermal)             CV                S
                      KCal/Mol        Cal/Mol-Kelvin    Cal/Mol-Kelvin
 Total                   32.071             38.077            112.835
 Electronic               0.000              0.000              0.000
 Translational            0.889              2.981             43.993
 Rotational               0.889              2.981             34.537
 Vibrational             30.293             32.116             34.305
 Vibration     1          0.601              1.960              3.796
 Vibration     2          0.604              1.949              3.464
 Vibration     3          0.612              1.921              2.915
 Vibration     4          0.613              1.921              2.906
 Vibration     5          0.616              1.910              2.758
 Vibration     6          0.623              1.887              2.503
 Vibration     7          0.631              1.861              2.286
 Vibration     8          0.638              1.838              2.120
 Vibration     9          0.639              1.835              2.099
 Vibration    10          0.654              1.788              1.843
 Vibration    11          0.665              1.756              1.704
 Vibration    12          0.695              1.667              1.396
 Vibration    13          0.746              1.523              1.058
 Vibration    14          0.771              1.458              0.942
 Vibration    15          0.901              1.150              0.554
 Vibration    16          0.916              1.117              0.523

                           ! Non-Optimized Parameters !
 Normal termination of Gaussian 16 at Sat Jan  6 02:26:27 2024.
