 Q-Chem 5.4, Q-Chem, Inc., Pleasanton, CA (2021)
 Q-Chem 5.4.0 for Intel X86 EM64T Linux

User input:
--------------------------------------------------------------
$molecule
-1 2
C                 -2.5849110000     -0.6663070000     -0.2172430000
C                 -1.2439050000     -0.0059420000     -0.0324400000
C                 -1.1269060000      1.3267160000      0.2752490000
C                  0.1478940000      1.9875720000      0.4583360000
O                  0.2394810000      3.2186830000      0.7419370000
C                  1.3105360000      1.1411030000      0.2937610000
C                  1.2290190000     -0.1942830000     -0.0135740000
C                  2.4571730000     -1.0503870000     -0.1785630000
C                 -0.0627320000     -0.8431210000     -0.1942090000
O                 -0.1544200000     -2.0756240000     -0.4783910000
H                 -2.7145890000     -1.4961300000      0.4862810000
H                 -3.3987670000      0.0505610000     -0.0734570000
H                 -2.6719470000     -1.1059580000     -1.2170050000
H                 -2.0128730000      1.9468370000      0.3947800000
H                  2.2782950000      1.6200250000      0.4273870000
H                  3.3679380000     -0.4647100000     -0.0223240000
H                  2.4914320000     -1.5000930000     -1.1770500000
H                  2.4492810000     -1.8889430000      0.5265250000
$end
$rem
MAX_SCF_CYCLES=200
BASIS  =  6-311++G(d,p)
GUI  =  2
JOB_TYPE  =  SP
METHOD  =  B3LYP
SOLVENT_METHOD = COSMO
$end
$solvent
dielectric 37.219
opticaldielectric 1.43
$end

--------------------------------------------------------------

             Standard Nuclear Orientation (Angstroms)
    I     Atom           X                Y                Z
 ----------------------------------------------------------------
    1      C       1.1186347545    -2.5284407796    -0.0001121783
    2      C       0.3384699964    -1.2400797696     0.0000669521
    3      C      -1.0341265892    -1.2222684408     0.0001049971
    4      C      -1.8095973142     0.0000292712     0.0001202059
    5      O      -3.0762669494     0.0000297926    -0.0000676333
    6      C      -1.0341080456     1.2223007150    -0.0000548985
    7      C       0.3384951626     1.2400777581    -0.0000071045
    8      C       1.1187047823     2.5283986129    -0.0000395277
    9      C       1.1029618950    -0.0000153845     0.0001034832
   10      O       2.3711218767    -0.0000153463     0.0000377615
   11      H       1.7768938318    -2.5893535732     0.8735887043
   12      H       0.4485438463    -3.3932608956     0.0001595160
   13      H       1.7762081340    -2.5894739612    -0.8743344184
   14      H      -1.5995418263    -2.1518279318     0.0000595973
   15      H      -1.5994774375     2.1518904644    -0.0001979698
   16      H       0.4486353348     3.3932267708    -0.0005410119
   17      H       1.7769951211     2.5890799420    -0.8737426013
   18      H       1.7762957271     2.5895917181     0.8741555820
 ----------------------------------------------------------------

   10    -460.2987053048      8.56e-06  Convergence criterion met
 Total energy in the final basis set =     -460.2987053048
    4    -460.3875228041      8.38e-06  Convergence criterion met
 Total energy in the final basis set =     -460.3875228041

                    Orbital Energies (a.u.)
 --------------------------------------------------------------

 Alpha MOs
 -- Occupied --
-19.0790 -19.0775 -10.2184 -10.2154 -10.1712 -10.1711 -10.1556 -10.1556
-10.1547 -10.1547  -0.9992  -0.9967  -0.8258  -0.7759  -0.7146  -0.6729
 -0.6557  -0.5668  -0.5518  -0.4837  -0.4633  -0.4295  -0.4280  -0.4025
 -0.4009  -0.3967  -0.3964  -0.3853  -0.3721  -0.3603  -0.3565  -0.3463
 -0.2778  -0.2458  -0.2443  -0.2378  -0.1614

 Beta MOs
 -- Occupied --
-19.0724 -19.0707 -10.2169 -10.2135 -10.1700 -10.1700 -10.1548 -10.1548
-10.1546 -10.1546  -0.9874  -0.9846  -0.8199  -0.7738  -0.7103  -0.6710
 -0.6472  -0.5632  -0.5475  -0.4817  -0.4587  -0.4230  -0.4197  -0.4012
 -0.3986  -0.3959  -0.3925  -0.3710  -0.3657  -0.3538  -0.3442  -0.3363
 -0.2469  -0.2395  -0.2368  -0.2319

          Ground-State Mulliken Net Atomic Charges

     Atom                 Charge (a.u.)    Spin (a.u.)
  --------------------------------------------------------
      1 C                    -0.412267       0.005222
      2 C                     1.261207       0.094414
      3 C                    -0.592069       0.051238
      4 C                    -0.252081       0.155840
      5 O                    -0.562627       0.224329
      6 C                    -0.592629       0.051134
      7 C                     1.261129       0.094537
      8 C                    -0.412647       0.005213
      9 C                    -1.520157       0.066417
     10 O                    -0.508200       0.248960
     11 H                     0.171578       0.004469
     12 H                     0.153574      -0.000399
     13 H                     0.171729       0.004473
     14 H                     0.168277      -0.007202
     15 H                     0.168334      -0.007198
     16 H                     0.153530      -0.000399
     17 H                     0.171617       0.004472
     18 H                     0.171702       0.004480
  --------------------------------------------------------
  Sum of atomic charges =    -1.000000

                    Cartesian Multipole Moments
 -----------------------------------------------------------------
    Charge (ESU x 10^10)
                -4.8032
    Dipole Moment (Debye)
         X       2.9122      Y      -0.0003      Z       0.0005
       Tot       2.9122
    Quadrupole Moments (Debye-Ang)
        XX    -107.0923     XY       0.0041     YY     -58.2180
        XZ      -0.0020     YZ      -0.0016     ZZ     -63.3777

 Total job time:  24.46s(wall), 174.12s(cpu)
        *  Thank you very much for using Q-Chem.  Have a nice day.  *
