 Q-Chem 5.4, Q-Chem, Inc., Pleasanton, CA (2021)
 Q-Chem 5.4.0 for Intel X86 EM64T Linux

User input:
--------------------------------------------------------------
$molecule
-1 2
O                  2.5336070000      2.5318580000     -0.2141630000
C                  2.4573460000      1.2052840000      0.0178880000
C                  3.6223960000      0.4871020000      0.2587600000
C                  3.5578610000     -0.8949540000      0.5018210000
C                  2.3456430000     -1.5608600000      0.5060050000
C                  1.1468540000     -0.8609230000      0.2651440000
C                 -0.1238700000     -1.5941180000      0.2756480000
O                 -0.1752760000     -2.8276300000      0.4931700000
C                 -1.3335400000     -0.8070520000      0.0179110000
C                 -2.5896180000     -1.4500410000      0.0133190000
C                 -3.7533700000     -0.7459360000     -0.2249950000
C                 -3.6978800000      0.6443160000     -0.4700600000
C                 -2.4818230000      1.2964260000     -0.4710390000
C                 -1.2784120000      0.5949090000     -0.2293700000
C                 -0.0144350000      1.3091600000     -0.2370850000
O                  0.0319960000      2.5707480000     -0.4601520000
C                  1.1881710000      0.5437220000      0.0158820000
H                  1.5769830000      2.8238720000     -0.3582610000
H                  4.5680790000      1.0176470000      0.2534490000
H                  4.4771080000     -1.4428980000      0.6885300000
H                  2.2800470000     -2.6255760000      0.6917490000
H                 -2.6022330000     -2.5169650000      0.2042200000
H                 -4.7107450000     -1.2583960000     -0.2244620000
H                 -4.6128050000      1.1984660000     -0.6575440000
H                 -2.4120820000      2.3618380000     -0.6563640000
$end

$rem
BASIS  =  6-311++G(d,p)
GUI  =  2
JOB_TYPE  =  SP
METHOD  =  B3LYP
SCF_CONVERGENCE  = 8
SOLVENT_METHOD = sm12
$end

$smx
solvent dimethylformamide
charges CM5
$end

--------------------------------------------------------------

             Standard Nuclear Orientation (Angstroms)
    I     Atom           X                Y                Z
 ----------------------------------------------------------------
    1      O       2.5336070000     2.5318580000    -0.2141630000
    2      C       2.4573460000     1.2052840000     0.0178880000
    3      C       3.6223960000     0.4871020000     0.2587600000
    4      C       3.5578610000    -0.8949540000     0.5018210000
    5      C       2.3456430000    -1.5608600000     0.5060050000
    6      C       1.1468540000    -0.8609230000     0.2651440000
    7      C      -0.1238700000    -1.5941180000     0.2756480000
    8      O      -0.1752760000    -2.8276300000     0.4931700000
    9      C      -1.3335400000    -0.8070520000     0.0179110000
   10      C      -2.5896180000    -1.4500410000     0.0133190000
   11      C      -3.7533700000    -0.7459360000    -0.2249950000
   12      C      -3.6978800000     0.6443160000    -0.4700600000
   13      C      -2.4818230000     1.2964260000    -0.4710390000
   14      C      -1.2784120000     0.5949090000    -0.2293700000
   15      C      -0.0144350000     1.3091600000    -0.2370850000
   16      O       0.0319960000     2.5707480000    -0.4601520000
   17      C       1.1881710000     0.5437220000     0.0158820000
   18      H       1.5769830000     2.8238720000    -0.3582610000
   19      H       4.5680790000     1.0176470000     0.2534490000
   20      H       4.4771080000    -1.4428980000     0.6885300000
   21      H       2.2800470000    -2.6255760000     0.6917490000
   22      H      -2.6022330000    -2.5169650000     0.2042200000
   23      H      -4.7107450000    -1.2583960000    -0.2244620000
   24      H      -4.6128050000     1.1984660000    -0.6575440000
   25      H      -2.4120820000     2.3618380000    -0.6563640000
 ----------------------------------------------------------------

   18    -764.2831689610      8.09e-09  Convergence criterion met
 Total energy in the final basis set =     -764.3702331250

                    Orbital Energies (a.u.)
 --------------------------------------------------------------

 Alpha MOs
 -- Occupied --
-19.1348 -19.0954 -19.0826 -10.2432 -10.2387 -10.2325 -10.1851 -10.1851
-10.1847 -10.1845 -10.1842 -10.1839 -10.1837 -10.1819 -10.1811 -10.1747
-10.1721  -1.0591  -1.0105  -1.0086  -0.8707  -0.8571  -0.7967  -0.7624
 -0.7513  -0.7476  -0.6790  -0.6481  -0.6360  -0.5972  -0.5773  -0.5454
 -0.5357  -0.5142  -0.4848  -0.4766  -0.4686  -0.4545  -0.4401  -0.4356
 -0.4267  -0.4238  -0.4131  -0.4037  -0.3958  -0.3872  -0.3794  -0.3640
 -0.3592  -0.3571  -0.3454  -0.3351  -0.2789  -0.2673  -0.2619  -0.2603
 -0.2447  -0.2361  -0.1515

 Beta MOs
 -- Occupied --
-19.1346 -19.0901 -19.0769 -10.2431 -10.2364 -10.2313 -10.1845 -10.1845
-10.1844 -10.1843 -10.1837 -10.1829 -10.1827 -10.1818 -10.1812 -10.1739
-10.1719  -1.0578  -1.0017  -0.9989  -0.8681  -0.8557  -0.7927  -0.7600
 -0.7493  -0.7457  -0.6719  -0.6464  -0.6336  -0.5962  -0.5754  -0.5429
 -0.5344  -0.5128  -0.4820  -0.4754  -0.4674  -0.4535  -0.4352  -0.4307
 -0.4247  -0.4206  -0.4092  -0.3967  -0.3942  -0.3784  -0.3675  -0.3632
 -0.3560  -0.3502  -0.3438  -0.3258  -0.2608  -0.2582  -0.2575  -0.2552
 -0.2395  -0.2280

          Ground-State Mulliken Net Atomic Charges

     Atom                 Charge (a.u.)    Spin (a.u.)
  --------------------------------------------------------
      1 O                    -0.296464       0.008150
      2 C                    -0.396036       0.030226
      3 C                     0.761122       0.054392
      4 C                     0.784773       0.046631
      5 C                    -0.262580       0.041508
      6 C                    -0.610411       0.067500
      7 C                    -1.512100       0.061461
      8 O                    -0.301307       0.214844
      9 C                    -1.212160       0.046785
     10 C                     0.260830       0.016228
     11 C                     1.009770       0.050585
     12 C                     0.948548       0.024704
     13 C                     0.408134       0.046601
     14 C                    -0.580908       0.007632
     15 C                    -1.238607       0.129221
     16 O                    -0.331530       0.192889
     17 C                    -0.647913      -0.016167
     18 H                     0.341164      -0.004010
     19 H                     0.271924      -0.004705
     20 H                     0.369728      -0.003444
     21 H                     0.146626      -0.002604
     22 H                     0.166572      -0.001053
     23 H                     0.361435      -0.003728
     24 H                     0.365540      -0.002211
     25 H                     0.193848      -0.001434
  --------------------------------------------------------
  Sum of atomic charges =    -1.000000

                    Cartesian Multipole Moments
 -----------------------------------------------------------------
    Charge (ESU x 10^10)
                -4.8032
    Dipole Moment (Debye)
         X      -2.3968      Y      -0.0655      Z      -0.2176
       Tot       2.4076
    Quadrupole Moments (Debye-Ang)
        XX    -107.9284     XY      -7.3400     YY    -132.5287
        XZ       1.0859     YZ       4.1645     ZZ    -106.1748

 Total job time:  617.77s(wall), 4629.32s(cpu)
        *  Thank you very much for using Q-Chem.  Have a nice day.  *
