 Gaussian 16, Revision A.03,
 Gaussian 16:  ES64L-G16RevA.03 25-Dec-2016

 ----------------------------------------------------------------------
 #P UB3LYP/6-311++G(d,p) nosym opt freq SCRF=(PCM,Solvent=n,n-DiMethylF
 ormamide)
 ----------------------------------------------------------------------

 -------
 Reduced
 -------
 Symbolic Z-matrix:
 Charge = -2 Multiplicity = 1

 SCF Done:  E(UB3LYP) =  -652.488351417     A.U. after   19 cycles
 SCF Done:  E(UB3LYP) =  -652.489770591     A.U. after   14 cycles
 SCF Done:  E(UB3LYP) =  -652.488275370     A.U. after   14 cycles
 SCF Done:  E(UB3LYP) =  -652.489998539     A.U. after   14 cycles
 SCF Done:  E(UB3LYP) =  -652.490140060     A.U. after   14 cycles
 SCF Done:  E(UB3LYP) =  -652.490176125     A.U. after   14 cycles
 SCF Done:  E(UB3LYP) =  -652.490180132     A.U. after   13 cycles
 SCF Done:  E(UB3LYP) =  -652.490207324     A.U. after   12 cycles
 SCF Done:  E(UB3LYP) =  -652.490208746     A.U. after   12 cycles
 SCF Done:  E(UB3LYP) =  -652.490209229     A.U. after   12 cycles
 Optimization completed.
    -- Stationary point found.
 Normal termination of Gaussian 16 at Sat Feb 10 12:26:37 2024.

 ----------------------------------------------------------------------
 #P Geom=AllCheck Guess=TCheck SCRF=Check GenChk UB3LYP/6-311++G(d,p) F
 req
 ----------------------------------------------------------------------

 Structure from the checkpoint file:  "061-an.chk"
 -------
 Reduced
 -------
 Charge = -2 Multiplicity = 1

                          Input orientation:
 ---------------------------------------------------------------------
 Center     Atomic      Atomic             Coordinates (Angstroms)
 Number     Number       Type             X           Y           Z
 ---------------------------------------------------------------------
      1          6           0       -0.528425    0.122930    2.125968
      2          6           0       -0.533411   -0.971345    1.203915
      3          6           0        0.163616   -0.947497    0.006510
      4          6           0        0.977898    0.151664   -0.427353
      5          6           0        0.984648    1.274451    0.487182
      6          6           0        0.235128    1.227751    1.695697
      7          8           0       -1.178970    0.083546    3.270393
      8          8           0        1.588416    0.110349   -1.571955
      9          1           0       -1.115309   -1.853851    1.468161
     10          1           0        0.118881   -1.808467   -0.658496
     11          6           0        1.798574    2.470052    0.180229
     12          6           0        1.237192    3.924215    0.364788
     13          6           0       -0.293437    4.014605    0.213764
     14          6           0        1.672452    4.462085    1.748797
     15          6           0        1.874558    4.822406   -0.716932
     16          8           0        2.953538    2.371306   -0.243216
     17          1           0       -0.614848    3.616115   -0.753372
     18          1           0       -0.604552    5.063534    0.262214
     19          1           0       -0.823559    3.466172    0.991321
     20          1           0        1.212946    3.912713    2.572683
     21          1           0        1.380671    5.513239    1.845820
     22          1           0        2.758324    4.401889    1.863186
     23          1           0        1.609852    4.480098   -1.721912
     24          1           0        2.961930    4.829158   -0.639594
     25          1           0        1.510377    5.848001   -0.602426
     26          1           0        0.279129    2.073501    2.373969
 ---------------------------------------------------------------------

 SCF Done:  E(UB3LYP) =  -652.490209229     A.U. after    1 cycles

 Alpha  occ. eigenvalues --  -19.08224 -19.01683 -19.01123 -10.23047 -10.17926
 Alpha  occ. eigenvalues --  -10.17657 -10.16705 -10.15281 -10.14603 -10.14558
 Alpha  occ. eigenvalues --  -10.13314 -10.13098 -10.12676 -10.12278  -1.01082
 Alpha  occ. eigenvalues --   -0.92812  -0.91479  -0.80428  -0.78067  -0.71577
 Alpha  occ. eigenvalues --   -0.67922  -0.67189  -0.65297  -0.60873  -0.56755
 Alpha  occ. eigenvalues --   -0.53655  -0.48166  -0.46069  -0.43667  -0.43453
 Alpha  occ. eigenvalues --   -0.42683  -0.42077  -0.41377  -0.39316  -0.38201
 Alpha  occ. eigenvalues --   -0.37096  -0.36124  -0.35834  -0.35536  -0.34952
 Alpha  occ. eigenvalues --   -0.34193  -0.33255  -0.32181  -0.31549  -0.31023
 Alpha  occ. eigenvalues --   -0.30650  -0.23263  -0.22312  -0.21771  -0.19291
 Alpha  occ. eigenvalues --   -0.18925  -0.12236
 Alpha virt. eigenvalues --   -0.02194  -0.00002   0.01120   0.01736   0.02184
 Alpha virt. eigenvalues --    0.03031   0.03088   0.03673   0.04526   0.04661
 Alpha virt. eigenvalues --    0.04969   0.05687   0.05922   0.07030   0.07269

  Beta  occ. eigenvalues --  -19.08224 -19.01683 -19.01123 -10.23047 -10.17926
  Beta  occ. eigenvalues --  -10.17657 -10.16705 -10.15281 -10.14603 -10.14558
  Beta  occ. eigenvalues --  -10.13314 -10.13098 -10.12676 -10.12278  -1.01082
  Beta  occ. eigenvalues --   -0.92812  -0.91479  -0.80428  -0.78067  -0.71577
  Beta  occ. eigenvalues --   -0.67922  -0.67189  -0.65297  -0.60873  -0.56755
  Beta  occ. eigenvalues --   -0.53655  -0.48166  -0.46069  -0.43667  -0.43453
  Beta  occ. eigenvalues --   -0.42683  -0.42077  -0.41377  -0.39316  -0.38201
  Beta  occ. eigenvalues --   -0.37096  -0.36124  -0.35834  -0.35536  -0.34952
  Beta  occ. eigenvalues --   -0.34193  -0.33255  -0.32181  -0.31549  -0.31023
  Beta  occ. eigenvalues --   -0.30650  -0.23263  -0.22312  -0.21771  -0.19291
  Beta  occ. eigenvalues --   -0.18925  -0.12236
  Beta virt. eigenvalues --   -0.02194  -0.00002   0.01120   0.01736   0.02184
  Beta virt. eigenvalues --    0.03031   0.03088   0.03673   0.04526   0.04661
  Beta virt. eigenvalues --    0.04969   0.05687   0.05922   0.07030   0.07269

 Mulliken charges and spin densities:
               1          2
     1  C   -0.633519   0.000000
     2  C    0.065236   0.000000
     3  C    0.069302  -0.000000
     4  C   -0.651618  -0.000000
     5  C    1.773224  -0.000000
     6  C   -0.585753  -0.000000
     7  O   -0.752016   0.000000
     8  O   -0.679355   0.000000
     9  H    0.145810  -0.000000
    10  H    0.142003  -0.000000
    11  C   -1.183250   0.000000
    12  C    0.852620  -0.000000
    13  C   -0.655119   0.000000
    14  C   -0.489180   0.000000
    15  C   -0.579152   0.000000
    16  O   -0.315721  -0.000000
    17  H    0.144365   0.000000
    18  H    0.136846  -0.000000
    19  H    0.156884  -0.000000
    20  H    0.122131   0.000000
    21  H    0.159856   0.000000
    22  H    0.165962  -0.000000
    23  H    0.153435   0.000000
    24  H    0.166191  -0.000000
    25  H    0.139437  -0.000000
    26  H    0.131381  -0.000000
 Sum of Mulliken charges =  -2.00000   0.00000

 Dipole moment (field-independent basis, Debye):
    X=             -6.2801    Y=             -3.1303    Z=             -7.2248  Tot=             10.0716
 Quadrupole moment (field-independent basis, Debye-Ang):
   XX=           -126.8794   YY=            -96.3074   ZZ=           -146.8199
   XY=            -11.0034   XZ=             27.7962   YZ=              2.2664

  Exact polarizability: 210.370  45.828 274.895 -46.564  11.299 238.867
 Approx polarizability: 233.457  48.577 286.508 -53.614  18.195 263.249

                      1                      2                      3
                      A                      A                      A
 Frequencies --     50.8477                55.7592                90.7881
 Red. masses --      5.4846                 3.1030                 4.4530
 Frc consts  --      0.0084                 0.0057                 0.0216
 IR Inten    --      5.6214                 0.3461                 8.2296

                      4                      5                      6
                      A                      A                      A
 Frequencies --    135.7384               161.1234               195.7179
 Red. masses --      7.5564                 9.5666                 1.0928
 Frc consts  --      0.0820                 0.1463                 0.0247
 IR Inten    --     21.9104                 5.0373                 0.8570

                      7                      8                      9
                      A                      A                      A
 Frequencies --    225.9088               241.2841               258.1980
 Red. masses --      1.6923                 1.9112                 1.5250
 Frc consts  --      0.0509                 0.0656                 0.0599
 IR Inten    --      1.5158                 3.5077                 4.2074

                     10                     11                     12
                      A                      A                      A
 Frequencies --    280.4265               291.2748               337.9715
 Red. masses --      1.9568                 2.0796                 6.1385
 Frc consts  --      0.0907                 0.1040                 0.4131
 IR Inten    --      6.6691                 0.4248                18.4617

                     13                     14                     15
                      A                      A                      A
 Frequencies --    364.7790               371.3800               392.5479
 Red. masses --      2.8244                 4.0921                 2.4804
 Frc consts  --      0.2214                 0.3325                 0.2252
 IR Inten    --      6.3995                 0.9456                 1.1918

                     16                     17                     18
                      A                      A                      A
 Frequencies --    414.3651               433.2610               479.3897
 Red. masses --      7.1108                 3.1894                 9.7458
 Frc consts  --      0.7193                 0.3527                 1.3196
 IR Inten    --      6.6996                15.0538                 7.1238

                     19                     20                     21
                      A                      A                      A
 Frequencies --    498.3891               546.9316               588.1201
 Red. masses --      4.6079                 3.0369                 3.5196
 Frc consts  --      0.6744                 0.5352                 0.7173
 IR Inten    --      5.8345                 5.1175                 6.3622

                     22                     23                     24
                      A                      A                      A
 Frequencies --    592.8568               690.7795               726.2706
 Red. masses --      3.3215                 6.2685                 3.9582
 Frc consts  --      0.6878                 1.7624                 1.2301
 IR Inten    --     14.4182                19.7637                21.9993

                     25                     26                     27
                      A                      A                      A
 Frequencies --    770.4387               803.4555               816.3024
 Red. masses --      3.7422                 3.0924                 5.0923
 Frc consts  --      1.3087                 1.1762                 1.9992
 IR Inten    --     13.1002                 4.2735               162.3730

                     28                     29                     30
                      A                      A                      A
 Frequencies --    827.2344               848.3007               882.5411
 Red. masses --      2.1500                 1.8142                 4.4390
 Frc consts  --      0.8668                 0.7692                 2.0371
 IR Inten    --     39.7028                93.3616               129.8644

                     31                     32                     33
                      A                      A                      A
 Frequencies --    930.9455               934.0865               935.9979
 Red. masses --      1.8252                 1.3425                 1.6428
 Frc consts  --      0.9320                 0.6902                 0.8480
 IR Inten    --      0.5486                 5.3251                 2.4505

                     34                     35                     36
                      A                      A                      A
 Frequencies --    959.3980               970.2390              1036.0792
 Red. masses --      1.2067                 2.7409                 1.4511
 Frc consts  --      0.6544                 1.5202                 0.9178
 IR Inten    --      1.4569                99.3237                 3.2104

                     37                     38                     39
                      A                      A                      A
 Frequencies --   1043.7216              1107.8108              1143.8666
 Red. masses --      1.4464                 2.0660                 1.7773
 Frc consts  --      0.9284                 1.4939                 1.3701
 IR Inten    --     14.7499               125.8921               711.7109

                     40                     41                     42
                      A                      A                      A
 Frequencies --   1205.1214              1209.9297              1236.1380
 Red. masses --      2.9973                 2.6029                 2.9307
 Frc consts  --      2.5647                 2.2451                 2.6385
 IR Inten    --     83.1445                20.1011                25.1011

                     43                     44                     45
                      A                      A                      A
 Frequencies --   1248.6402              1257.8851              1306.0794
 Red. masses --      2.1475                 2.6113                 3.7860
 Frc consts  --      1.9727                 2.4344                 3.8052
 IR Inten    --    269.8396                99.8798               642.2136

                     46                     47                     48
                      A                      A                      A
 Frequencies --   1320.8265              1383.8646              1386.6982
 Red. masses --      4.9655                 1.2989                 2.3298
 Frc consts  --      5.1039                 1.4656                 2.6395
 IR Inten    --     99.7802                69.7239               285.2149

                     49                     50                     51
                      A                      A                      A
 Frequencies --   1390.8389              1416.1637              1441.5072
 Red. masses --      1.7292                 1.2427                 2.6098
 Frc consts  --      1.9708                 1.4684                 3.1952
 IR Inten    --    248.8967                27.6790               573.1707

                     52                     53                     54
                      A                      A                      A
 Frequencies --   1471.3187              1480.3067              1481.0782
 Red. masses --      1.0517                 1.0455                 1.0634
 Frc consts  --      1.3413                 1.3498                 1.3744
 IR Inten    --      3.6300                 0.2718                14.5691

                     55                     56                     57
                      A                      A                      A
 Frequencies --   1485.3597              1489.4890              1492.8185
 Red. masses --      3.5743                 1.0573                 1.0703
 Frc consts  --      4.6462                 1.3820                 1.4052
 IR Inten    --    410.5220                31.9014                40.5829

                     58                     59                     60
                      A                      A                      A
 Frequencies --   1508.9639              1599.7541              1637.1837
 Red. masses --      1.0606                 6.6683                 9.9155
 Frc consts  --      1.4228                10.0548                15.6589
 IR Inten    --     40.9018               463.6439               501.4959

                     61                     62                     63
                      A                      A                      A
 Frequencies --   3015.0256              3016.4017              3024.4301
 Red. masses --      1.0383                 1.0382                 1.0387
 Frc consts  --      5.5608                 5.5654                 5.5981
 IR Inten    --     61.2820                34.6210               108.5160

                     64                     65                     66
                      A                      A                      A
 Frequencies --   3069.6855              3075.1674              3078.5392
 Red. masses --      1.1009                 1.1003                 1.1008
 Frc consts  --      6.1118                 6.1303                 6.1467
 IR Inten    --     27.5304                33.8095               131.8793

                     67                     68                     69
                      A                      A                      A
 Frequencies --   3099.3501              3103.3948              3113.3290
 Red. masses --      1.1003                 1.0837                 1.0986
 Frc consts  --      6.2276                 6.1495                 6.2739
 IR Inten    --     50.4330                72.8184                43.7025

                     70                     71                     72
                      A                      A                      A
 Frequencies --   3120.5826              3127.2232              3159.7703
 Red. masses --      1.0964                 1.0924                 1.0856
 Frc consts  --      6.2906                 6.2942                 6.3861
 IR Inten    --     30.5587               133.6635                59.9790

 - Thermochemistry -
 -------------------
 Temperature   298.150 Kelvin.  Pressure   1.00000 Atm.
 Atom     1 has atomic number  6 and mass  12.00000

 Molecular mass:   192.07864 amu.
 Principal axes and moments of inertia in atomic units:
                           1         2         3
     Eigenvalues --  1719.463993474.416674577.48937
           X            0.39346  -0.44623   0.80379
           Y            0.88436   0.42259  -0.19830
           Z           -0.25118   0.78886   0.56090
 This molecule is an asymmetric top.
 Rotational symmetry number  1.
 Warning -- assumption of classical behavior for rotation
           may cause significant error
 Rotational temperatures (Kelvin)      0.05037     0.02493     0.01892
 Rotational constants (GHZ):           1.04960     0.51944     0.39426
 Zero-point vibrational energy     531664.7 (Joules/Mol)
                                  127.07091 (Kcal/Mol)
 Warning -- explicit consideration of  22 degrees of freedom as
           vibrations may cause significant error
 Vibrational temperatures:     73.16    80.22   130.62   195.30   231.82
          (Kelvin)            281.59   325.03   347.15   371.49   403.47
                              419.08   486.27   524.84   534.33   564.79
                              596.18   623.37   689.73   717.07   786.91
                              846.17   852.99   993.88  1044.94  1108.49
                             1155.99  1174.48  1190.21  1220.52  1269.78
                             1339.42  1343.94  1346.69  1380.36  1395.96
                             1490.69  1501.68  1593.89  1645.77  1733.90
                             1740.82  1778.53  1796.51  1809.82  1879.16
                             1900.37  1991.07  1995.15  2001.11  2037.54
                             2074.01  2116.90  2129.83  2130.94  2137.10
                             2143.04  2147.83  2171.06  2301.69  2355.54
                             4337.95  4339.93  4351.48  4416.59  4424.48
                             4429.33  4459.27  4465.09  4479.39  4489.82
                             4499.38  4546.20

 Zero-point correction=                           0.202500 (Hartree/Particle)
 Thermal correction to Energy=                    0.216071
 Thermal correction to Enthalpy=                  0.217015
 Thermal correction to Gibbs Free Energy=         0.162689
 Sum of electronic and zero-point Energies=           -652.287709
 Sum of electronic and thermal Energies=              -652.274139
 Sum of electronic and thermal Enthalpies=            -652.273195
 Sum of electronic and thermal Free Energies=         -652.327520

                     E (Thermal)             CV                S
                      KCal/Mol        Cal/Mol-Kelvin    Cal/Mol-Kelvin
 Total                  135.586             52.126            114.337
 Electronic               0.000              0.000              0.000
 Translational            0.889              2.981             41.664
 Rotational               0.889              2.981             31.681
 Vibrational            133.809             46.164             40.992
 Vibration     1          0.595              1.977              4.784
 Vibration     2          0.596              1.975              4.602
 Vibration     3          0.602              1.956              3.643
 Vibration     4          0.614              1.918              2.863
 Vibration     5          0.622              1.890              2.537
 Vibration     6          0.636              1.846              2.173
 Vibration     7          0.650              1.802              1.911
 Vibration     8          0.658              1.777              1.793
 Vibration     9          0.667              1.749              1.674
 Vibration    10          0.680              1.710              1.531
 Vibration    11          0.687              1.690              1.467
 Vibration    12          0.718              1.600              1.222
 Vibration    13          0.738              1.545              1.102
 Vibration    14          0.743              1.531              1.074
 Vibration    15          0.760              1.486              0.990
 Vibration    16          0.778              1.439              0.911
 Vibration    17          0.794              1.398              0.848
 Vibration    18          0.836              1.296              0.712
 Vibration    19          0.854              1.254              0.662
 Vibration    20          0.902              1.146              0.551
 Vibration    21          0.945              1.057              0.471
 Vibration    22          0.950              1.047              0.462

 Optimization completed.
    -- Stationary point found.
 Normal termination of Gaussian 16 at Sat Feb 10 13:07:02 2024.
