 Gaussian 16, Revision A.03,
 Gaussian 16:  ES64L-G16RevA.03 25-Dec-2016

 --------------------------------------
 #P UB3LYP/6-311++G(d,p) nosym opt freq
 --------------------------------------

 -------
 Reduced
 -------
 Symbolic Z-matrix:
 Charge = -2 Multiplicity = 1

 SCF Done:  E(UB3LYP) =  -574.524355859     A.U. after  116 cycles
 SCF Done:  E(UB3LYP) =  -574.543205825     A.U. after   32 cycles
 SCF Done:  E(UB3LYP) =  -574.546346718     A.U. after   31 cycles
 SCF Done:  E(UB3LYP) =  -574.546721770     A.U. after   31 cycles
 SCF Done:  E(UB3LYP) =  -574.546944734     A.U. after   34 cycles
 SCF Done:  E(UB3LYP) =  -574.546956808     A.U. after   33 cycles
 SCF Done:  E(UB3LYP) =  -574.546969025     A.U. after   26 cycles
 SCF Done:  E(UB3LYP) =  -574.546990073     A.U. after   27 cycles
 SCF Done:  E(UB3LYP) =  -574.547149905     A.U. after   29 cycles
 SCF Done:  E(UB3LYP) =  -574.547186764     A.U. after   34 cycles
 SCF Done:  E(UB3LYP) =  -574.547432280     A.U. after   28 cycles
 SCF Done:  E(UB3LYP) =  -574.547850869     A.U. after   28 cycles
 SCF Done:  E(UB3LYP) =  -574.548909213     A.U. after   42 cycles
 SCF Done:  E(UB3LYP) =  -574.549161914     A.U. after   31 cycles
 SCF Done:  E(UB3LYP) =  -574.549278421     A.U. after   31 cycles
 SCF Done:  E(UB3LYP) =  -574.549300196     A.U. after   28 cycles
 SCF Done:  E(UB3LYP) =  -574.549301815     A.U. after   33 cycles
 SCF Done:  E(UB3LYP) =  -574.549302217     A.U. after   27 cycles
 SCF Done:  E(UB3LYP) =  -574.549302320     A.U. after   27 cycles
 Optimization completed.
    -- Stationary point found.
 Normal termination of Gaussian 16 at Tue Dec 26 21:47:10 2023.

 ----------------------------------------------------------------------
 #P Geom=AllCheck Guess=TCheck SCRF=Check GenChk UB3LYP/6-311++G(d,p) F
 req
 ----------------------------------------------------------------------

 Structure from the checkpoint file:  "237-an.chk"
 -------
 Reduced
 -------
 Charge = -2 Multiplicity = 1

                          Input orientation:
 ---------------------------------------------------------------------
 Center     Atomic      Atomic             Coordinates (Angstroms)
 Number     Number       Type             X           Y           Z
 ---------------------------------------------------------------------
      1          6           0        5.749075   -5.290324    1.239733
      2          6           0        6.726822   -5.161755    0.277522
      3          6           0        6.616170   -4.130997   -0.684308
      4          6           0        4.638252   -4.416178    1.296813
      5          6           0        4.506838   -3.362904    0.300973
      6          6           0        5.543539   -3.247426   -0.685681
      7          6           0        3.666578   -4.626555    2.372502
      8          6           0        2.581688   -3.713046    2.354637
      9          6           0        2.442609   -2.698727    1.401034
     10          6           0        3.351419   -2.456076    0.333044
     11          8           0        3.800151   -5.562690    3.252897
     12          8           0        3.157015   -1.509562   -0.526072
     13          1           0        5.789373   -6.063737    2.000336
     14          6           0        5.518226   -2.191004   -1.773677
     15          1           0        7.577780   -5.841920    0.248110
     16          1           0        7.380799   -4.032160   -1.453893
     17          1           0        1.831001   -3.827550    3.137591
     18          1           0        1.581494   -2.031376    1.445084
     19          1           0        5.445425   -1.184714   -1.357955
     20          1           0        4.634418   -2.294101   -2.408740
     21          1           0        6.425627   -2.269609   -2.389260
 ---------------------------------------------------------------------

 SCF Done:  E(UB3LYP) =  -574.549302320     A.U. after    6 cycles

 Alpha  occ. eigenvalues --  -18.76628 -18.76617  -9.92787  -9.92426  -9.92424
 Alpha  occ. eigenvalues --   -9.91468  -9.91327  -9.90982  -9.90310  -9.90078
 Alpha  occ. eigenvalues --   -9.89409  -9.87945  -9.87853  -0.68134  -0.67721
 Alpha  occ. eigenvalues --   -0.58678  -0.52097  -0.50845  -0.46128  -0.42822
 Alpha  occ. eigenvalues --   -0.39115  -0.33949  -0.33461  -0.27092  -0.23274
 Alpha  occ. eigenvalues --   -0.22685  -0.19879  -0.17571  -0.16534  -0.15258
 Alpha  occ. eigenvalues --   -0.14419  -0.13455  -0.12251  -0.11419  -0.10262
 Alpha  occ. eigenvalues --   -0.09706  -0.07192  -0.07072  -0.06147  -0.06036
 Alpha  occ. eigenvalues --    0.01828   0.02632   0.03039   0.05754   0.06004
 Alpha  occ. eigenvalues --    0.14269
 Alpha virt. eigenvalues --    0.15888   0.17192   0.19085   0.19436   0.20924
 Alpha virt. eigenvalues --    0.21935   0.22172   0.22435   0.23748   0.24742
 Alpha virt. eigenvalues --    0.26669   0.26946   0.28167   0.28445   0.28781

  Beta  occ. eigenvalues --  -18.76628 -18.76617  -9.92787  -9.92426  -9.92424
  Beta  occ. eigenvalues --   -9.91468  -9.91327  -9.90982  -9.90310  -9.90078
  Beta  occ. eigenvalues --   -9.89409  -9.87945  -9.87853  -0.68134  -0.67721
  Beta  occ. eigenvalues --   -0.58678  -0.52097  -0.50845  -0.46128  -0.42822
  Beta  occ. eigenvalues --   -0.39115  -0.33949  -0.33461  -0.27092  -0.23274
  Beta  occ. eigenvalues --   -0.22685  -0.19879  -0.17571  -0.16534  -0.15258
  Beta  occ. eigenvalues --   -0.14419  -0.13455  -0.12251  -0.11419  -0.10262
  Beta  occ. eigenvalues --   -0.09706  -0.07192  -0.07072  -0.06147  -0.06036
  Beta  occ. eigenvalues --    0.01828   0.02632   0.03039   0.05754   0.06004
  Beta  occ. eigenvalues --    0.14269
  Beta virt. eigenvalues --    0.15888   0.17192   0.19085   0.19436   0.20924
  Beta virt. eigenvalues --    0.21935   0.22172   0.22435   0.23748   0.24742
  Beta virt. eigenvalues --    0.26669   0.26946   0.28167   0.28445   0.28781

 Mulliken charges and spin densities:
               1          2
     1  C    0.846029   0.000000
     2  C    0.275609   0.000000
     3  C    0.364273   0.000000
     4  C    0.284830   0.000000
     5  C   -0.492493  -0.000000
     6  C   -0.597543  -0.000000
     7  C   -0.739445   0.000000
     8  C    0.105043   0.000000
     9  C    0.002795  -0.000000
    10  C   -0.914119  -0.000000
    11  O   -0.542537   0.000000
    12  O   -0.514725   0.000000
    13  H    0.188876  -0.000000
    14  C    0.674012   0.000000
    15  H   -0.519079  -0.000000
    16  H   -0.461748  -0.000000
    17  H    0.059265  -0.000000
    18  H    0.066077   0.000000
    19  H    0.146040  -0.000000
    20  H    0.183184   0.000000
    21  H   -0.414343  -0.000000
 Sum of Mulliken charges =  -2.00000  -0.00000

 Dipole moment (field-independent basis, Debye):
    X=            -43.0467    Y=             36.1809    Z=             -7.4022  Tot=             56.7175
 Quadrupole moment (field-independent basis, Debye-Ang):
   XX=           -319.8786   YY=           -260.7899   ZZ=           -135.8801
   XY=            173.2429   XZ=            -15.1373   YZ=             51.2889

  Exact polarizability:1158.011-490.7311578.352-424.158-789.1491122.687
 Approx polarizability:2790.550-510.671 698.866******** -36.7121531.912

                      1                      2                      3
                      A                      A                      A
 Frequencies --     69.0614               102.0838               170.9692
 Red. masses --      4.5349                 5.6996                 1.4476
 Frc consts  --      0.0127                 0.0350                 0.0249
 IR Inten    --      0.7678                12.9390                28.0908

                      4                      5                      6
                      A                      A                      A
 Frequencies --    208.7380               240.0111               271.7195
 Red. masses --      2.3580                 2.9597                 5.6736
 Frc consts  --      0.0605                 0.1005                 0.2468
 IR Inten    --      8.0551                 7.7009                43.0658

                      7                      8                      9
                      A                      A                      A
 Frequencies --    345.2669               352.2395               360.0633
 Red. masses --      6.4020                 6.2092                 5.1439
 Frc consts  --      0.4496                 0.4539                 0.3929
 IR Inten    --     37.3413                61.7222                14.5339

                     10                     11                     12
                      A                      A                      A
 Frequencies --    439.3166               460.8556               482.1034
 Red. masses --     11.6273                 4.6187                 3.8366
 Frc consts  --      1.3222                 0.5780                 0.5254
 IR Inten    --   1089.5890               108.5045                42.2328

                     13                     14                     15
                      A                      A                      A
 Frequencies --    495.6435               526.9977               612.8065
 Red. masses --      3.0179                 6.5517                 4.6807
 Frc consts  --      0.4368                 1.0721                 1.0356
 IR Inten    --     78.1538                25.5837                61.9675

                     16                     17                     18
                      A                      A                      A
 Frequencies --    623.2868               638.6801               658.6559
 Red. masses --      5.3342                 2.6040                 2.9893
 Frc consts  --      1.2209                 0.6258                 0.7641
 IR Inten    --     17.0772                52.7469                31.3767

                     19                     20                     21
                      A                      A                      A
 Frequencies --    757.8127               773.6320               794.1415
 Red. masses --      6.2170                 1.8520                 5.1619
 Frc consts  --      2.1036                 0.6531                 1.9180
 IR Inten    --     40.2572                 9.1827               217.8415

                     22                     23                     24
                      A                      A                      A
 Frequencies --    805.1361               813.3649               847.9364
 Red. masses --      2.3642                 2.0799                 1.4167
 Frc consts  --      0.9030                 0.8107                 0.6001
 IR Inten    --     16.3928                35.4500                46.1080

                     25                     26                     27
                      A                      A                      A
 Frequencies --    867.3013               901.9746               976.2594
 Red. masses --      1.3683                 4.3471                 1.2720
 Frc consts  --      0.6064                 2.0837                 0.7143
 IR Inten    --     13.1273                60.3923               155.6350

                     28                     29                     30
                      A                      A                      A
 Frequencies --   1009.6914              1040.6127              1059.6795
 Red. masses --      1.5861                 3.2212                 1.5515
 Frc consts  --      0.9527                 2.0552                 1.0265
 IR Inten    --    243.9142                79.3411               119.0216

                     31                     32                     33
                      A                      A                      A
 Frequencies --   1079.0695              1123.2979              1143.9280
 Red. masses --      1.6931                 1.7460                 2.0978
 Frc consts  --      1.1615                 1.2980                 1.6174
 IR Inten    --    969.2918                92.5277                10.7152

                     34                     35                     36
                      A                      A                      A
 Frequencies --   1160.1408              1210.8204              1230.2937
 Red. masses --      1.7606                 2.7990                 2.3117
 Frc consts  --      1.3961                 2.4178                 2.0616
 IR Inten    --    474.7453               489.0670                78.7169

                     37                     38                     39
                      A                      A                      A
 Frequencies --   1299.2619              1305.8082              1371.3815
 Red. masses --      1.7692                 6.5367                 7.3736
 Frc consts  --      1.7596                 6.5670                 8.1704
 IR Inten    --     15.2425              1226.8193              1885.4828

                     40                     41                     42
                      A                      A                      A
 Frequencies --   1381.5514              1390.8133              1403.4466
 Red. masses --      4.5091                 4.2940                 1.2721
 Frc consts  --      5.0708                 4.8938                 1.4762
 IR Inten    --     52.9338               175.1554               209.3789

                     43                     44                     45
                      A                      A                      A
 Frequencies --   1434.5611              1450.1120              1474.7643
 Red. masses --      2.1342                 1.0510                 1.2233
 Frc consts  --      2.5877                 1.3021                 1.5676
 IR Inten    --     20.0668               104.8150               358.1355

                     46                     47                     48
                      A                      A                      A
 Frequencies --   1507.3769              1521.2653              1565.9299
 Red. masses --      4.3112                 4.5244                 6.2707
 Frc consts  --      5.7715                 6.1691                 9.0596
 IR Inten    --   2663.0266               165.4958              3312.3973

                     49                     50                     51
                      A                      A                      A
 Frequencies --   1584.0855              2970.4087              3060.9482
 Red. masses --      4.8126                 1.0529                 1.0869
 Frc consts  --      7.1152                 5.4736                 5.9997
 IR Inten    --    300.0309               224.9634               275.1140

                     52                     53                     54
                      A                      A                      A
 Frequencies --   3074.1725              3082.9374              3086.3483
 Red. masses --      1.0830                 1.0846                 1.0924
 Frc consts  --      6.0305                 6.0735                 6.1311
 IR Inten    --     78.6800               341.3417               197.5730

                     55                     56                     57
                      A                      A                      A
 Frequencies --   3102.0656              3107.4748              3157.7067
 Red. masses --      1.0913                 1.0920                 1.0907
 Frc consts  --      6.1871                 6.2127                 6.4076
 IR Inten    --    790.0405               433.9053                44.1227

 - Thermochemistry -
 -------------------
 Temperature   298.150 Kelvin.  Pressure   1.00000 Atm.
 Atom     1 has atomic number  6 and mass  12.00000

 Molecular mass:   172.05243 amu.
 Principal axes and moments of inertia in atomic units:
                           1         2         3
     Eigenvalues --  1594.332162038.867233622.22355
           X           -0.43644   0.74123   0.50999
           Y           -0.40451  -0.66796   0.62466
           Z            0.80367   0.06633   0.59136
 This molecule is an asymmetric top.
 Rotational symmetry number  1.
 Warning -- assumption of classical behavior for rotation
           may cause significant error
 Rotational temperatures (Kelvin)      0.05433     0.04248     0.02391
 Rotational constants (GHZ):           1.13197     0.88517     0.49824
 Zero-point vibrational energy     406646.7 (Joules/Mol)
                                   97.19088 (Kcal/Mol)
 Warning -- explicit consideration of  15 degrees of freedom as
           vibrations may cause significant error
 Vibrational temperatures:     99.36   146.88   245.99   300.33   345.32
          (Kelvin)            390.94   496.76   506.79   518.05   632.08
                              663.07   693.64   713.12   758.23   881.69
                              896.77   918.92   947.66  1090.32  1113.08
                             1142.59  1158.41  1170.25  1219.99  1247.85
                             1297.74  1404.62  1452.72  1497.21  1524.64
                             1552.54  1616.18  1645.86  1669.18  1742.10
                             1770.12  1869.35  1878.77  1973.11  1987.74
                             2001.07  2019.25  2064.01  2086.39  2121.86
                             2168.78  2188.76  2253.02  2279.15  4273.76
                             4404.02  4423.05  4435.66  4440.57  4463.18
                             4470.96  4543.24

 Zero-point correction=                           0.154884 (Hartree/Particle)
 Thermal correction to Energy=                    0.165134
 Thermal correction to Enthalpy=                  0.166079
 Thermal correction to Gibbs Free Energy=         0.119198
 Sum of electronic and zero-point Energies=           -574.394419
 Sum of electronic and thermal Energies=              -574.384168
 Sum of electronic and thermal Enthalpies=            -574.383224
 Sum of electronic and thermal Free Energies=         -574.430104

                     E (Thermal)             CV                S
                      KCal/Mol        Cal/Mol-Kelvin    Cal/Mol-Kelvin
 Total                  103.623             41.178             98.668
 Electronic               0.000              0.000              0.000
 Translational            0.889              2.981             41.335
 Rotational               0.889              2.981             30.844
 Vibrational            101.846             35.217             26.489
 Vibration     1          0.598              1.969              4.180
 Vibration     2          0.604              1.947              3.414
 Vibration     3          0.626              1.878              2.425
 Vibration     4          0.642              1.827              2.055
 Vibration     5          0.657              1.779              1.803
 Vibration     6          0.675              1.725              1.585
 Vibration     7          0.724              1.585              1.188
 Vibration     8          0.729              1.571              1.156
 Vibration     9          0.735              1.555              1.122
 Vibration    10          0.799              1.384              0.829
 Vibration    11          0.819              1.337              0.764
 Vibration    12          0.838              1.290              0.704
 Vibration    13          0.851              1.260              0.669
 Vibration    14          0.882              1.190              0.594
 Vibration    15          0.972              1.005              0.428

 Optimization completed.
    -- Stationary point found.
 Normal termination of Gaussian 16 at Tue Dec 26 22:03:42 2023.
