 Gaussian 16, Revision A.03,
 Gaussian 16:  ES64L-G16RevA.03 25-Dec-2016

 ----------------------------------------------------------------
 #P UB3LYP/6-311++G(d,p) SCRF=(PCM,Solvent=n,n-DiMethylFormamide)
 ----------------------------------------------------------------

 ------------------
 Quinone PCM in DMF
 ------------------
 Symbolic Z-matrix:
 Charge =  0 Multiplicity = 1

                         Standard orientation:
 ---------------------------------------------------------------------
 Center     Atomic      Atomic             Coordinates (Angstroms)
 Number     Number       Type             X           Y           Z
 ---------------------------------------------------------------------
      1          6           0        0.598337    1.381440   -0.141992
      2          6           0        2.083588    1.380845   -0.155886
      3          6           0        2.793271    0.248547   -0.071009
      4          6           0        2.121830   -1.066572    0.057433
      5          6           0        0.638373   -1.072079    0.124417
      6          6           0       -0.079565    0.061192    0.071174
      7          8           0       -0.029642    2.402341   -0.343695
      8          8           0        2.756322   -2.106672    0.110095
      9          1           0        2.546354    2.354782   -0.270825
     10          1           0        3.877025    0.231632   -0.102320
     11          1           0        0.173023   -2.044826    0.237047
     12          6           0       -1.566559    0.062564    0.276122
     13          8           0       -2.122755    0.740918    1.099430
     14          8           0       -2.178222   -0.812378   -0.539848
     15          6           0       -3.611714   -0.912637   -0.390252
     16          1           0       -3.927440   -1.640052   -1.133859
     17          1           0       -4.076526    0.056363   -0.573255
     18          1           0       -3.863424   -1.251365    0.615315
 ---------------------------------------------------------------------

 SCF Done:  E(UB3LYP) =  -609.510815496     A.U. after   15 cycles

 The electronic state is 1-A.
 Alpha  occ. eigenvalues --  -19.19281 -19.15519 -19.15420 -19.14172 -10.33361
 Alpha  occ. eigenvalues --  -10.30306 -10.29873 -10.23956 -10.23253 -10.22968
 Alpha  occ. eigenvalues --  -10.22192 -10.22066  -1.13574  -1.08772  -1.08345
 Alpha  occ. eigenvalues --   -1.05151  -0.88131  -0.81920  -0.75190  -0.72306
 Alpha  occ. eigenvalues --   -0.66723  -0.63203  -0.58500  -0.55148  -0.53839
 Alpha  occ. eigenvalues --   -0.51602  -0.50516  -0.49828  -0.48795  -0.46428
 Alpha  occ. eigenvalues --   -0.46245  -0.44925  -0.44173  -0.43276  -0.42480
 Alpha  occ. eigenvalues --   -0.41155  -0.38239  -0.33282  -0.33059  -0.32147
 Alpha  occ. eigenvalues --   -0.31015  -0.30372  -0.28813
 Alpha virt. eigenvalues --   -0.14859  -0.05911  -0.02414  -0.00553   0.00016
 Alpha virt. eigenvalues --    0.00573   0.01384   0.02310   0.03128   0.03366
 Alpha virt. eigenvalues --    0.04364   0.04861   0.05447   0.06255   0.06863

  Beta  occ. eigenvalues --  -19.19281 -19.15519 -19.15420 -19.14172 -10.33361
  Beta  occ. eigenvalues --  -10.30306 -10.29873 -10.23956 -10.23253 -10.22968
  Beta  occ. eigenvalues --  -10.22192 -10.22066  -1.13574  -1.08772  -1.08345
  Beta  occ. eigenvalues --   -1.05151  -0.88131  -0.81920  -0.75190  -0.72306
  Beta  occ. eigenvalues --   -0.66723  -0.63203  -0.58500  -0.55148  -0.53839
  Beta  occ. eigenvalues --   -0.51602  -0.50516  -0.49828  -0.48795  -0.46428
  Beta  occ. eigenvalues --   -0.46245  -0.44925  -0.44173  -0.43276  -0.42480
  Beta  occ. eigenvalues --   -0.41155  -0.38239  -0.33282  -0.33059  -0.32147
  Beta  occ. eigenvalues --   -0.31015  -0.30372  -0.28813
  Beta virt. eigenvalues --   -0.14859  -0.05911  -0.02414  -0.00553   0.00016
  Beta virt. eigenvalues --    0.00573   0.01384   0.02310   0.03128   0.03366
  Beta virt. eigenvalues --    0.04364   0.04861   0.05447   0.06255   0.06863

 Mulliken charges and spin densities:
               1          2
     1  C   -0.825582   0.000000
     2  C    0.095786  -0.000000
     3  C    0.239820   0.000000
     4  C   -0.433945  -0.000000
     5  C   -0.457723   0.000000
     6  C    1.211195  -0.000000
     7  O   -0.245870   0.000000
     8  O   -0.270859   0.000000
     9  H    0.248883  -0.000000
    10  H    0.251610   0.000000
    11  H    0.246912  -0.000000
    12  C   -0.024759   0.000000
    13  O   -0.269895  -0.000000
    14  O   -0.057639  -0.000000
    15  C   -0.266215  -0.000000
    16  H    0.178020  -0.000000
    17  H    0.187150  -0.000000
    18  H    0.193110   0.000000
 Sum of Mulliken charges =  -0.00000  -0.00000

 Dipole moment (field-independent basis, Debye):
    X=              0.0002    Y=             -1.5482    Z=             -1.2349  Tot=              1.9804
 Quadrupole moment (field-independent basis, Debye-Ang):
   XX=            -57.9575   YY=            -79.8293   ZZ=            -70.5732
   XY=             19.0726   XZ=              3.6285   YZ=             -1.3880

 Normal termination of Gaussian 16 at Wed Jan 24 22:49:28 2024.
