 Gaussian 16, Revision A.03,
 Gaussian 16:  ES64L-G16RevA.03 25-Dec-2016

 ----------------------------------------------------------------------
 #P UB3LYP/6-311++G(d,p) nosym opt freq SCRF=(PCM,Solvent=n,n-DiMethylF
 ormamide)
 ----------------------------------------------------------------------

 -------
 Reduced
 -------
 Symbolic Z-matrix:
 Charge = -2 Multiplicity = 1

 SCF Done:  E(UB3LYP) =  -650.063210344     A.U. after   18 cycles
 SCF Done:  E(UB3LYP) =  -650.064910400     A.U. after   14 cycles
 SCF Done:  E(UB3LYP) =  -650.065269421     A.U. after   14 cycles
 SCF Done:  E(UB3LYP) =  -650.065327734     A.U. after   13 cycles
 SCF Done:  E(UB3LYP) =  -650.065346812     A.U. after   12 cycles
 SCF Done:  E(UB3LYP) =  -650.065410370     A.U. after   14 cycles
 SCF Done:  E(UB3LYP) =  -650.065437046     A.U. after   12 cycles
 SCF Done:  E(UB3LYP) =  -650.065448618     A.U. after   12 cycles
 SCF Done:  E(UB3LYP) =  -650.065450321     A.U. after   11 cycles
 SCF Done:  E(UB3LYP) =  -650.065450584     A.U. after   10 cycles
 Optimization completed.
    -- Stationary point found.
 Normal termination of Gaussian 16 at Sun Feb 11 02:41:07 2024.

 ----------------------------------------------------------------------
 #P Geom=AllCheck Guess=TCheck SCRF=Check GenChk UB3LYP/6-311++G(d,p) F
 req
 ----------------------------------------------------------------------

 Structure from the checkpoint file:  "257-an.chk"
 -------
 Reduced
 -------
 Charge = -2 Multiplicity = 1

                          Input orientation:
 ---------------------------------------------------------------------
 Center     Atomic      Atomic             Coordinates (Angstroms)
 Number     Number       Type             X           Y           Z
 ---------------------------------------------------------------------
      1          6           0        3.906171    0.586392   -0.103359
      2          8           0        2.679850    1.292982   -0.167013
      3          6           0        1.484686    0.576964   -0.104408
      4          6           0        1.474058   -0.829861    0.007103
      5          6           0        0.295149   -1.602733    0.070963
      6          8           0        0.307182   -2.907601    0.175230
      7          6           0       -0.934984   -0.839723    0.012349
      8          6           0       -2.190584   -1.495267    0.064781
      9          6           0       -3.385947   -0.806814    0.010358
     10          6           0       -3.368886    0.607820   -0.101417
     11          6           0       -2.166161    1.279801   -0.154460
     12          6           0       -0.913167    0.604696   -0.101523
     13          6           0        0.311126    1.367869   -0.162826
     14          8           0        0.322084    2.677622   -0.264935
     15          1           0        4.014625    0.034795    0.838124
     16          1           0        4.692963    1.339294   -0.165624
     17          1           0        4.019906   -0.117011   -0.936790
     18          1           0        2.412095   -1.372586    0.046374
     19          1           0       -2.181238   -2.576831    0.151093
     20          1           0       -4.331106   -1.339570    0.052462
     21          1           0       -4.303826    1.159122   -0.145492
     22          1           0       -2.143993    2.360644   -0.241086
 ---------------------------------------------------------------------

 SCF Done:  E(UB3LYP) =  -650.065450584     A.U. after    1 cycles

 Alpha  occ. eigenvalues --  -19.12327 -19.01437 -19.00991 -10.20325 -10.18147
 Alpha  occ. eigenvalues --  -10.17076 -10.16341 -10.14748 -10.14516 -10.14449
 Alpha  occ. eigenvalues --  -10.14280 -10.13654 -10.13394 -10.12000  -1.03108
 Alpha  occ. eigenvalues --   -0.92218  -0.91376  -0.82185  -0.76534  -0.72001
 Alpha  occ. eigenvalues --   -0.71139  -0.68322  -0.63247  -0.58643  -0.57018
 Alpha  occ. eigenvalues --   -0.52896  -0.49102  -0.48307  -0.45443  -0.44603
 Alpha  occ. eigenvalues --   -0.42846  -0.42011  -0.40004  -0.38887  -0.37144
 Alpha  occ. eigenvalues --   -0.36930  -0.35781  -0.35044  -0.32943  -0.32343
 Alpha  occ. eigenvalues --   -0.31383  -0.31327  -0.29520  -0.28358  -0.22642
 Alpha  occ. eigenvalues --   -0.21803  -0.19926  -0.19545  -0.19108  -0.10954
 Alpha virt. eigenvalues --   -0.00509   0.00104   0.00833   0.01709   0.01728
 Alpha virt. eigenvalues --    0.02641   0.03007   0.04005   0.04771   0.05337
 Alpha virt. eigenvalues --    0.05897   0.05957   0.06962   0.07182   0.08759

  Beta  occ. eigenvalues --  -19.12327 -19.01437 -19.00991 -10.20325 -10.18147
  Beta  occ. eigenvalues --  -10.17076 -10.16341 -10.14748 -10.14516 -10.14449
  Beta  occ. eigenvalues --  -10.14280 -10.13654 -10.13394 -10.12000  -1.03108
  Beta  occ. eigenvalues --   -0.92218  -0.91376  -0.82185  -0.76534  -0.72001
  Beta  occ. eigenvalues --   -0.71139  -0.68322  -0.63247  -0.58643  -0.57018
  Beta  occ. eigenvalues --   -0.52896  -0.49102  -0.48307  -0.45443  -0.44603
  Beta  occ. eigenvalues --   -0.42846  -0.42011  -0.40004  -0.38887  -0.37144
  Beta  occ. eigenvalues --   -0.36930  -0.35781  -0.35044  -0.32943  -0.32343
  Beta  occ. eigenvalues --   -0.31383  -0.31327  -0.29520  -0.28358  -0.22642
  Beta  occ. eigenvalues --   -0.21803  -0.19926  -0.19545  -0.19108  -0.10954
  Beta virt. eigenvalues --   -0.00509   0.00104   0.00833   0.01709   0.01728
  Beta virt. eigenvalues --    0.02641   0.03007   0.04005   0.04771   0.05337
  Beta virt. eigenvalues --    0.05897   0.05957   0.06962   0.07182   0.08759

 Mulliken charges and spin densities:
               1          2
     1  C   -0.312620   0.000000
     2  O   -0.257813   0.000000
     3  C   -0.377903  -0.000000
     4  C    0.296281   0.000000
     5  C   -0.391873  -0.000000
     6  O   -0.720518  -0.000000
     7  C    0.364946  -0.000000
     8  C    0.111785  -0.000000
     9  C   -0.399811  -0.000000
    10  C   -0.420527  -0.000000
    11  C    0.043151  -0.000000
    12  C    0.263684   0.000000
    13  C   -0.649200  -0.000000
    14  O   -0.749663   0.000000
    15  H    0.143683  -0.000000
    16  H    0.172637   0.000000
    17  H    0.142949  -0.000000
    18  H    0.150984   0.000000
    19  H    0.139769   0.000000
    20  H    0.152737  -0.000000
    21  H    0.155535  -0.000000
    22  H    0.141788   0.000000
 Sum of Mulliken charges =  -2.00000   0.00000

 Dipole moment (field-independent basis, Debye):
    X=              0.2807    Y=             -0.5584    Z=              0.5744  Tot=              0.8488
 Quadrupole moment (field-independent basis, Debye-Ang):
   XX=            -92.8419   YY=           -154.1601   ZZ=            -93.1334
   XY=             -3.7970   XZ=              0.3252   YZ=              4.9014

  Exact polarizability: 353.543   4.188 288.199  -0.525 -12.177 135.054
 Approx polarizability: 388.781   7.692 331.014  -0.866 -14.717 145.948

                      1                      2                      3
                      A                      A                      A
 Frequencies --     46.0646               105.8518               146.2080
 Red. masses --      3.2220                 6.5285                 4.2546
 Frc consts  --      0.0040                 0.0431                 0.0536
 IR Inten    --     21.0987                 7.1405                 2.1068

                      4                      5                      6
                      A                      A                      A
 Frequencies --    177.4587               212.0166               225.1340
 Red. masses --      5.7576                 3.7944                 1.7576
 Frc consts  --      0.1068                 0.1005                 0.0525
 IR Inten    --      7.6841                19.4497                 0.0110

                      7                      8                      9
                      A                      A                      A
 Frequencies --    277.9084               289.0432               338.5134
 Red. masses --      6.6580                 1.9409                 8.2006
 Frc consts  --      0.3030                 0.0955                 0.5537
 IR Inten    --      8.1415                 1.9444                 4.6714

                     10                     11                     12
                      A                      A                      A
 Frequencies --    361.2699               382.7488               447.4879
 Red. masses --      6.7720                 7.6120                 3.2819
 Frc consts  --      0.5208                 0.6570                 0.3872
 IR Inten    --      2.8661                 0.2577                 9.3009

                     13                     14                     15
                      A                      A                      A
 Frequencies --    463.6751               477.5133               521.9565
 Red. masses --      5.9045                 9.5676                 3.7917
 Frc consts  --      0.7479                 1.2854                 0.6086
 IR Inten    --      8.5855                 1.5384                 7.6395

                     16                     17                     18
                      A                      A                      A
 Frequencies --    539.2321               636.2038               643.4846
 Red. masses --      7.4917                 7.0656                 2.7013
 Frc consts  --      1.2835                 1.6850                 0.6590
 IR Inten    --     15.3079                49.1308                 1.0393

                     19                     20                     21
                      A                      A                      A
 Frequencies --    682.4266               707.1018               721.8426
 Red. masses --      5.6303                 3.2031                 6.3548
 Frc consts  --      1.5449                 0.9436                 1.9509
 IR Inten    --      1.7995                39.1117                67.0883

                     22                     23                     24
                      A                      A                      A
 Frequencies --    765.1814               781.6666               819.7699
 Red. masses --      1.5835                 3.0298                 2.0561
 Frc consts  --      0.5463                 1.0907                 0.8141
 IR Inten    --    125.9323                 0.1191                33.3539

                     25                     26                     27
                      A                      A                      A
 Frequencies --    842.6352               854.9104               913.5160
 Red. masses --      4.7659                 1.6007                 6.5459
 Frc consts  --      1.9938                 0.6893                 3.2185
 IR Inten    --     47.6484                 0.5925               238.1748

                     28                     29                     30
                      A                      A                      A
 Frequencies --    973.7304               981.6925              1022.0456
 Red. masses --      1.3470                 1.2353                 2.3019
 Frc consts  --      0.7525                 0.7014                 1.4167
 IR Inten    --      4.9388                 0.2637                99.4183

                     31                     32                     33
                      A                      A                      A
 Frequencies --   1076.7604              1089.1886              1129.2009
 Red. masses --      4.9581                 3.2509                 2.0385
 Frc consts  --      3.3869                 2.2723                 1.5314
 IR Inten    --    138.1906               235.0186                44.9708

                     34                     35                     36
                      A                      A                      A
 Frequencies --   1138.9212              1163.4657              1166.0643
 Red. masses --      2.2390                 1.2775                 1.6701
 Frc consts  --      1.7112                 1.0189                 1.3380
 IR Inten    --    369.7287                 1.2854               187.1938

                     37                     38                     39
                      A                      A                      A
 Frequencies --   1204.5637              1208.7040              1238.6335
 Red. masses --      1.7513                 1.6581                 2.6765
 Frc consts  --      1.4972                 1.4273                 2.4193
 IR Inten    --    426.6209               422.9683                75.3603

                     40                     41                     42
                      A                      A                      A
 Frequencies --   1275.4384              1317.0021              1361.2041
 Red. masses --      2.3142                 5.8711                 7.0082
 Frc consts  --      2.2180                 5.9998                 7.6507
 IR Inten    --    153.9815               624.2345              1547.3376

                     43                     44                     45
                      A                      A                      A
 Frequencies --   1383.1428              1432.1418              1449.9384
 Red. masses --      4.5639                 2.8285                 2.4913
 Frc consts  --      5.1442                 3.4180                 3.0858
 IR Inten    --    153.2339               153.9606                88.6811

                     46                     47                     48
                      A                      A                      A
 Frequencies --   1473.1489              1478.2304              1497.6462
 Red. masses --      1.2435                 1.0483                 1.0845
 Frc consts  --      1.5899                 1.3497                 1.4332
 IR Inten    --      5.7216                 8.1108                88.6541

                     49                     50                     51
                      A                      A                      A
 Frequencies --   1508.0727              1529.2432              1586.0630
 Red. masses --      3.6511                 4.3669                 7.3628
 Frc consts  --      4.8923                 6.0169                10.9127
 IR Inten    --     52.2239               415.0820                23.9314

                     52                     53                     54
                      A                      A                      A
 Frequencies --   1606.4213              2987.7618              3037.1528
 Red. masses --      5.4222                 1.0342                 1.1050
 Frc consts  --      8.2441                 5.4393                 6.0053
 IR Inten    --     18.6615               148.9162                88.1520

                     55                     56                     57
                      A                      A                      A
 Frequencies --   3103.8521              3135.6045              3150.6877
 Red. masses --      1.0983                 1.0844                 1.0882
 Frc consts  --      6.2338                 6.2816                 6.3644
 IR Inten    --     61.2161                20.1226                24.9741

                     58                     59                     60
                      A                      A                      A
 Frequencies --   3164.1723              3166.1201              3172.6316
 Red. masses --      1.0874                 1.0916                 1.0932
 Frc consts  --      6.4145                 6.4469                 6.4829
 IR Inten    --     63.0557                65.6348                58.6504

 - Thermochemistry -
 -------------------
 Temperature   298.150 Kelvin.  Pressure   1.00000 Atm.
 Atom     1 has atomic number  6 and mass  12.00000

 Molecular mass:   188.04734 amu.
 Principal axes and moments of inertia in atomic units:
                           1         2         3
     Eigenvalues --  1496.532223194.052554679.15626
           X            0.97678  -0.21426   0.00106
           Y            0.21352   0.97375   0.07885
           Z           -0.01792  -0.07679   0.99689
 This molecule is an asymmetric top.
 Rotational symmetry number  1.
 Warning -- assumption of classical behavior for rotation
           may cause significant error
 Rotational temperatures (Kelvin)      0.05788     0.02712     0.01851
 Rotational constants (GHZ):           1.20595     0.56503     0.38570
 Zero-point vibrational energy     422218.8 (Joules/Mol)
                                  100.91271 (Kcal/Mol)
 Warning -- explicit consideration of  16 degrees of freedom as
           vibrations may cause significant error
 Vibrational temperatures:     66.28   152.30   210.36   255.32   305.04
          (Kelvin)            323.92   399.85   415.87   487.05   519.79
                              550.69   643.84   667.13   687.04   750.98
                              775.83   915.36   925.83   981.86  1017.36
                             1038.57  1100.93  1124.64  1179.47  1212.36
                             1230.03  1314.35  1400.98  1412.44  1470.50
                             1549.22  1567.10  1624.67  1638.65  1673.97
                             1677.71  1733.10  1739.06  1782.12  1835.07
                             1894.87  1958.47  1990.03  2060.53  2086.14
                             2119.53  2126.84  2154.78  2169.78  2200.24
                             2281.99  2311.28  4298.72  4369.79  4465.75
                             4511.44  4533.14  4552.54  4555.34  4564.71

 Zero-point correction=                           0.160815 (Hartree/Particle)
 Thermal correction to Energy=                    0.172043
 Thermal correction to Enthalpy=                  0.172987
 Thermal correction to Gibbs Free Energy=         0.123567
 Sum of electronic and zero-point Energies=           -649.904636
 Sum of electronic and thermal Energies=              -649.893408
 Sum of electronic and thermal Enthalpies=            -649.892463
 Sum of electronic and thermal Free Energies=         -649.941884

                     E (Thermal)             CV                S
                      KCal/Mol        Cal/Mol-Kelvin    Cal/Mol-Kelvin
 Total                  107.959             44.215            104.014
 Electronic               0.000              0.000              0.000
 Translational            0.889              2.981             41.600
 Rotational               0.889              2.981             31.481
 Vibrational            106.181             38.253             30.932
 Vibration     1          0.595              1.979              4.980
 Vibration     2          0.605              1.945              3.344
 Vibration     3          0.617              1.907              2.721
 Vibration     4          0.628              1.870              2.355
 Vibration     5          0.643              1.823              2.026
 Vibration     6          0.650              1.803              1.917
 Vibration     7          0.679              1.714              1.547
 Vibration     8          0.686              1.694              1.480
 Vibration     9          0.719              1.599              1.219
 Vibration    10          0.735              1.552              1.117
 Vibration    11          0.752              1.507              1.028
 Vibration    12          0.807              1.366              0.803
 Vibration    13          0.821              1.331              0.755
 Vibration    14          0.834              1.300              0.717
 Vibration    15          0.877              1.201              0.605
 Vibration    16          0.894              1.163              0.567

 Optimization completed.
    -- Stationary point found.
 Normal termination of Gaussian 16 at Sun Feb 11 03:10:23 2024.
