 Q-Chem 5.4, Q-Chem, Inc., Pleasanton, CA (2021)
 Q-Chem 5.4.0 for Intel X86 EM64T Linux

User input:
--------------------------------------------------------------
$molecule
-2 1
O                  5.4952910000     -2.2488770000      0.6732510000
S                  5.4592980000     -0.9147240000      0.0207750000
O                  6.2930100000      0.1125920000      0.6985360000
O                  5.6098550000     -0.9549950000     -1.4543360000
C                  3.7383470000     -0.3396550000      0.2906880000
C                  3.4659590000      0.5658130000      1.3185730000
C                  2.1602050000      0.9773470000      1.5595490000
C                  1.1047470000      0.4926160000      0.7810560000
C                 -0.2824460000      0.9560780000      1.0702060000
O                 -0.5083420000      1.7477390000      1.9769460000
C                 -1.3808530000      0.4201110000      0.2146460000
C                 -2.6976780000      0.8276290000      0.4523800000
C                 -3.7383340000      0.3394970000     -0.3339310000
C                 -3.4659450000     -0.5661370000     -1.3617410000
C                 -2.1602260000     -0.9775260000     -1.6028020000
C                 -1.1047200000     -0.4925880000     -0.8244150000
C                  0.2824830000     -0.9559940000     -1.1136410000
O                  0.5083610000     -1.7476340000     -2.0204090000
C                  1.3808970000     -0.4200720000     -0.2580680000
C                  2.6976480000     -0.8276570000     -0.4957420000
S                 -5.4592710000      0.9150930000     -0.0651250000
O                 -5.4988070000      2.2421030000     -0.7318690000
O                 -6.2934310000     -0.1204310000     -0.7296940000
O                 -5.6058200000      0.9709730000      1.4098570000
H                  4.2945600000      0.9432940000      1.9057120000
H                  1.9319170000      1.6815890000      2.3507820000
H                 -2.9011350000      1.5184080000      1.2606380000
H                 -4.2944820000     -0.9441470000     -1.9486430000
H                 -1.9319320000     -1.6818820000     -2.3939250000
H                  2.9008430000     -1.5185630000     -1.3039610000
$end
$rem
MAX_SCF_CYCLES=200
BASIS  =  6-311++G(d,p)
GUI  =  2
JOB_TYPE  =  SP
METHOD  =  B3LYP
SOLVENT_METHOD = PCM
$end
$pcm
theory = CPCM
$end
$solvent
dielectric 37.219
opticaldielectric 1.43
$end

--------------------------------------------------------------

             Standard Nuclear Orientation (Angstroms)
    I     Atom           X                Y                Z
 ----------------------------------------------------------------
    1      O       5.4952910000    -2.2488770000     0.6732510000
    2      S       5.4592980000    -0.9147240000     0.0207750000
    3      O       6.2930100000     0.1125920000     0.6985360000
    4      O       5.6098550000    -0.9549950000    -1.4543360000
    5      C       3.7383470000    -0.3396550000     0.2906880000
    6      C       3.4659590000     0.5658130000     1.3185730000
    7      C       2.1602050000     0.9773470000     1.5595490000
    8      C       1.1047470000     0.4926160000     0.7810560000
    9      C      -0.2824460000     0.9560780000     1.0702060000
   10      O      -0.5083420000     1.7477390000     1.9769460000
   11      C      -1.3808530000     0.4201110000     0.2146460000
   12      C      -2.6976780000     0.8276290000     0.4523800000
   13      C      -3.7383340000     0.3394970000    -0.3339310000
   14      C      -3.4659450000    -0.5661370000    -1.3617410000
   15      C      -2.1602260000    -0.9775260000    -1.6028020000
   16      C      -1.1047200000    -0.4925880000    -0.8244150000
   17      C       0.2824830000    -0.9559940000    -1.1136410000
   18      O       0.5083610000    -1.7476340000    -2.0204090000
   19      C       1.3808970000    -0.4200720000    -0.2580680000
   20      C       2.6976480000    -0.8276570000    -0.4957420000
   21      S      -5.4592710000     0.9150930000    -0.0651250000
   22      O      -5.4988070000     2.2421030000    -0.7318690000
   23      O      -6.2934310000    -0.1204310000    -0.7296940000
   24      O      -5.6058200000     0.9709730000     1.4098570000
   25      H       4.2945600000     0.9432940000     1.9057120000
   26      H       1.9319170000     1.6815890000     2.3507820000
   27      H      -2.9011350000     1.5184080000     1.2606380000
   28      H      -4.2944820000    -0.9441470000    -1.9486430000
   29      H      -1.9319320000    -1.6818820000    -2.3939250000
   30      H       2.9008430000    -1.5185630000    -1.3039610000
 ----------------------------------------------------------------

    9   -1935.9035040638      4.90e-06  Convergence criterion met
 Total energy in the final basis set =    -1935.9035040638

                    Orbital Energies (a.u.)
 --------------------------------------------------------------

 Alpha MOs
 -- Occupied --
-89.0527 -89.0527 -19.1318 -19.1318 -19.0979 -19.0979 -19.0973 -19.0973
-19.0972 -19.0972 -10.2847 -10.2847 -10.2154 -10.2154 -10.2113 -10.2113
-10.2099 -10.2099 -10.2020 -10.2020 -10.1996 -10.1996 -10.1981 -10.1981
 -8.1115  -8.1115  -6.0742  -6.0742  -6.0741  -6.0741  -6.0734  -6.0734
 -1.1171  -1.1171  -1.0650  -1.0632  -0.9817  -0.9817  -0.9801  -0.9801
 -0.8963  -0.8852  -0.8178  -0.7834  -0.7796  -0.7763  -0.6959  -0.6843
 -0.6544  -0.6330  -0.6092  -0.5928  -0.5818  -0.5612  -0.5363  -0.5120
 -0.5033  -0.4975  -0.4901  -0.4685  -0.4612  -0.4610  -0.4592  -0.4588
 -0.4539  -0.4524  -0.4502  -0.4477  -0.4458  -0.4248  -0.4190  -0.4026
 -0.3965  -0.3794  -0.3752  -0.3677  -0.3421  -0.3421  -0.3415  -0.3414
 -0.3175  -0.3175  -0.3046  -0.3041  -0.2990  -0.2985  -0.2876  -0.2850
 -0.2773  -0.2757  -0.2742  -0.2676  -0.2631  -0.2630

          Ground-State Mulliken Net Atomic Charges

     Atom                 Charge (a.u.)
  ----------------------------------------
      1 O                    -0.363070
      2 S                     0.683104
      3 O                    -0.421600
      4 O                    -0.408373
      5 C                    -0.721414
      6 C                    -0.234161
      7 C                     0.097118
      8 C                     0.437311
      9 C                    -0.621340
     10 O                    -0.276025
     11 C                     0.178062
     12 C                    -0.007630
     13 C                    -0.718427
     14 C                    -0.241670
     15 C                     0.091016
     16 C                     0.436660
     17 C                    -0.618884
     18 O                    -0.276193
     19 C                     0.172344
     20 C                    -0.014283
     21 S                     0.682421
     22 O                    -0.363259
     23 O                    -0.421611
     24 O                    -0.408991
     25 H                     0.249030
     26 H                     0.201249
     27 H                     0.219293
     28 H                     0.248853
     29 H                     0.201054
     30 H                     0.219412
  ----------------------------------------
  Sum of atomic charges =    -2.000006

                    Cartesian Multipole Moments
 -----------------------------------------------------------------
    Charge (ESU x 10^10)
                -9.6064
    Dipole Moment (Debye)
         X       0.0004      Y      -0.0024      Z       0.2190
       Tot       0.2190
    Quadrupole Moments (Debye-Ang)
        XX    -491.3666     XY      66.0527     YY    -187.3360
        XZ      10.4276     YZ      -3.8954     ZZ    -175.3672

 Total job time:  77.64s(wall), 564.05s(cpu)
        *  Thank you very much for using Q-Chem.  Have a nice day.  *
