 Gaussian 16, Revision A.03,
 Gaussian 16:  ES64L-G16RevA.03 25-Dec-2016

 ----------------------------------------------------------------
 #P UB3LYP/6-311++G(d,p) SCRF=(PCM,Solvent=n,n-DiMethylFormamide)
 ----------------------------------------------------------------

 ------------------
 Quinone PCM in DMF
 ------------------
 Symbolic Z-matrix:
 Charge = -2 Multiplicity = 1

                         Standard orientation:
 ---------------------------------------------------------------------
 Center     Atomic      Atomic             Coordinates (Angstroms)
 Number     Number       Type             X           Y           Z
 ---------------------------------------------------------------------
      1          8           0       -5.781226   -0.521617   -1.429866
      2         16           0       -5.532699   -0.178084   -0.006067
      3          8           0       -6.230834    1.052603    0.449819
      4          8           0       -5.640536   -1.328022    0.924661
      5          6           0       -3.756311    0.278197    0.032445
      6          6           0       -3.389127    1.625701    0.027528
      7          6           0       -2.046032    1.983972    0.014846
      8          6           0       -1.047213    1.005563    0.005795
      9          6           0        0.382380    1.428360   -0.008913
     10          8           0        0.691036    2.613520   -0.016743
     11          6           0        1.418746    0.355202   -0.013264
     12          6           0        2.772315    0.707677   -0.028373
     13          6           0        3.756253   -0.277903   -0.033074
     14          6           0        3.389041   -1.625454   -0.028331
     15          6           0        2.046004   -1.983701   -0.015490
     16          6           0        1.047171   -1.005238   -0.006208
     17          6           0       -0.382421   -1.428058    0.008593
     18          8           0       -0.691055   -2.613227    0.016454
     19          6           0       -1.418801   -0.354919    0.012902
     20          6           0       -2.772309   -0.707395    0.027913
     21         16           0        5.532738    0.177862    0.006545
     22          8           0        5.784193    0.505642    1.433569
     23          8           0        6.229715   -1.047924   -0.464046
     24          8           0        5.638864    1.337893   -0.911735
     25          1           0       -4.172941    2.373387    0.047646
     26          1           0       -1.743933    3.024577    0.014116
     27          1           0        3.047374    1.754506   -0.046930
     28          1           0        4.172708   -2.373290   -0.048993
     29          1           0        1.743880   -3.024293   -0.014916
     30          1           0       -3.047128   -1.754292    0.046313
 ---------------------------------------------------------------------

 SCF Done:  E(UB3LYP) =  -1935.89493693     A.U. after   15 cycles

 The electronic state is 1-A.
 Alpha  occ. eigenvalues --  -89.04946 -89.04945 -19.13200 -19.13200 -19.09441
 Alpha  occ. eigenvalues --  -19.09441 -19.09380 -19.09379 -19.09376 -19.09375
 Alpha  occ. eigenvalues --  -10.28492 -10.28491 -10.21557 -10.21556 -10.21233
 Alpha  occ. eigenvalues --  -10.21232 -10.21096 -10.21095 -10.20300 -10.20297
 Alpha  occ. eigenvalues --  -10.20087 -10.20084 -10.19979 -10.19979  -8.10823
 Alpha  occ. eigenvalues --   -8.10822  -6.07086  -6.07085  -6.07079  -6.07079
 Alpha  occ. eigenvalues --   -6.07018  -6.07017  -1.11355  -1.11355  -1.06513
 Alpha  occ. eigenvalues --   -1.06331  -0.97801  -0.97800  -0.97637  -0.97634
 Alpha  occ. eigenvalues --   -0.89729  -0.88612  -0.81851  -0.78426  -0.78076
 Alpha  occ. eigenvalues --   -0.77715  -0.69652  -0.68442  -0.65509  -0.63260
 Alpha  occ. eigenvalues --   -0.60931  -0.59317  -0.58092  -0.56228  -0.53464
 Alpha  occ. eigenvalues --   -0.51100  -0.50265  -0.49715  -0.49071  -0.46732
 Alpha  occ. eigenvalues --   -0.45977  -0.45902  -0.45805  -0.45559  -0.45335
 Alpha  occ. eigenvalues --   -0.45270  -0.45087  -0.44626  -0.44463  -0.42551
 Alpha  occ. eigenvalues --   -0.41924  -0.40296  -0.39726  -0.38102  -0.37535
 Alpha  occ. eigenvalues --   -0.36906  -0.33808  -0.33802  -0.33750  -0.33743
 Alpha  occ. eigenvalues --   -0.31546  -0.31503  -0.30107  -0.30064  -0.29663
 Alpha  occ. eigenvalues --   -0.29599  -0.28720  -0.28567  -0.27840  -0.27557
 Alpha  occ. eigenvalues --   -0.27356  -0.26695  -0.25893  -0.25890
 Alpha virt. eigenvalues --   -0.12058  -0.07853  -0.04176  -0.03109  -0.00295
 Alpha virt. eigenvalues --    0.00681   0.01418   0.02254   0.02418   0.02669
 Alpha virt. eigenvalues --    0.03271   0.03997   0.04339   0.04517   0.04708

  Beta  occ. eigenvalues --  -89.04946 -89.04945 -19.13200 -19.13200 -19.09441
  Beta  occ. eigenvalues --  -19.09441 -19.09380 -19.09379 -19.09376 -19.09375
  Beta  occ. eigenvalues --  -10.28492 -10.28491 -10.21557 -10.21556 -10.21233
  Beta  occ. eigenvalues --  -10.21232 -10.21096 -10.21095 -10.20300 -10.20297
  Beta  occ. eigenvalues --  -10.20087 -10.20084 -10.19979 -10.19979  -8.10823
  Beta  occ. eigenvalues --   -8.10822  -6.07086  -6.07085  -6.07079  -6.07079
  Beta  occ. eigenvalues --   -6.07018  -6.07017  -1.11355  -1.11355  -1.06513
  Beta  occ. eigenvalues --   -1.06331  -0.97801  -0.97800  -0.97637  -0.97634
  Beta  occ. eigenvalues --   -0.89729  -0.88612  -0.81851  -0.78426  -0.78076
  Beta  occ. eigenvalues --   -0.77715  -0.69652  -0.68442  -0.65509  -0.63260
  Beta  occ. eigenvalues --   -0.60931  -0.59317  -0.58092  -0.56228  -0.53464
  Beta  occ. eigenvalues --   -0.51100  -0.50265  -0.49715  -0.49071  -0.46732
  Beta  occ. eigenvalues --   -0.45977  -0.45902  -0.45805  -0.45559  -0.45335
  Beta  occ. eigenvalues --   -0.45270  -0.45087  -0.44626  -0.44463  -0.42551
  Beta  occ. eigenvalues --   -0.41924  -0.40296  -0.39726  -0.38102  -0.37535
  Beta  occ. eigenvalues --   -0.36906  -0.33808  -0.33802  -0.33750  -0.33743
  Beta  occ. eigenvalues --   -0.31546  -0.31503  -0.30107  -0.30064  -0.29663
  Beta  occ. eigenvalues --   -0.29599  -0.28720  -0.28567  -0.27840  -0.27557
  Beta  occ. eigenvalues --   -0.27356  -0.26695  -0.25893  -0.25890
  Beta virt. eigenvalues --   -0.12058  -0.07853  -0.04176  -0.03109  -0.00295
  Beta virt. eigenvalues --    0.00681   0.01418   0.02254   0.02418   0.02669
  Beta virt. eigenvalues --    0.03271   0.03997   0.04339   0.04517   0.04708

 Mulliken charges and spin densities:
               1          2
     1  O   -0.347272   0.000000
     2  S    0.657744  -0.000000
     3  O   -0.407185  -0.000000
     4  O   -0.393527  -0.000000
     5  C   -0.761307  -0.000000
     6  C   -0.201970   0.000000
     7  C    0.114885  -0.000000
     8  C    0.426105  -0.000000
     9  C   -0.640286   0.000000
    10  O   -0.264491  -0.000000
    11  C    0.203532  -0.000000
    12  C   -0.010174  -0.000000
    13  C   -0.756798   0.000000
    14  C   -0.208604   0.000000
    15  C    0.108201  -0.000000
    16  C    0.425550   0.000000
    17  C   -0.638898   0.000000
    18  O   -0.264606  -0.000000
    19  C    0.198947   0.000000
    20  C   -0.015797   0.000000
    21  S    0.657418  -0.000000
    22  O   -0.347512   0.000000
    23  O   -0.407194  -0.000000
    24  O   -0.394224   0.000000
    25  H    0.237935  -0.000000
    26  H    0.188533   0.000000
    27  H    0.207487   0.000000
    28  H    0.237618   0.000000
    29  H    0.188371   0.000000
    30  H    0.207522   0.000000
 Sum of Mulliken charges =  -2.00000  -0.00000

 Dipole moment (field-independent basis, Debye):
    X=             -0.0006    Y=              0.0057    Z=             -0.0065  Tot=              0.0087
 Quadrupole moment (field-independent basis, Debye-Ang):
   XX=           -500.1991   YY=           -178.8980   ZZ=           -172.4027
   XY=            -28.2578   XZ=             -1.6420   YZ=              0.2204

 Normal termination of Gaussian 16 at Tue Jan 16 20:39:57 2024.
