 Q-Chem 5.4, Q-Chem, Inc., Pleasanton, CA (2021)
 Q-Chem 5.4.0 for Intel X86 EM64T Linux

User input:
--------------------------------------------------------------
$molecule
-2 1
C                  5.5291330000     -4.8444320000      0.8384700000
C                  6.6711390000     -4.5315510000      0.1147390000
C                  6.6491100000     -3.4906630000     -0.8124110000
C                  4.3626750000     -4.1068500000      0.6317780000
C                  4.3172820000     -3.0852580000     -0.3400830000
C                  5.4853230000     -2.7627620000     -1.0627830000
C                  3.1640700000     -4.4615480000      1.4701050000
C                  2.1565100000     -3.3736540000      1.6754360000
C                  2.0461080000     -2.4430380000      0.6209220000
C                  2.9705410000     -2.4722270000     -0.5664830000
C                  1.2945030000     -3.2677080000      2.7873470000
C                  0.3329300000     -2.2566690000      2.7942900000
C                  0.1987630000     -1.3726080000      1.7247110000
C                  1.0526780000     -1.4630720000      0.6345370000
O                  3.0362660000     -5.5843490000      1.9127830000
O                  2.6024150000     -2.0436700000     -1.6406410000
S                  1.3561470000     -4.3017190000      4.3357830000
O                  0.6092260000     -3.4567160000      5.3124850000
O                  2.7957630000     -4.4327780000      4.6535550000
O                  0.6492200000     -5.5594200000      4.0020080000
S                  5.6786310000     -1.3723880000     -2.2877160000
O                  7.1588360000     -1.1908020000     -2.3320070000
O                  5.1217630000     -1.8843930000     -3.5607930000
O                  4.9643680000     -0.2255060000     -1.6834740000
H                  5.5148150000     -5.6352450000      1.5784910000
H                  7.5919300000     -5.0821150000      0.2842570000
H                  7.5430410000     -3.1993070000     -1.3494820000
H                 -0.2905750000     -2.1694420000      3.6752610000
H                 -0.5624750000     -0.5985880000      1.7582460000
H                  0.9881670000     -0.7825920000     -0.2057060000
$end

$rem
BASIS  =  6-311++G(d,p)
GUI  =  2
JOB_TYPE  =  SP
METHOD  =  B3LYP
SCF_CONVERGENCE  = 8
SOLVENT_METHOD = sm12
$end

$smx
solvent dimethylformamide
charges CM5
$end

--------------------------------------------------------------

             Standard Nuclear Orientation (Angstroms)
    I     Atom           X                Y                Z
 ----------------------------------------------------------------
    1      C       5.5291330000    -4.8444320000     0.8384700000
    2      C       6.6711390000    -4.5315510000     0.1147390000
    3      C       6.6491100000    -3.4906630000    -0.8124110000
    4      C       4.3626750000    -4.1068500000     0.6317780000
    5      C       4.3172820000    -3.0852580000    -0.3400830000
    6      C       5.4853230000    -2.7627620000    -1.0627830000
    7      C       3.1640700000    -4.4615480000     1.4701050000
    8      C       2.1565100000    -3.3736540000     1.6754360000
    9      C       2.0461080000    -2.4430380000     0.6209220000
   10      C       2.9705410000    -2.4722270000    -0.5664830000
   11      C       1.2945030000    -3.2677080000     2.7873470000
   12      C       0.3329300000    -2.2566690000     2.7942900000
   13      C       0.1987630000    -1.3726080000     1.7247110000
   14      C       1.0526780000    -1.4630720000     0.6345370000
   15      O       3.0362660000    -5.5843490000     1.9127830000
   16      O       2.6024150000    -2.0436700000    -1.6406410000
   17      S       1.3561470000    -4.3017190000     4.3357830000
   18      O       0.6092260000    -3.4567160000     5.3124850000
   19      O       2.7957630000    -4.4327780000     4.6535550000
   20      O       0.6492200000    -5.5594200000     4.0020080000
   21      S       5.6786310000    -1.3723880000    -2.2877160000
   22      O       7.1588360000    -1.1908020000    -2.3320070000
   23      O       5.1217630000    -1.8843930000    -3.5607930000
   24      O       4.9643680000    -0.2255060000    -1.6834740000
   25      H       5.5148150000    -5.6352450000     1.5784910000
   26      H       7.5919300000    -5.0821150000     0.2842570000
   27      H       7.5430410000    -3.1993070000    -1.3494820000
   28      H      -0.2905750000    -2.1694420000     3.6752610000
   29      H      -0.5624750000    -0.5985880000     1.7582460000
   30      H       0.9881670000    -0.7825920000    -0.2057060000
 ----------------------------------------------------------------

   15   -1935.6153602539      6.78e-09  Convergence criterion met
 Total energy in the final basis set =    -1935.8640860926

                    Orbital Energies (a.u.)
 --------------------------------------------------------------

 Alpha MOs
 -- Occupied --
-89.0319 -89.0319 -19.1260 -19.1260 -19.0736 -19.0736 -19.0728 -19.0727
-19.0726 -19.0726 -10.2790 -10.2790 -10.2151 -10.2151 -10.2145 -10.2145
-10.2095 -10.2095 -10.1993 -10.1992 -10.1977 -10.1977 -10.1954 -10.1953
 -8.0902  -8.0902  -6.0528  -6.0528  -6.0527  -6.0527  -6.0526  -6.0525
 -1.0924  -1.0924  -1.0625  -1.0605  -0.9584  -0.9583  -0.9537  -0.9537
 -0.8949  -0.8828  -0.8139  -0.7827  -0.7794  -0.7701  -0.6896  -0.6731
 -0.6421  -0.6373  -0.6136  -0.5725  -0.5622  -0.5489  -0.5367  -0.5043
 -0.4917  -0.4895  -0.4843  -0.4710  -0.4696  -0.4547  -0.4513  -0.4500
 -0.4353  -0.4345  -0.4330  -0.4297  -0.4268  -0.4105  -0.3960  -0.3911
 -0.3886  -0.3883  -0.3789  -0.3691  -0.3166  -0.3164  -0.3143  -0.3142
 -0.3024  -0.3002  -0.2929  -0.2876  -0.2828  -0.2800  -0.2777  -0.2729
 -0.2664  -0.2617  -0.2582  -0.2574  -0.2356  -0.2354

          Ground-State Mulliken Net Atomic Charges

     Atom                 Charge (a.u.)
  ----------------------------------------
      1 C                     0.298397
      2 C                     1.846828
      3 C                     0.242079
      4 C                     0.016715
      5 C                     0.243968
      6 C                    -2.004909
      7 C                    -1.592323
      8 C                     0.240460
      9 C                     0.024586
     10 C                    -1.592958
     11 C                    -2.002843
     12 C                     0.233953
     13 C                     1.842088
     14 C                     0.291752
     15 O                    -0.142942
     16 O                    -0.142874
     17 S                     0.105301
     18 O                    -0.297636
     19 O                    -0.381993
     20 O                    -0.316975
     21 S                     0.103767
     22 O                    -0.297133
     23 O                    -0.316405
     24 O                    -0.382282
     25 H                     0.262416
     26 H                     0.510032
     27 H                     0.219030
     28 H                     0.218807
     29 H                     0.509281
     30 H                     0.261815
  ----------------------------------------
  Sum of atomic charges =    -2.000000

                    Cartesian Multipole Moments
 -----------------------------------------------------------------
    Charge (ESU x 10^10)
                -9.6064
    Dipole Moment (Debye)
         X     -32.7874      Y      28.6428      Z      -8.5705
       Tot      44.3720
    Quadrupole Moments (Debye-Ang)
        XX    -315.3577     XY      51.3071     YY    -284.9788
        XZ      41.3174     YZ      85.0192     ZZ    -307.3169

 Total job time:  913.39s(wall), 7128.44s(cpu)
        *  Thank you very much for using Q-Chem.  Have a nice day.  *
