 Gaussian 16, Revision A.03,
 Gaussian 16:  ES64L-G16RevA.03 25-Dec-2016

 ----------------------------------------------------------------------
 #P UB3LYP/6-311++G(d,p) nosym opt freq SCRF=(PCM,Solvent=n,n-DiMethylF
 ormamide)
 ----------------------------------------------------------------------

 -------
 Reduced
 -------
 Symbolic Z-matrix:
 Charge = -2 Multiplicity = 1

 SCF Done:  E(UB3LYP) =  -933.086535120     A.U. after   20 cycles
 SCF Done:  E(UB3LYP) =  -933.083134499     A.U. after   17 cycles
 SCF Done:  E(UB3LYP) =  -933.087325829     A.U. after   16 cycles
 SCF Done:  E(UB3LYP) =  -933.087575054     A.U. after   16 cycles
 SCF Done:  E(UB3LYP) =  -933.087833393     A.U. after   14 cycles
 SCF Done:  E(UB3LYP) =  -933.087912179     A.U. after   14 cycles
 SCF Done:  E(UB3LYP) =  -933.087941648     A.U. after   14 cycles
 SCF Done:  E(UB3LYP) =  -933.087960876     A.U. after   14 cycles
 SCF Done:  E(UB3LYP) =  -933.087969729     A.U. after   13 cycles
 SCF Done:  E(UB3LYP) =  -933.087972548     A.U. after   13 cycles
 SCF Done:  E(UB3LYP) =  -933.087973216     A.U. after   12 cycles
 SCF Done:  E(UB3LYP) =  -933.087973365     A.U. after   11 cycles
 SCF Done:  E(UB3LYP) =  -933.087973445     A.U. after   11 cycles
 SCF Done:  E(UB3LYP) =  -933.087973475     A.U. after   11 cycles
 Optimization completed.
    -- Stationary point found.
 Normal termination of Gaussian 16 at Sat Feb 10 19:53:15 2024.

 ----------------------------------------------------------------------
 #P Geom=AllCheck Guess=TCheck SCRF=Check GenChk UB3LYP/6-311++G(d,p) F
 req
 ----------------------------------------------------------------------

 Structure from the checkpoint file:  "175-an.chk"
 -------
 Reduced
 -------
 Charge = -2 Multiplicity = 1

                          Input orientation:
 ---------------------------------------------------------------------
 Center     Atomic      Atomic             Coordinates (Angstroms)
 Number     Number       Type             X           Y           Z
 ---------------------------------------------------------------------
      1          6           0        4.419420   -0.097871   -0.158321
      2          6           0        2.950536    0.251181   -0.211925
      3          6           0        2.603355    1.584602   -0.524105
      4          6           0        1.290529    2.021478   -0.452004
      5          6           0        0.227649    1.158791   -0.158743
      6          6           0       -1.122486    1.694078   -0.166083
      7          8           0       -1.370738    2.936769   -0.324329
      8          6           0       -2.182394    0.709178   -0.033359
      9          6           0       -3.534776    1.130189   -0.027008
     10          6           0       -4.575518    0.229313    0.063501
     11          6           0       -4.290420   -1.154297    0.147649
     12          6           0       -2.982633   -1.592423    0.140117
     13          6           0       -1.888450   -0.691543    0.055646
     14          6           0       -0.529109   -1.223240    0.063914
     15          8           0       -0.324741   -2.497548    0.072703
     16          6           0        0.512389   -0.252050    0.051192
     17          6           0        1.913983   -0.621239    0.129638
     18          7           0        2.286643   -1.858016    0.746587
     19          8           0        3.181107   -2.573679    0.211578
     20          8           0        1.748738   -2.189536    1.826071
     21          1           0        4.712330   -0.709574   -1.015200
     22          1           0        4.676887   -0.671610    0.734039
     23          1           0        5.016185    0.816480   -0.169703
     24          1           0        3.396127    2.286974   -0.757618
     25          1           0        1.054555    3.063807   -0.635001
     26          1           0       -3.728669    2.194353   -0.098463
     27          1           0       -5.603970    0.575190    0.068103
     28          1           0       -5.103329   -1.870380    0.218481
     29          1           0       -2.753202   -2.649378    0.202642
 ---------------------------------------------------------------------

 SCF Done:  E(UB3LYP) =  -933.087973475     A.U. after    2 cycles

 Alpha  occ. eigenvalues --  -19.11452 -19.11028 -19.04579 -19.02484 -14.49009
 Alpha  occ. eigenvalues --  -10.20193 -10.19925 -10.18709 -10.18232 -10.16279
 Alpha  occ. eigenvalues --  -10.16086 -10.15903 -10.15831 -10.15771 -10.15546
 Alpha  occ. eigenvalues --  -10.15448 -10.15391 -10.15217 -10.15150 -10.14848
 Alpha  occ. eigenvalues --   -1.16804  -0.99525  -0.96485  -0.94101  -0.85433
 Alpha  occ. eigenvalues --   -0.83743  -0.78373  -0.76953  -0.73986  -0.73346
 Alpha  occ. eigenvalues --   -0.69427  -0.66887  -0.63448  -0.61209  -0.59527
 Alpha  occ. eigenvalues --   -0.56095  -0.53671  -0.52477  -0.50395  -0.48765
 Alpha  occ. eigenvalues --   -0.47892  -0.47815  -0.44730  -0.44571  -0.43318
 Alpha  occ. eigenvalues --   -0.42677  -0.41223  -0.40842  -0.40165  -0.39141
 Alpha  occ. eigenvalues --   -0.38362  -0.37672  -0.36914  -0.36100  -0.34789
 Alpha  occ. eigenvalues --   -0.34247  -0.33816  -0.32906  -0.31612  -0.30975
 Alpha  occ. eigenvalues --   -0.28278  -0.27711  -0.26840  -0.24048  -0.23600
 Alpha  occ. eigenvalues --   -0.22972  -0.22489  -0.21885  -0.20125  -0.11932
 Alpha virt. eigenvalues --   -0.06789  -0.02835  -0.00552   0.00035   0.00614
 Alpha virt. eigenvalues --    0.01079   0.01610   0.02310   0.02755   0.03686
 Alpha virt. eigenvalues --    0.04456   0.04573   0.05209   0.05245   0.06451

  Beta  occ. eigenvalues --  -19.11452 -19.11028 -19.04579 -19.02484 -14.49009
  Beta  occ. eigenvalues --  -10.20193 -10.19925 -10.18709 -10.18232 -10.16279
  Beta  occ. eigenvalues --  -10.16086 -10.15903 -10.15831 -10.15771 -10.15546
  Beta  occ. eigenvalues --  -10.15448 -10.15391 -10.15217 -10.15150 -10.14848
  Beta  occ. eigenvalues --   -1.16804  -0.99525  -0.96485  -0.94101  -0.85433
  Beta  occ. eigenvalues --   -0.83743  -0.78373  -0.76953  -0.73986  -0.73346
  Beta  occ. eigenvalues --   -0.69427  -0.66887  -0.63448  -0.61209  -0.59527
  Beta  occ. eigenvalues --   -0.56095  -0.53671  -0.52477  -0.50395  -0.48765
  Beta  occ. eigenvalues --   -0.47892  -0.47815  -0.44730  -0.44571  -0.43318
  Beta  occ. eigenvalues --   -0.42677  -0.41223  -0.40842  -0.40165  -0.39141
  Beta  occ. eigenvalues --   -0.38362  -0.37672  -0.36914  -0.36100  -0.34789
  Beta  occ. eigenvalues --   -0.34247  -0.33816  -0.32906  -0.31612  -0.30975
  Beta  occ. eigenvalues --   -0.28278  -0.27711  -0.26840  -0.24048  -0.23600
  Beta  occ. eigenvalues --   -0.22972  -0.22489  -0.21885  -0.20125  -0.11932
  Beta virt. eigenvalues --   -0.06789  -0.02835  -0.00552   0.00035   0.00614
  Beta virt. eigenvalues --    0.01079   0.01610   0.02310   0.02755   0.03686
  Beta virt. eigenvalues --    0.04456   0.04573   0.05209   0.05245   0.06451

 Mulliken charges and spin densities:
               1          2
     1  C   -0.518725   0.000000
     2  C    0.530235  -0.000001
     3  C   -0.755786   0.000000
     4  C   -0.282088  -0.000000
     5  C    0.628814  -0.000000
     6  C   -0.318501  -0.000002
     7  O   -0.549717  -0.000002
     8  C    0.399812  -0.000000
     9  C    0.045999  -0.000001
    10  C   -0.526308  -0.000000
    11  C   -0.513158  -0.000001
    12  C    0.037158   0.000000
    13  C    0.082935  -0.000001
    14  C   -0.831402  -0.000000
    15  O   -0.577791  -0.000002
    16  C    0.089851   0.000001
    17  C    0.105127   0.000001
    18  N   -0.225347   0.000003
    19  O   -0.166618   0.000002
    20  O   -0.135630   0.000002
    21  H    0.194599  -0.000000
    22  H    0.177730  -0.000000
    23  H    0.145245   0.000000
    24  H    0.155307  -0.000000
    25  H    0.158811  -0.000000
    26  H    0.155506   0.000000
    27  H    0.166641   0.000000
    28  H    0.169056   0.000000
    29  H    0.158245  -0.000000
 Sum of Mulliken charges =  -2.00000   0.00000

 Dipole moment (field-independent basis, Debye):
    X=              0.1449    Y=              7.3189    Z=             -2.5952  Tot=              7.7668
 Quadrupole moment (field-independent basis, Debye-Ang):
   XX=           -148.1066   YY=           -186.9625   ZZ=           -132.7849
   XY=             29.8487   XZ=             -7.1253   YZ=             10.6966

  Exact polarizability: 757.080-128.305 470.718  31.450 -66.179 198.841
 Approx polarizability: 919.178-221.973 616.804  53.415 -96.716 243.198

                      1                      2                      3
                      A                      A                      A
 Frequencies --     46.5908                60.1855               101.3272
 Red. masses --      5.3896                 8.0844                 5.9218
 Frc consts  --      0.0069                 0.0173                 0.0358
 IR Inten    --     34.7000                22.4869                61.5127

                      4                      5                      6
                      A                      A                      A
 Frequencies --    117.6840               133.0124               162.7103
 Red. masses --      4.6551                 5.4697                 7.1286
 Frc consts  --      0.0380                 0.0570                 0.1112
 IR Inten    --     11.0848                 9.7795                 0.3640

                      7                      8                      9
                      A                      A                      A
 Frequencies --    180.9974               200.0695               210.1506
 Red. masses --      1.0862                 9.7136                 6.5234
 Frc consts  --      0.0210                 0.2291                 0.1697
 IR Inten    --      1.0446                 6.1317                 7.8826

                     10                     11                     12
                      A                      A                      A
 Frequencies --    257.8333               285.6428               296.0831
 Red. masses --      5.2710                 5.1587                 5.2979
 Frc consts  --      0.2065                 0.2480                 0.2736
 IR Inten    --     12.6181                21.4266                 7.5784

                     13                     14                     15
                      A                      A                      A
 Frequencies --    320.4517               345.9699               367.7263
 Red. masses --      9.8521                 7.3574                10.4158
 Frc consts  --      0.5961                 0.5189                 0.8298
 IR Inten    --     25.1969                19.5106                 8.7962

                     16                     17                     18
                      A                      A                      A
 Frequencies --    390.1951               421.9353               441.0549
 Red. masses --      5.5002                 4.7992                 5.9402
 Frc consts  --      0.4934                 0.5034                 0.6808
 IR Inten    --      3.6882                36.9229                48.5031

                     19                     20                     21
                      A                      A                      A
 Frequencies --    447.5120               475.0212               485.6180
 Red. masses --      4.2523                 4.3336                 9.9664
 Frc consts  --      0.5017                 0.5761                 1.3848
 IR Inten    --      4.3702                19.9053               335.8893

                     22                     23                     24
                      A                      A                      A
 Frequencies --    538.4356               581.8402               588.7907
 Red. masses --      4.2532                 6.0832                 5.5050
 Frc consts  --      0.7265                 1.2134                 1.1244
 IR Inten    --     44.1080                27.9306                 1.7941

                     25                     26                     27
                      A                      A                      A
 Frequencies --    627.5137               648.6898               666.0685
 Red. masses --      5.8254                 7.0195                 5.6709
 Frc consts  --      1.3515                 1.7403                 1.4823
 IR Inten    --    250.6265                 3.8941                17.1657

                     28                     29                     30
                      A                      A                      A
 Frequencies --    685.7200               706.6541               734.9575
 Red. masses --      6.3659                 2.5414                 9.0493
 Frc consts  --      1.7636                 0.7477                 2.8800
 IR Inten    --     32.7335               125.7277                51.9834

                     31                     32                     33
                      A                      A                      A
 Frequencies --    748.2343               756.7374               783.6266
 Red. masses --      5.2626                 5.4860                 1.7133
 Frc consts  --      1.7359                 1.8510                 0.6199
 IR Inten    --     10.3618                24.0254                18.1790

                     34                     35                     36
                      A                      A                      A
 Frequencies --    791.5867               818.6971               824.4905
 Red. masses --      2.3667                 2.3210                 6.7396
 Frc consts  --      0.8738                 0.9166                 2.6993
 IR Inten    --     45.5302                27.0242               119.7238

                     37                     38                     39
                      A                      A                      A
 Frequencies --    875.6239               892.9203               977.3531
 Red. masses --      1.5698                 6.6495                 2.2032
 Frc consts  --      0.7091                 3.1237                 1.2399
 IR Inten    --      0.5052               197.7563               574.3967

                     40                     41                     42
                      A                      A                      A
 Frequencies --    982.0780               986.1251               987.7141
 Red. masses --      1.3736                 1.3897                 6.0706
 Frc consts  --      0.7806                 0.7962                 3.4893
 IR Inten    --     60.4880                35.8383                29.2610

                     43                     44                     45
                      A                      A                      A
 Frequencies --    994.1565              1029.7332              1049.7126
 Red. masses --      1.2756                 2.0066                 1.5325
 Frc consts  --      0.7428                 1.2536                 0.9949
 IR Inten    --      0.6503               405.3594                25.0227

                     46                     47                     48
                      A                      A                      A
 Frequencies --   1059.4291              1094.7436              1108.4537
 Red. masses --      2.9117                 3.1474                 2.2775
 Frc consts  --      1.9255                 2.2224                 1.6487
 IR Inten    --   1709.5639              7114.7938               609.2375

                     49                     50                     51
                      A                      A                      A
 Frequencies --   1136.5271              1162.1354              1172.7342
 Red. masses --      2.0160                 2.0157                 1.5235
 Frc consts  --      1.5342                 1.6039                 1.2345
 IR Inten    --     75.0814               155.9608              1560.9798

                     52                     53                     54
                      A                      A                      A
 Frequencies --   1199.4435              1210.7749              1235.7218
 Red. masses --      1.8932                 4.7453                 3.4718
 Frc consts  --      1.6048                 4.0987                 3.1235
 IR Inten    --    148.5019               468.9273               395.8749

                     55                     56                     57
                      A                      A                      A
 Frequencies --   1260.1697              1300.3759              1344.2160
 Red. masses --      2.4778                 3.2524                 5.0258
 Frc consts  --      2.3184                 3.2404                 5.3505
 IR Inten    --     15.3240               323.6118                31.3971

                     58                     59                     60
                      A                      A                      A
 Frequencies --   1353.4527              1387.2019              1393.4389
 Red. masses --      9.3331                 3.4029                 5.3151
 Frc consts  --     10.0731                 3.8581                 6.0804
 IR Inten    --    175.9769              1027.3433               212.5216

                     61                     62                     63
                      A                      A                      A
 Frequencies --   1409.4927              1425.7582              1442.8177
 Red. masses --      1.2561                 7.6309                 3.0302
 Frc consts  --      1.4702                 9.1394                 3.7166
 IR Inten    --     43.2259               545.5549                63.0590

                     64                     65                     66
                      A                      A                      A
 Frequencies --   1456.1575              1474.0605              1483.3515
 Red. masses --      2.7516                 1.0819                 1.7913
 Frc consts  --      3.4376                 1.3851                 2.3222
 IR Inten    --     28.4185                20.8190               119.1578

                     67                     68                     69
                      A                      A                      A
 Frequencies --   1491.4542              1495.5496              1540.4821
 Red. masses --      2.5660                 3.4432                 4.1821
 Frc consts  --      3.3630                 4.5375                 5.8473
 IR Inten    --    401.3631               102.0714                37.5232

                     70                     71                     72
                      A                      A                      A
 Frequencies --   1568.6984              1600.7675              1619.6340
 Red. masses --      6.4601                 7.4201                 5.7293
 Frc consts  --      9.3664                11.2026                 8.8549
 IR Inten    --    413.0303               172.1720                31.8716

                     73                     74                     75
                      A                      A                      A
 Frequencies --   3034.8190              3089.7682              3104.7942
 Red. masses --      1.0356                 1.0999                 1.1026
 Frc consts  --      5.6197                 6.1865                 6.2623
 IR Inten    --     69.4075                30.2913                35.5144

                     76                     77                     78
                      A                      A                      A
 Frequencies --   3147.5191              3159.5507              3163.1192
 Red. masses --      1.0856                 1.0870                 1.0899
 Frc consts  --      6.3367                 6.3932                 6.4248
 IR Inten    --     20.4944                18.5293                34.4226

                     79                     80                     81
                      A                      A                      A
 Frequencies --   3179.1922              3180.8313              3189.1670
 Red. masses --      1.0926                 1.0927                 1.0916
 Frc consts  --      6.5064                 6.5139                 6.5413
 IR Inten    --     44.4015                58.6499                50.9377

 - Thermochemistry -
 -------------------
 Temperature   298.150 Kelvin.  Pressure   1.00000 Atm.
 Atom     1 has atomic number  6 and mass  12.00000

 Molecular mass:   267.05316 amu.
 Principal axes and moments of inertia in atomic units:
                           1         2         3
     Eigenvalues --  2712.276986730.340449148.10104
           X            0.98635   0.16468   0.00164
           Y           -0.16137   0.96441   0.20947
           Z            0.03291  -0.20688   0.97781
 This molecule is an asymmetric top.
 Rotational symmetry number  1.
 Warning -- assumption of classical behavior for rotation
           may cause significant error
 Rotational temperatures (Kelvin)      0.03193     0.01287     0.00947
 Rotational constants (GHZ):           0.66540     0.26815     0.19728
 Zero-point vibrational energy     536531.3 (Joules/Mol)
                                  128.23407 (Kcal/Mol)
 Warning -- explicit consideration of  24 degrees of freedom as
           vibrations may cause significant error
 Vibrational temperatures:     67.03    86.59   145.79   169.32   191.38
          (Kelvin)            234.10   260.41   287.86   302.36   370.96
                              410.98   426.00   461.06   497.77   529.08
                              561.40   607.07   634.58   643.87   683.45
                              698.70   774.69   837.14   847.14   902.85
                              933.32   958.32   986.60  1016.72  1057.44
                             1076.54  1088.78  1127.46  1138.92  1177.92
                             1186.26  1259.83  1284.71  1406.19  1412.99
                             1418.81  1421.10  1430.37  1481.56  1510.30
                             1524.28  1575.09  1594.82  1635.21  1672.05
                             1687.30  1725.73  1742.04  1777.93  1813.10
                             1870.95  1934.03  1947.32  1995.87  2004.85
                             2027.95  2051.35  2075.89  2095.09  2120.84
                             2134.21  2145.87  2151.76  2216.41  2257.01
                             2303.15  2330.29  4366.43  4445.49  4467.11
                             4528.58  4545.89  4551.02  4574.15  4576.51
                             4588.50

 Zero-point correction=                           0.204354 (Hartree/Particle)
 Thermal correction to Energy=                    0.219775
 Thermal correction to Enthalpy=                  0.220719
 Thermal correction to Gibbs Free Energy=         0.161949
 Sum of electronic and zero-point Energies=           -932.883619
 Sum of electronic and thermal Energies=              -932.868198
 Sum of electronic and thermal Enthalpies=            -932.867254
 Sum of electronic and thermal Free Energies=         -932.926025

                     E (Thermal)             CV                S
                      KCal/Mol        Cal/Mol-Kelvin    Cal/Mol-Kelvin
 Total                  137.911             61.391            123.693
 Electronic               0.000              0.000              0.000
 Translational            0.889              2.981             42.646
 Rotational               0.889              2.981             33.479
 Vibrational            136.133             55.430             47.569
 Vibration     1          0.595              1.979              4.957
 Vibration     2          0.597              1.973              4.451
 Vibration     3          0.604              1.948              3.429
 Vibration     4          0.608              1.935              3.138
 Vibration     5          0.613              1.920              2.902
 Vibration     6          0.623              1.888              2.518
 Vibration     7          0.630              1.866              2.318
 Vibration     8          0.638              1.840              2.132
 Vibration     9          0.642              1.825              2.042
 Vibration    10          0.667              1.750              1.676
 Vibration    11          0.683              1.700              1.500
 Vibration    12          0.690              1.681              1.439
 Vibration    13          0.706              1.634              1.308
 Vibration    14          0.724              1.583              1.184
 Vibration    15          0.740              1.539              1.089
 Vibration    16          0.758              1.491              0.999
 Vibration    17          0.784              1.423              0.885
 Vibration    18          0.801              1.381              0.823
 Vibration    19          0.807              1.366              0.803
 Vibration    20          0.832              1.305              0.724
 Vibration    21          0.842              1.282              0.695
 Vibration    22          0.893              1.165              0.569
 Vibration    23          0.939              1.071              0.482
 Vibration    24          0.946              1.056              0.469

 Optimization completed.
    -- Stationary point found.
 Normal termination of Gaussian 16 at Sat Feb 10 21:11:45 2024.
