 Q-Chem 5.4, Q-Chem, Inc., Pleasanton, CA (2021)
 Q-Chem 5.4.0 for Intel X86 EM64T Linux

User input:
--------------------------------------------------------------
$molecule
-2 1
O                  4.8930030000      0.8889110000     -0.7218100000
C                  3.6297890000      0.3090650000     -0.5171080000
C                  3.5204460000     -1.1056140000     -0.4374380000
C                  2.2698340000     -1.6624870000     -0.2201470000
C                  1.1057540000     -0.8848350000     -0.1062110000
C                 -0.1787710000     -1.5554020000      0.1073160000
O                 -0.2358230000     -2.8156600000      0.1945540000
C                 -1.3443610000     -0.6726220000      0.2104090000
C                 -2.6650860000     -1.1820850000      0.4149130000
O                 -2.8900510000     -2.5604600000      0.5196210000
C                 -3.7451860000     -0.3300460000      0.5131530000
C                 -3.6041590000      1.0727750000      0.4121880000
C                 -2.3560190000      1.6685070000      0.2110800000
O                 -2.2106590000      2.9674170000      0.1173830000
C                 -1.1938870000      0.7694760000      0.1074730000
C                  0.0857420000      1.3510220000     -0.1016670000
O                  0.2282130000      2.7150790000     -0.2028770000
C                  1.2263060000      0.5499920000     -0.2080110000
C                  2.5325040000      1.1154160000     -0.3997410000
H                  5.5432700000      0.2629130000     -0.3801880000
H                  4.4000950000     -1.7300050000     -0.5838070000
H                  2.1415110000     -2.7379680000     -0.1483750000
H                 -3.8470890000     -2.6487800000      0.5824470000
H                 -4.7378260000     -0.7576280000      0.6761530000
H                 -4.4712140000      1.7233230000      0.4925270000
H                 -0.7326750000      3.0571080000     -0.0902200000
H                  2.6363400000      2.1925890000     -0.4416180000
$end
$rem
MAX_SCF_CYCLES=200
BASIS  =  6-311++G(d,p)
GUI  =  2
JOB_TYPE  =  SP
METHOD  =  B3LYP
SOLVENT_METHOD = COSMO
$end
$solvent
dielectric 37.219
opticaldielectric 1.43
$end

--------------------------------------------------------------

             Standard Nuclear Orientation (Angstroms)
    I     Atom           X                Y                Z
 ----------------------------------------------------------------
    1      O       4.9981169276    -0.7543260369     0.0159957197
    2      C       3.7081943420    -0.1976301999     0.0111613993
    3      C       3.5625536562     1.2159471677     0.0255728492
    4      C       2.2838905043     1.7507038263     0.0053453595
    5      C       1.1298766582     0.9500513506     0.0016106903
    6      C      -0.1840477669     1.5972207974    -0.0041049921
    7      O      -0.2759465909     2.8584096063    -0.0126501966
    8      C      -1.3361372914     0.6910107195    -0.0027763872
    9      C      -2.6816990411     1.1759349060    -0.0038114153
   10      O      -2.9445495628     2.5515775680    -0.0010679217
   11      C      -3.7490038274     0.3023864798    -0.0071588610
   12      C      -3.5693722326    -1.0996519241    -0.0039795331
   13      C      -2.2945633840    -1.6724095627    -0.0016151903
   14      O      -2.1135628300    -2.9702204749    -0.0003981445
   15      C      -1.1461401925    -0.7500940980    -0.0010752459
   16      C       0.1606691637    -1.3082931810     0.0059073983
   17      O       0.3410313414    -2.6716102080     0.0113034981
   18      C       1.2899320812    -0.4845157575     0.0065115845
   19      C       2.6204664182    -1.0250078356    -0.0063180406
   20      H       5.5855693594    -0.0944011118    -0.3723662145
   21      H       4.4418681703     1.8544705020     0.0901042770
   22      H       2.1268966247     2.8247600896     0.0111297207
   23      H      -3.9029916474     2.6180939445     0.0670026620
   24      H      -4.7623844095     0.7119390061    -0.0146461938
   25      H      -4.4269830013    -1.7674467925    -0.0062624018
   26      H      -0.6196768811    -3.0321628142     0.0065375424
   27      H       2.7492729742    -2.0998125901    -0.0385807252
 ----------------------------------------------------------------

   13    -914.6851502826      7.68e-06  Convergence criterion met
 Total energy in the final basis set =     -914.6851502826
    6    -914.9645354195      3.58e-06  Convergence criterion met
 Total energy in the final basis set =     -914.9645354195

                    Orbital Energies (a.u.)
 --------------------------------------------------------------

 Alpha MOs
 -- Occupied --
-19.1430 -19.1269 -19.0947 -19.0501 -19.0374 -10.2200 -10.2023 -10.2010
-10.1954 -10.1872 -10.1596 -10.1568 -10.1564 -10.1561 -10.1519 -10.1508
-10.1448 -10.1434 -10.1320  -1.0437  -1.0320  -1.0129  -0.9649  -0.9567
 -0.8397  -0.8123  -0.7635  -0.7386  -0.7145  -0.6998  -0.6535  -0.6160
 -0.6117  -0.5680  -0.5633  -0.5270  -0.5248  -0.5004  -0.4755  -0.4657
 -0.4479  -0.4354  -0.4295  -0.4179  -0.4115  -0.4058  -0.3985  -0.3926
 -0.3760  -0.3740  -0.3710  -0.3658  -0.3579  -0.3525  -0.3377  -0.3360
 -0.3274  -0.3208  -0.3057  -0.2749  -0.2518  -0.2343  -0.2289  -0.2168
 -0.2071  -0.1811  -0.1212

          Ground-State Mulliken Net Atomic Charges

     Atom                 Charge (a.u.)
  ----------------------------------------
      1 O                    -0.349990
      2 C                    -0.585136
      3 C                    -0.020090
      4 C                    -0.110367
      5 C                    -0.296562
      6 C                    -0.250698
      7 O                    -0.617882
      8 C                     0.394023
      9 C                    -0.337651
     10 O                    -0.316942
     11 C                    -0.239510
     12 C                    -0.221690
     13 C                    -0.493112
     14 O                    -0.705166
     15 C                     0.752868
     16 C                    -0.080942
     17 O                    -0.551972
     18 C                     0.562705
     19 C                    -0.441654
     20 H                     0.308944
     21 H                     0.205518
     22 H                     0.165240
     23 H                     0.300148
     24 H                     0.162119
     25 H                     0.165516
     26 H                     0.424566
     27 H                     0.177714
  ----------------------------------------
  Sum of atomic charges =    -2.000000

                    Cartesian Multipole Moments
 -----------------------------------------------------------------
    Charge (ESU x 10^10)
                -9.6064
    Dipole Moment (Debye)
         X       5.2434      Y       3.7204      Z      -0.6096
       Tot       6.4580
    Quadrupole Moments (Debye-Ang)
        XX    -132.3421     XY      -4.3967     YY    -182.1420
        XZ      -4.9840     YZ       0.7444     ZZ    -120.7790

 Total job time:  191.49s(wall), 639.16s(cpu)
        *  Thank you very much for using Q-Chem.  Have a nice day.  *
