 Q-Chem 5.4, Q-Chem, Inc., Pleasanton, CA (2021)
 Q-Chem 5.4.0 for Intel X86 EM64T Linux

User input:
--------------------------------------------------------------
$molecule
0 1
C                 -4.0181030000     -1.0125070000      0.2426710000
C                 -2.6458070000     -0.3912100000      0.2517410000
C                 -2.4780770000      0.9757790000      0.4283140000
C                 -3.6625720000      1.8878780000      0.6138450000
C                 -1.1677720000      1.5330170000      0.4433040000
O                 -1.0587590000      2.8555410000      0.6301370000
C                 -0.0391450000      0.7164720000      0.2674820000
C                  1.2916810000      1.3121980000      0.2831330000
O                  1.4590050000      2.5342050000      0.4506480000
C                  2.4626090000      0.4219690000      0.0926280000
C                  3.7507060000      0.9672580000      0.1027000000
C                  4.8568900000      0.1454050000     -0.0745750000
C                  4.6873430000     -1.2295350000     -0.2637020000
C                  3.4118650000     -1.7804770000     -0.2752040000
C                  2.2920450000     -0.9612770000     -0.0975890000
C                  0.9369920000     -1.5641620000     -0.1123950000
O                  0.8024000000     -2.7899230000     -0.2819480000
C                 -0.2120360000     -0.6863030000      0.0754660000
C                 -1.5077770000     -1.2270240000      0.0675560000
O                 -1.7236490000     -2.5374270000     -0.1116250000
H                 -3.9555300000     -2.0973320000      0.2874700000
H                 -4.5605890000     -0.7445740000     -0.6709860000
H                 -4.6156190000     -0.6583750000      1.0863620000
H                 -4.1246090000      1.7312010000      1.5950410000
H                 -3.3651930000      2.9318790000      0.5478150000
H                 -4.4311480000      1.6917660000     -0.1379220000
H                 -0.0887890000      3.0684690000      0.6074950000
H                  3.8594480000      2.0342670000      0.2506230000
H                  5.8533980000      0.5720650000     -0.0661310000
H                  5.5525170000     -1.8679440000     -0.4017140000
H                  3.2580700000     -2.8423700000     -0.4199260000
H                 -0.8319940000     -2.9621270000     -0.2178650000
$end

$rem
BASIS  =  6-311++G(d,p)
GUI  =  2
JOB_TYPE  =  SP
METHOD  =  B3LYP
SCF_CONVERGENCE  = 8
SOLVENT_METHOD = sm12
$end

$smx
solvent dimethylformamide
charges CM5
$end

--------------------------------------------------------------

             Standard Nuclear Orientation (Angstroms)
    I     Atom           X                Y                Z
 ----------------------------------------------------------------
    1      C      -4.0181030000    -1.0125070000     0.2426710000
    2      C      -2.6458070000    -0.3912100000     0.2517410000
    3      C      -2.4780770000     0.9757790000     0.4283140000
    4      C      -3.6625720000     1.8878780000     0.6138450000
    5      C      -1.1677720000     1.5330170000     0.4433040000
    6      O      -1.0587590000     2.8555410000     0.6301370000
    7      C      -0.0391450000     0.7164720000     0.2674820000
    8      C       1.2916810000     1.3121980000     0.2831330000
    9      O       1.4590050000     2.5342050000     0.4506480000
   10      C       2.4626090000     0.4219690000     0.0926280000
   11      C       3.7507060000     0.9672580000     0.1027000000
   12      C       4.8568900000     0.1454050000    -0.0745750000
   13      C       4.6873430000    -1.2295350000    -0.2637020000
   14      C       3.4118650000    -1.7804770000    -0.2752040000
   15      C       2.2920450000    -0.9612770000    -0.0975890000
   16      C       0.9369920000    -1.5641620000    -0.1123950000
   17      O       0.8024000000    -2.7899230000    -0.2819480000
   18      C      -0.2120360000    -0.6863030000     0.0754660000
   19      C      -1.5077770000    -1.2270240000     0.0675560000
   20      O      -1.7236490000    -2.5374270000    -0.1116250000
   21      H      -3.9555300000    -2.0973320000     0.2874700000
   22      H      -4.5605890000    -0.7445740000    -0.6709860000
   23      H      -4.6156190000    -0.6583750000     1.0863620000
   24      H      -4.1246090000     1.7312010000     1.5950410000
   25      H      -3.3651930000     2.9318790000     0.5478150000
   26      H      -4.4311480000     1.6917660000    -0.1379220000
   27      H      -0.0887890000     3.0684690000     0.6074950000
   28      H       3.8594480000     2.0342670000     0.2506230000
   29      H       5.8533980000     0.5720650000    -0.0661310000
   30      H       5.5525170000    -1.8679440000    -0.4017140000
   31      H       3.2580700000    -2.8423700000    -0.4199260000
   32      H      -0.8319940000    -2.9621270000    -0.2178650000
 ----------------------------------------------------------------

   15    -918.1261216876      2.96e-09  Convergence criterion met
 Total energy in the final basis set =     -918.1505114174

                    Orbital Energies (a.u.)
 --------------------------------------------------------------

 Alpha MOs
 -- Occupied --
-19.1605 -19.1605 -19.1347 -19.1347 -10.2846 -10.2846 -10.2650 -10.2650
-10.2099 -10.2097 -10.2093 -10.2092 -10.2061 -10.2057 -10.1975 -10.1972
-10.1968 -10.1966 -10.1721 -10.1721  -1.0911  -1.0895  -1.0569  -1.0556
 -0.8949  -0.8801  -0.8313  -0.7851  -0.7812  -0.7729  -0.7356  -0.7121
 -0.6785  -0.6501  -0.6469  -0.6310  -0.5997  -0.5689  -0.5543  -0.5384
 -0.5351  -0.5021  -0.4927  -0.4813  -0.4744  -0.4622  -0.4605  -0.4512
 -0.4488  -0.4448  -0.4367  -0.4305  -0.4222  -0.4112  -0.4099  -0.3929
 -0.3906  -0.3883  -0.3806  -0.3776  -0.3754  -0.3727  -0.3669  -0.3280
 -0.2962  -0.2856  -0.2795  -0.2785  -0.2685  -0.2312

          Ground-State Mulliken Net Atomic Charges

     Atom                 Charge (a.u.)
  ----------------------------------------
      1 C                     0.124766
      2 C                     0.778560
      3 C                     0.781985
      4 C                     0.125011
      5 C                    -1.025178
      6 O                    -0.332539
      7 C                    -0.349605
      8 C                    -1.040830
      9 O                    -0.316870
     10 C                    -0.189187
     11 C                     0.357611
     12 C                     0.470365
     13 C                     0.469464
     14 C                     0.357443
     15 C                    -0.192343
     16 C                    -1.040676
     17 O                    -0.317084
     18 C                    -0.349294
     19 C                    -1.025009
     20 O                    -0.333130
     21 H                     0.184831
     22 H                     0.231637
     23 H                     0.230475
     24 H                     0.231316
     25 H                     0.185149
     26 H                     0.230300
     27 H                     0.340535
     28 H                     0.207760
     29 H                     0.328084
     30 H                     0.328062
     31 H                     0.207706
     32 H                     0.340685
  ----------------------------------------
  Sum of atomic charges =     0.000000

                    Cartesian Multipole Moments
 -----------------------------------------------------------------
    Charge (ESU x 10^10)
                 0.0000
    Dipole Moment (Debye)
         X       0.9729      Y      -0.1092      Z      -0.0683
       Tot       0.9814
    Quadrupole Moments (Debye-Ang)
        XX     -82.4977     XY      -5.4535     YY    -128.8209
        XZ      -2.4767     YZ      -1.3291     ZZ    -117.6323

 Total job time:  888.50s(wall), 6965.67s(cpu)
        *  Thank you very much for using Q-Chem.  Have a nice day.  *
