 Q-Chem 5.4, Q-Chem, Inc., Pleasanton, CA (2021)
 Q-Chem 5.4.0 for Intel X86 EM64T Linux

User input:
--------------------------------------------------------------
$molecule
0 1
C                 -3.5742300000      0.6914310000     -0.1489240000
O                 -2.7922350000     -0.4998200000     -0.0352670000
C                 -1.4709800000     -0.3871510000      0.0614320000
C                 -0.7564540000      0.7617950000      0.0645500000
C                  0.6967180000      0.7679510000      0.1986790000
O                  1.3261770000      1.8145430000      0.2630710000
C                  1.3993910000     -0.5731630000      0.2705490000
C                  0.6744560000     -1.7164350000      0.2781490000
C                 -0.7775460000     -1.7331110000      0.1769320000
O                 -1.4283430000     -2.7624900000      0.1734470000
O                  2.7286440000     -0.6735230000      0.3915980000
C                  3.6587170000      0.3968140000      0.1230270000
H                 -4.6071860000      0.3581710000     -0.2149800000
H                 -3.3029580000      1.2473870000     -1.0509180000
H                 -3.4422300000      1.3258090000      0.7322130000
H                 -1.2093750000      1.7415370000     -0.0049030000
H                  1.1669970000     -2.6779430000      0.3522000000
H                  3.4566560000      0.8619340000     -0.8415570000
H                  3.6242450000      1.1523640000      0.9050780000
H                  4.6295340000     -0.0961010000      0.1074190000
$end
$rem
MAX_SCF_CYCLES=200
BASIS  =  6-311++G(d,p)
GUI  =  2
JOB_TYPE  =  SP
METHOD  =  B3LYP
SOLVENT_METHOD = PCM
$end
$pcm
theory = CPCM
$end
$solvent
dielectric 37.219
opticaldielectric 1.43
$end

--------------------------------------------------------------

             Standard Nuclear Orientation (Angstroms)
    I     Atom           X                Y                Z
 ----------------------------------------------------------------
    1      C      -3.5742300000     0.6914310000    -0.1489240000
    2      O      -2.7922350000    -0.4998200000    -0.0352670000
    3      C      -1.4709800000    -0.3871510000     0.0614320000
    4      C      -0.7564540000     0.7617950000     0.0645500000
    5      C       0.6967180000     0.7679510000     0.1986790000
    6      O       1.3261770000     1.8145430000     0.2630710000
    7      C       1.3993910000    -0.5731630000     0.2705490000
    8      C       0.6744560000    -1.7164350000     0.2781490000
    9      C      -0.7775460000    -1.7331110000     0.1769320000
   10      O      -1.4283430000    -2.7624900000     0.1734470000
   11      O       2.7286440000    -0.6735230000     0.3915980000
   12      C       3.6587170000     0.3968140000     0.1230270000
   13      H      -4.6071860000     0.3581710000    -0.2149800000
   14      H      -3.3029580000     1.2473870000    -1.0509180000
   15      H      -3.4422300000     1.3258090000     0.7322130000
   16      H      -1.2093750000     1.7415370000    -0.0049030000
   17      H       1.1669970000    -2.6779430000     0.3522000000
   18      H       3.4566560000     0.8619340000    -0.8415570000
   19      H       3.6242450000     1.1523640000     0.9050780000
   20      H       4.6295340000    -0.0961010000     0.1074190000
 ----------------------------------------------------------------

    9    -610.6971596745      4.81e-06  Convergence criterion met
 Total energy in the final basis set =     -610.6971596745

                    Orbital Energies (a.u.)
 --------------------------------------------------------------

 Alpha MOs
 -- Occupied --
-19.1911 -19.1838 -19.1390 -19.1361 -10.2922 -10.2868 -10.2777 -10.2755
-10.2298 -10.2251 -10.1932 -10.1908  -1.1124  -1.1007  -1.0670  -1.0661
 -0.8582  -0.7950  -0.7466  -0.7277  -0.6788  -0.6313  -0.6031  -0.5527
 -0.5443  -0.5322  -0.4964  -0.4850  -0.4791  -0.4721  -0.4553  -0.4520
 -0.4389  -0.4346  -0.4196  -0.4114  -0.3782  -0.3706  -0.3647  -0.3599
 -0.2891  -0.2835  -0.2805  -0.2549

          Ground-State Mulliken Net Atomic Charges

     Atom                 Charge (a.u.)
  ----------------------------------------
      1 C                    -0.332248
      2 O                    -0.159703
      3 C                    -0.257306
      4 C                     0.835176
      5 C                    -0.434322
      6 O                    -0.297284
      7 C                     0.117491
      8 C                     0.230779
      9 C                    -0.555946
     10 O                    -0.339482
     11 O                    -0.209655
     12 C                    -0.307849
     13 H                     0.219453
     14 H                     0.190069
     15 H                     0.189473
     16 H                     0.275026
     17 H                     0.258763
     18 H                     0.188711
     19 H                     0.199622
     20 H                     0.189231
  ----------------------------------------
  Sum of atomic charges =     0.000000

                    Cartesian Multipole Moments
 -----------------------------------------------------------------
    Charge (ESU x 10^10)
                -0.0000
    Dipole Moment (Debye)
         X       0.2595      Y       4.1483      Z      -0.8325
       Tot       4.2390
    Quadrupole Moments (Debye-Ang)
        XX     -53.6658     XY     -14.6017     YY     -85.9373
        XZ      -0.2294     YZ      -0.1555     ZZ     -68.9797

 Total job time:  19.95s(wall), 142.19s(cpu)
        *  Thank you very much for using Q-Chem.  Have a nice day.  *
