 Q-Chem 5.4, Q-Chem, Inc., Pleasanton, CA (2021)
 Q-Chem 5.4.0 for Intel X86 EM64T Linux

User input:
--------------------------------------------------------------
$molecule
0 1
C                 -0.2813380000      3.8277270000     -0.2049140000
C                 -1.5009200000      3.2198460000     -0.4864350000
C                 -1.5400720000      1.8765220000     -0.8646210000
C                  0.8997580000      3.0882560000     -0.3029590000
C                  0.8636270000      1.7366020000     -0.6829820000
C                 -0.3629890000      1.1367190000     -0.9624350000
C                  2.1997990000      3.7173910000     -0.0075430000
C                  3.4307270000      2.8850750000     -0.1329490000
C                  3.4206310000      1.5766590000     -0.4882910000
C                  2.1269150000      0.9294730000     -0.7915690000
O                  2.3341060000      4.8866400000      0.3359000000
O                  2.0753700000     -0.2466970000     -1.1235150000
H                 -0.2253940000      4.8681840000      0.0908860000
H                 -2.4196620000      3.7899910000     -0.4119590000
H                 -2.4912770000      1.4047620000     -1.0836670000
H                 -0.3754750000      0.0939320000     -1.2542270000
O                  4.5657480000      3.5464040000      0.1466590000
C                  4.6791100000      0.7656340000     -0.6178520000
C                  5.2488300000      0.7709920000     -2.0528590000
C                  6.5256330000     -0.0661040000     -2.1807230000
C                  7.1095400000     -0.0701350000     -3.5980000000
C                  8.3873180000     -0.9064920000     -3.7316810000
H                  4.2974540000      4.4540190000      0.3856990000
H                  4.4582660000     -0.2649000000     -0.3289120000
H                  5.4313590000      1.1592710000      0.0705050000
H                  5.4555290000      1.8044800000     -2.3532190000
H                  4.4877560000      0.3860090000     -2.7397860000
H                  6.3129610000     -1.0977860000     -1.8730840000
H                  7.2797360000      0.3134420000     -1.4791800000
H                  7.3193890000      0.9624430000     -3.9057270000
H                  6.3543780000     -0.4487840000     -4.2987050000
H                  8.1772250000     -1.9389630000     -3.4236830000
H                  9.1421400000     -0.5282620000     -3.0300210000
C                  8.9725800000     -0.9115720000     -5.1482150000
H                  9.1829830000      0.1208190000     -5.4571240000
H                  8.2182040000     -1.2898720000     -5.8505250000
C                 10.2503030000     -1.7475690000     -5.2840620000
C                 10.8273250000     -1.7464010000     -6.7027160000
H                 10.0403380000     -2.7792540000     -4.9763550000
H                 11.0045320000     -1.3696180000     -4.5830070000
H                 10.1088680000     -2.1519100000     -7.4222460000
H                 11.7366290000     -2.3507670000     -6.7656210000
H                 11.0802730000     -0.7315760000     -7.0260000000
$end

$rem
BASIS  =  6-311++G(d,p)
GUI  =  2
JOB_TYPE  =  SP
METHOD  =  B3LYP
SCF_CONVERGENCE  = 8
SOLVENT_METHOD = sm12
$end

$smx
solvent dimethylformamide
charges CM5
$end

--------------------------------------------------------------

             Standard Nuclear Orientation (Angstroms)
    I     Atom           X                Y                Z
 ----------------------------------------------------------------
    1      C      -0.2813380000     3.8277270000    -0.2049140000
    2      C      -1.5009200000     3.2198460000    -0.4864350000
    3      C      -1.5400720000     1.8765220000    -0.8646210000
    4      C       0.8997580000     3.0882560000    -0.3029590000
    5      C       0.8636270000     1.7366020000    -0.6829820000
    6      C      -0.3629890000     1.1367190000    -0.9624350000
    7      C       2.1997990000     3.7173910000    -0.0075430000
    8      C       3.4307270000     2.8850750000    -0.1329490000
    9      C       3.4206310000     1.5766590000    -0.4882910000
   10      C       2.1269150000     0.9294730000    -0.7915690000
   11      O       2.3341060000     4.8866400000     0.3359000000
   12      O       2.0753700000    -0.2466970000    -1.1235150000
   13      H      -0.2253940000     4.8681840000     0.0908860000
   14      H      -2.4196620000     3.7899910000    -0.4119590000
   15      H      -2.4912770000     1.4047620000    -1.0836670000
   16      H      -0.3754750000     0.0939320000    -1.2542270000
   17      O       4.5657480000     3.5464040000     0.1466590000
   18      C       4.6791100000     0.7656340000    -0.6178520000
   19      C       5.2488300000     0.7709920000    -2.0528590000
   20      C       6.5256330000    -0.0661040000    -2.1807230000
   21      C       7.1095400000    -0.0701350000    -3.5980000000
   22      C       8.3873180000    -0.9064920000    -3.7316810000
   23      H       4.2974540000     4.4540190000     0.3856990000
   24      H       4.4582660000    -0.2649000000    -0.3289120000
   25      H       5.4313590000     1.1592710000     0.0705050000
   26      H       5.4555290000     1.8044800000    -2.3532190000
   27      H       4.4877560000     0.3860090000    -2.7397860000
   28      H       6.3129610000    -1.0977860000    -1.8730840000
   29      H       7.2797360000     0.3134420000    -1.4791800000
   30      H       7.3193890000     0.9624430000    -3.9057270000
   31      H       6.3543780000    -0.4487840000    -4.2987050000
   32      H       8.1772250000    -1.9389630000    -3.4236830000
   33      H       9.1421400000    -0.5282620000    -3.0300210000
   34      C       8.9725800000    -0.9115720000    -5.1482150000
   35      H       9.1829830000     0.1208190000    -5.4571240000
   36      H       8.2182040000    -1.2898720000    -5.8505250000
   37      C      10.2503030000    -1.7475690000    -5.2840620000
   38      C      10.8273250000    -1.7464010000    -6.7027160000
   39      H      10.0403380000    -2.7792540000    -4.9763550000
   40      H      11.0045320000    -1.3696180000    -4.5830070000
   41      H      10.1088680000    -2.1519100000    -7.4222460000
   42      H      11.7366290000    -2.3507670000    -6.7656210000
   43      H      11.0802730000    -0.7315760000    -7.0260000000
 ----------------------------------------------------------------

   15    -925.1192739470      8.99e-09  Convergence criterion met
 Total energy in the final basis set =     -925.1424778391

                    Orbital Energies (a.u.)
 --------------------------------------------------------------

 Alpha MOs
 -- Occupied --
-19.1788 -19.1484 -19.1260 -10.2922 -10.2782 -10.2672 -10.2106 -10.2092
-10.2041 -10.2006 -10.1987 -10.1970 -10.1968 -10.1768 -10.1691 -10.1654
-10.1641 -10.1635 -10.1633 -10.1630 -10.1577  -1.1088  -1.0666  -1.0593
 -0.8920  -0.8446  -0.8141  -0.7976  -0.7800  -0.7775  -0.7497  -0.7147
 -0.6899  -0.6628  -0.6509  -0.6248  -0.6054  -0.5961  -0.5800  -0.5775
 -0.5733  -0.5419  -0.5177  -0.4967  -0.4863  -0.4782  -0.4724  -0.4660
 -0.4637  -0.4520  -0.4475  -0.4392  -0.4299  -0.4286  -0.4236  -0.4207
 -0.4075  -0.4064  -0.3954  -0.3900  -0.3813  -0.3757  -0.3713  -0.3642
 -0.3605  -0.3597  -0.3382  -0.3382  -0.3279  -0.3269  -0.3243  -0.3130
 -0.3015  -0.2889  -0.2791  -0.2764  -0.2571

          Ground-State Mulliken Net Atomic Charges

     Atom                 Charge (a.u.)
  ----------------------------------------
      1 C                     0.387539
      2 C                     0.403382
      3 C                     0.395819
      4 C                     0.538332
      5 C                    -0.650180
      6 C                    -0.025010
      7 C                    -1.094653
      8 C                    -0.524628
      9 C                     1.500687
     10 C                    -1.489209
     11 O                    -0.293240
     12 O                    -0.285440
     13 H                     0.218063
     14 H                     0.329653
     15 H                     0.316871
     16 H                     0.185797
     17 O                    -0.198084
     18 C                    -0.250015
     19 C                    -0.696848
     20 C                     0.087830
     21 C                     0.056236
     22 C                    -0.055129
     23 H                     0.293698
     24 H                     0.182068
     25 H                     0.228317
     26 H                     0.140701
     27 H                     0.116294
     28 H                     0.104318
     29 H                     0.105376
     30 H                     0.110764
     31 H                     0.108113
     32 H                     0.113238
     33 H                     0.113992
     34 C                    -0.412678
     35 H                     0.104843
     36 H                     0.103367
     37 C                    -0.310352
     38 C                    -0.659679
     39 H                     0.127931
     40 H                     0.128614
     41 H                     0.141487
     42 H                     0.160218
     43 H                     0.141596
  ----------------------------------------
  Sum of atomic charges =     0.000000

                    Cartesian Multipole Moments
 -----------------------------------------------------------------
    Charge (ESU x 10^10)
                 0.0000
    Dipole Moment (Debye)
         X      -2.7212      Y       1.1836      Z      -0.0125
       Tot       2.9675
    Quadrupole Moments (Debye-Ang)
        XX    -122.7243     XY      -5.3253     YY    -130.3868
        XZ       2.3563     YZ      -2.0302     ZZ    -131.0615

 Total job time:  1498.43s(wall), 11681.13s(cpu)
        *  Thank you very much for using Q-Chem.  Have a nice day.  *
