 Q-Chem 5.4, Q-Chem, Inc., Pleasanton, CA (2021)
 Q-Chem 5.4.0 for Intel X86 EM64T Linux

User input:
--------------------------------------------------------------
$molecule
0 1
Cl                 3.1062080000     -0.1883210000      0.0315640000
C                  1.3812120000     -0.0241180000      0.0142390000
C                  0.7813930000      1.1753350000      0.0121020000
C                 -0.6953440000      1.2952570000     -0.0027980000
O                 -1.2372960000      2.3873640000     -0.0047020000
C                 -1.4875190000      0.0393570000     -0.0152830000
C                 -0.8891550000     -1.1572100000     -0.0131520000
C                  0.5887870000     -1.3024260000      0.0016770000
O                  1.1181570000     -2.3933650000      0.0034200000
H                  1.3404350000      2.1029270000      0.0210550000
H                 -2.5654310000      0.1552840000     -0.0260640000
H                 -1.4414470000     -2.0900840000     -0.0220580000
$end
$rem
MAX_SCF_CYCLES=200
BASIS  =  6-311++G(d,p)
GUI  =  2
JOB_TYPE  =  SP
METHOD  =  B3LYP
SOLVENT_METHOD = COSMO
$end
$solvent
dielectric 37.219
opticaldielectric 1.43
$end

--------------------------------------------------------------

             Standard Nuclear Orientation (Angstroms)
    I     Atom           X                Y                Z
 ----------------------------------------------------------------
    1      Cl      2.2463332292     0.9888815427     0.0000031009
    2      C       0.6370747871     0.3461053396     0.0000023160
    3      C      -0.4448185917     1.1385582504    -0.0000024479
    4      C      -1.8130334124     0.5699250930    -0.0000011621
    5      O      -2.7943791911     1.2933708461    -0.0000071469
    6      C      -1.9433448685    -0.9092641580     0.0000051812
    7      C      -0.8640651102    -1.6998157416     0.0000091976
    8      C       0.5167865983    -1.1531268902     0.0000105905
    9      O       1.4864078670    -1.8812876768    -0.0000179599
   10      H      -0.3717392544     2.2191573633    -0.0000053436
   11      H      -2.9550253920    -1.2990744933     0.0000043225
   12      H      -0.9287260728    -2.7820258090     0.0000071088
 ----------------------------------------------------------------

   10    -841.1812877140      2.90e-06  Convergence criterion met
 Total energy in the final basis set =     -841.1812877140
    5    -841.1949829564      6.85e-06  Convergence criterion met
 Total energy in the final basis set =     -841.1949829564

                    Orbital Energies (a.u.)
 --------------------------------------------------------------

 Alpha MOs
 -- Occupied --
******** -19.1578 -19.1522 -10.3055 -10.2981 -10.2773 -10.2215 -10.2192
-10.2178  -9.4947  -7.2593  -7.2498  -7.2488  -1.0918  -1.0826  -0.9137
 -0.8564  -0.7865  -0.7182  -0.6474  -0.6149  -0.5403  -0.5233  -0.4989
 -0.4725  -0.4673  -0.4622  -0.4467  -0.4342  -0.4199  -0.3839  -0.3414
 -0.3200  -0.3059  -0.2947  -0.2937

          Ground-State Mulliken Net Atomic Charges

     Atom                 Charge (a.u.)
  ----------------------------------------
      1 Cl                    0.296335
      2 C                     0.991442
      3 C                    -0.322401
      4 C                    -0.505908
      5 O                    -0.308710
      6 C                     0.110420
      7 C                     0.049501
      8 C                    -0.867540
      9 O                    -0.256537
     10 H                     0.270280
     11 H                     0.270810
     12 H                     0.272309
  ----------------------------------------
  Sum of atomic charges =     0.000000

                    Cartesian Multipole Moments
 -----------------------------------------------------------------
    Charge (ESU x 10^10)
                 0.0000
    Dipole Moment (Debye)
         X      -1.3904      Y      -0.7993      Z       0.0002
       Tot       1.6037
    Quadrupole Moments (Debye-Ang)
        XX     -69.7235     XY      13.9415     YY     -58.3058
        XZ       0.0002     YZ      -0.0004     ZZ     -57.4368

 Total job time:  13.57s(wall), 85.53s(cpu)
        *  Thank you very much for using Q-Chem.  Have a nice day.  *
