 Gaussian 16, Revision A.03,
 Gaussian 16:  ES64L-G16RevA.03 25-Dec-2016

 --------------------------------------
 #P UB3LYP/6-311++G(d,p) nosym opt freq
 --------------------------------------

 -------
 Reduced
 -------
 Symbolic Z-matrix:
 Charge = -2 Multiplicity = 1

 SCF Done:  E(UB3LYP) =  -1144.81367575     A.U. after   56 cycles
 SCF Done:  E(UB3LYP) =  -1144.83470101     A.U. after   34 cycles
 SCF Done:  E(UB3LYP) =  -1144.83776819     A.U. after   37 cycles
 SCF Done:  E(UB3LYP) =  -1144.83812039     A.U. after   32 cycles
 SCF Done:  E(UB3LYP) =  -1144.83768992     A.U. after   36 cycles
 SCF Done:  E(UB3LYP) =  -1144.83840705     A.U. after   30 cycles
 SCF Done:  E(UB3LYP) =  -1144.83852475     A.U. after   32 cycles
 SCF Done:  E(UB3LYP) =  -1144.83850346     A.U. after   42 cycles
 SCF Done:  E(UB3LYP) =  -1144.83876703     A.U. after   32 cycles
 SCF Done:  E(UB3LYP) =  -1144.83883570     A.U. after   33 cycles
 SCF Done:  E(UB3LYP) =  -1144.83923277     A.U. after   18 cycles
 SCF Done:  E(UB3LYP) =  -1144.83924850     A.U. after   30 cycles
 SCF Done:  E(UB3LYP) =  -1144.83925839     A.U. after   28 cycles
 SCF Done:  E(UB3LYP) =  -1144.83925952     A.U. after   29 cycles
 SCF Done:  E(UB3LYP) =  -1144.83925972     A.U. after   23 cycles
 SCF Done:  E(UB3LYP) =  -1144.83925985     A.U. after   25 cycles
 SCF Done:  E(UB3LYP) =  -1144.83925992     A.U. after   22 cycles
 SCF Done:  E(UB3LYP) =  -1144.83926002     A.U. after   20 cycles
 SCF Done:  E(UB3LYP) =  -1144.83926009     A.U. after   23 cycles
 Optimization completed.
    -- Stationary point found.
 Normal termination of Gaussian 16 at Thu Dec 21 15:15:36 2023.

 ----------------------------------------------------------------------
 #P Geom=AllCheck Guess=TCheck SCRF=Check GenChk UB3LYP/6-311++G(d,p) F
 req
 ----------------------------------------------------------------------

 Structure from the checkpoint file:  "147-an.chk"
 -------
 Reduced
 -------
 Charge = -2 Multiplicity = 1

                          Input orientation:
 ---------------------------------------------------------------------
 Center     Atomic      Atomic             Coordinates (Angstroms)
 Number     Number       Type             X           Y           Z
 ---------------------------------------------------------------------
      1          6           0       -2.874405    3.922952    0.481108
      2          6           0       -4.155111    3.419104    0.568957
      3          6           0       -4.325419    2.018330    0.466846
      4          6           0       -1.738056    3.096695    0.302398
      5          6           0       -1.941009    1.670952    0.200092
      6          6           0       -3.262702    1.171149    0.291899
      7          6           0       -0.422234    3.705247    0.233258
      8          6           0        0.670599    2.765803    0.052418
      9          6           0        0.467654    1.340058   -0.049882
     10          6           0       -0.848175    0.731505    0.019210
     11          6           0        1.992298    3.265604   -0.039360
     12          6           0        3.055014    2.418418   -0.214283
     13          6           0        2.884724    1.017634   -0.316371
     14          6           0        1.604004    0.513803   -0.228541
     15          8           0       -0.237409    4.964062    0.322998
     16          8           0       -1.032978   -0.527319   -0.070304
     17          1           0       -3.402346    0.097894    0.229407
     18          1           0        1.422277   -0.553370   -0.299761
     19          1           0       -2.692675    4.990122    0.552351
     20          1           0        2.131925    4.338861    0.023129
     21          1           0        3.740393    0.366639   -0.446023
     22          8           0       -5.603021    1.415425    0.658961
     23          8           0        4.332606    3.021383   -0.406332
     24          6           0        5.424528    2.633895    0.275605
     25          6           0        6.641576    3.396094   -0.211720
     26          8           0        5.468259    1.774506    1.126925
     27          1           0       -5.010771    4.070114    0.698649
     28          1           0        6.377399    4.394309   -0.560882
     29          1           0        7.097573    2.854418   -1.051324
     30          1           0        7.379031    3.451285    0.588506
     31          6           0       -6.694830    1.802776   -0.023289
     32          6           0       -7.911999    1.040786    0.464033
     33          8           0       -6.738326    2.661791   -0.874980
     34          1           0       -7.647919    0.042746    0.813773
     35          1           0       -8.649190    0.985161   -0.336410
     36          1           0       -8.368305    1.582859    1.303209
 ---------------------------------------------------------------------

 SCF Done:  E(UB3LYP) =  -1144.83926009     A.U. after    3 cycles

 Alpha  occ. eigenvalues --  -18.99377 -18.99377 -18.93799 -18.93798 -18.82130
 Alpha  occ. eigenvalues --  -18.82129 -10.13277 -10.13277 -10.02315 -10.02314
 Alpha  occ. eigenvalues --  -10.02252 -10.02252  -9.98014  -9.98013  -9.96356
 Alpha  occ. eigenvalues --   -9.96356  -9.95698  -9.95698  -9.95680  -9.95680
 Alpha  occ. eigenvalues --   -9.94467  -9.94466  -9.94143  -9.94142  -0.93081
 Alpha  occ. eigenvalues --   -0.93081  -0.85020  -0.85020  -0.74270  -0.73904
 Alpha  occ. eigenvalues --   -0.64320  -0.64018  -0.59769  -0.59325  -0.55875
 Alpha  occ. eigenvalues --   -0.53838  -0.53836  -0.52175  -0.46100  -0.45867
 Alpha  occ. eigenvalues --   -0.42228  -0.40972  -0.37903  -0.36321  -0.33446
 Alpha  occ. eigenvalues --   -0.32865  -0.31731  -0.31686  -0.30818  -0.30686
 Alpha  occ. eigenvalues --   -0.30333  -0.29946  -0.26512  -0.25867  -0.25467
 Alpha  occ. eigenvalues --   -0.25400  -0.25124  -0.23937  -0.22599  -0.21898
 Alpha  occ. eigenvalues --   -0.21674  -0.20615  -0.20554  -0.19870  -0.18336
 Alpha  occ. eigenvalues --   -0.18276  -0.17734  -0.15719  -0.15583  -0.15572
 Alpha  occ. eigenvalues --   -0.14013  -0.13124  -0.12922  -0.12328  -0.10917
 Alpha  occ. eigenvalues --   -0.10854  -0.10616  -0.10018  -0.04082  -0.03007
 Alpha  occ. eigenvalues --   -0.02131  -0.01941   0.00096   0.00758   0.10218
 Alpha virt. eigenvalues --    0.11305   0.11432   0.14364   0.14452   0.15725
 Alpha virt. eigenvalues --    0.15790   0.16490   0.16846   0.17030   0.17470
 Alpha virt. eigenvalues --    0.17622   0.18313   0.18798   0.19874   0.20523

  Beta  occ. eigenvalues --  -18.99377 -18.99377 -18.93799 -18.93798 -18.82130
  Beta  occ. eigenvalues --  -18.82129 -10.13277 -10.13277 -10.02315 -10.02314
  Beta  occ. eigenvalues --  -10.02252 -10.02252  -9.98014  -9.98013  -9.96356
  Beta  occ. eigenvalues --   -9.96356  -9.95698  -9.95698  -9.95680  -9.95680
  Beta  occ. eigenvalues --   -9.94467  -9.94466  -9.94143  -9.94142  -0.93081
  Beta  occ. eigenvalues --   -0.93081  -0.85020  -0.85020  -0.74270  -0.73904
  Beta  occ. eigenvalues --   -0.64320  -0.64018  -0.59769  -0.59325  -0.55875
  Beta  occ. eigenvalues --   -0.53838  -0.53836  -0.52175  -0.46100  -0.45867
  Beta  occ. eigenvalues --   -0.42228  -0.40972  -0.37903  -0.36321  -0.33446
  Beta  occ. eigenvalues --   -0.32865  -0.31731  -0.31686  -0.30818  -0.30686
  Beta  occ. eigenvalues --   -0.30333  -0.29946  -0.26512  -0.25867  -0.25467
  Beta  occ. eigenvalues --   -0.25400  -0.25124  -0.23937  -0.22599  -0.21898
  Beta  occ. eigenvalues --   -0.21674  -0.20615  -0.20554  -0.19870  -0.18336
  Beta  occ. eigenvalues --   -0.18276  -0.17734  -0.15719  -0.15583  -0.15572
  Beta  occ. eigenvalues --   -0.14013  -0.13124  -0.12922  -0.12328  -0.10917
  Beta  occ. eigenvalues --   -0.10854  -0.10616  -0.10018  -0.04082  -0.03007
  Beta  occ. eigenvalues --   -0.02131  -0.01941   0.00096   0.00758   0.10218
  Beta virt. eigenvalues --    0.11305   0.11432   0.14364   0.14452   0.15725
  Beta virt. eigenvalues --    0.15790   0.16490   0.16846   0.17030   0.17470
  Beta virt. eigenvalues --    0.17622   0.18313   0.18798   0.19874   0.20523

 Mulliken charges and spin densities:
               1          2
     1  C    0.028702   0.000000
     2  C    0.036982  -0.000000
     3  C   -0.628416   0.000000
     4  C    0.392058   0.000000
     5  C    0.546828  -0.000000
     6  C   -0.069790  -0.000000
     7  C   -0.829872  -0.000000
     8  C    0.546911   0.000000
     9  C    0.392160  -0.000000
    10  C   -0.829970   0.000000
    11  C   -0.069750  -0.000000
    12  C   -0.628020  -0.000000
    13  C    0.036632  -0.000000
    14  C    0.028470  -0.000000
    15  O   -0.457741  -0.000000
    16  O   -0.457726  -0.000000
    17  H    0.166597   0.000000
    18  H    0.145794   0.000000
    19  H    0.145795  -0.000000
    20  H    0.166595  -0.000000
    21  H    0.148661   0.000000
    22  O   -0.030710  -0.000000
    23  O   -0.030739   0.000000
    24  C   -0.329026   0.000000
    25  C    0.411143  -0.000000
    26  O   -0.286909   0.000000
    27  H    0.148634   0.000000
    28  H    0.015607   0.000000
    29  H   -0.214993   0.000000
    30  H   -0.044825   0.000000
    31  C   -0.329247   0.000000
    32  C    0.411469  -0.000000
    33  O   -0.286852   0.000000
    34  H    0.015567   0.000000
    35  H   -0.044859   0.000000
    36  H   -0.215161   0.000000
 Sum of Mulliken charges =  -2.00000   0.00000

 Dipole moment (field-independent basis, Debye):
    X=              6.1031    Y=            -21.3100    Z=             -1.2127  Tot=             22.1999
 Quadrupole moment (field-independent basis, Debye-Ang):
   XX=           -348.5936   YY=           -241.1540   ZZ=           -161.9950
   XY=              6.7735   XZ=             -2.9627   YZ=              0.2889

  Exact polarizability:********1724.848 823.552******** -74.249 562.935
 Approx polarizability:********2599.2671089.103********-246.637 672.069

                      1                      2                      3
                      A                      A                      A
 Frequencies --     17.8376                25.2396                31.7155
 Red. masses --      7.9636                 7.9537                 6.4872
 Frc consts  --      0.0015                 0.0030                 0.0038
 IR Inten    --      4.3277                 0.0000                 9.0689

                      4                      5                      6
                      A                      A                      A
 Frequencies --     57.7469                62.1841                69.5093
 Red. masses --      3.8536                 4.4385                 1.0611
 Frc consts  --      0.0076                 0.0101                 0.0030
 IR Inten    --      6.4329                 0.0000                11.8503

                      7                      8                      9
                      A                      A                      A
 Frequencies --     70.3725                77.1232                85.9263
 Red. masses --      1.0518                 5.8045                 5.5515
 Frc consts  --      0.0031                 0.0203                 0.0241
 IR Inten    --      0.0149                10.8083                 0.0000

                     10                     11                     12
                      A                      A                      A
 Frequencies --    134.1088               155.5620               164.6041
 Red. masses --      4.6727                 6.1997                10.1467
 Frc consts  --      0.0495                 0.0884                 0.1620
 IR Inten    --      4.1177                 0.0000                32.5358

                     13                     14                     15
                      A                      A                      A
 Frequencies --    189.8513               193.1344               217.6969
 Red. masses --      7.5938                 7.0440                 6.1003
 Frc consts  --      0.1613                 0.1548                 0.1703
 IR Inten    --     24.5851                 0.0000                 0.0000

                     16                     17                     18
                      A                      A                      A
 Frequencies --    265.1839               284.3228               306.3361
 Red. masses --      7.2217                 6.2143                 5.6743
 Frc consts  --      0.2992                 0.2960                 0.3137
 IR Inten    --      0.0000                48.6907                63.8375

                     19                     20                     21
                      A                      A                      A
 Frequencies --    334.9672               384.7507               387.4068
 Red. masses --      6.0742                 7.5030                 7.0786
 Frc consts  --      0.4016                 0.6544                 0.6259
 IR Inten    --      0.0000                 1.6614                 0.0000

                     22                     23                     24
                      A                      A                      A
 Frequencies --    396.8743               405.4310               430.9826
 Red. masses --      5.2092                 5.0003                 3.4255
 Frc consts  --      0.4834                 0.4843                 0.3749
 IR Inten    --     17.9157                 0.0000               161.5030

                     25                     26                     27
                      A                      A                      A
 Frequencies --    454.8488               463.4330               479.1544
 Red. masses --      6.2837                 5.4717                 3.6295
 Frc consts  --      0.7659                 0.6924                 0.4910
 IR Inten    --      0.0000                 0.0000                 0.0000

                     28                     29                     30
                      A                      A                      A
 Frequencies --    486.0786               534.2239               540.7722
 Red. masses --      9.4861                 4.5038                 4.1677
 Frc consts  --      1.3205                 0.7573                 0.7181
 IR Inten    --      0.0000               271.7060                 9.7205

                     31                     32                     33
                      A                      A                      A
 Frequencies --    588.3399               601.3461               610.2178
 Red. masses --      3.7106                 2.9955                 3.8137
 Frc consts  --      0.7567                 0.6382                 0.8367
 IR Inten    --      0.0002               273.2689                 0.0000

                     34                     35                     36
                      A                      A                      A
 Frequencies --    637.8768               644.9201               674.3163
 Red. masses --      4.4252                 6.7554                 5.4046
 Frc consts  --      1.0608                 1.6554                 1.4479
 IR Inten    --      0.0000                15.0631               202.8571

                     37                     38                     39
                      A                      A                      A
 Frequencies --    691.1396               697.1711               707.4743
 Red. masses --      6.0543                 6.4171                 4.1726
 Frc consts  --      1.7039                 1.8377                 1.2305
 IR Inten    --      0.0000                 0.0000                16.1953

                     40                     41                     42
                      A                      A                      A
 Frequencies --    719.3310               751.4162               752.0792
 Red. masses --      4.1270                 6.8330                 1.5502
 Frc consts  --      1.2582                 2.2731                 0.5166
 IR Inten    --     40.2276               636.9791                 0.0014

                     43                     44                     45
                      A                      A                      A
 Frequencies --    781.6895               792.4523               820.0612
 Red. masses --      1.7980                 5.7194                 4.5724
 Frc consts  --      0.6473                 2.1162                 1.8117
 IR Inten    --    276.4294                 0.0000                 0.0000

                     46                     47                     48
                      A                      A                      A
 Frequencies --    862.0287               909.4518               910.9044
 Red. masses --      6.0980                 3.5376                 2.8531
 Frc consts  --      2.6698                 1.7239                 1.3948
 IR Inten    --    322.4447               438.0466                 0.0091

                     49                     50                     51
                      A                      A                      A
 Frequencies --    933.5650               936.2097               969.9440
 Red. masses --      1.8001                 2.1057                 1.3328
 Frc consts  --      0.9244                 1.0874                 0.7387
 IR Inten    --     31.2882                 0.0001                 0.0000

                     52                     53                     54
                      A                      A                      A
 Frequencies --    972.3956               979.8836               982.1933
 Red. masses --      1.3289                 2.7809                 4.1421
 Frc consts  --      0.7403                 1.5732                 2.3543
 IR Inten    --     32.3642               424.8980                 0.0000

                     55                     56                     57
                      A                      A                      A
 Frequencies --   1018.4696              1019.1062              1043.8554
 Red. masses --      1.6709                 1.6626                 1.7541
 Frc consts  --      1.0212                 1.0174                 1.1261
 IR Inten    --      0.0121               465.0541               593.1644

                     58                     59                     60
                      A                      A                      A
 Frequencies --   1044.7426              1092.0609              1101.4349
 Red. masses --      1.7463                 2.5553                 1.9108
 Frc consts  --      1.1230                 1.7955                 1.3658
 IR Inten    --      0.0421                12.4339                 0.0000

                     61                     62                     63
                      A                      A                      A
 Frequencies --   1113.4696              1121.3696              1175.2373
 Red. masses --      2.1034                 1.5161                 3.4378
 Frc consts  --      1.5365                 1.1233                 2.7976
 IR Inten    --   1233.9530                 0.0000               804.7103

                     64                     65                     66
                      A                      A                      A
 Frequencies --   1199.8386              1205.2860              1205.4485
 Red. masses --      4.9153                 1.9058                 2.8718
 Frc consts  --      4.1691                 1.6312                 2.4587
 IR Inten    --      0.0000                 0.0017                 5.3604

                     67                     68                     69
                      A                      A                      A
 Frequencies --   1225.8747              1226.1974              1243.4463
 Red. masses --      4.9817                 3.4427                 2.4108
 Frc consts  --      4.4108                 3.0498                 2.1962
 IR Inten    --     23.4780              5833.9728               838.2359

                     70                     71                     72
                      A                      A                      A
 Frequencies --   1310.4208              1346.3163              1353.1904
 Red. masses --      2.4493                 6.3675                 6.3448
 Frc consts  --      2.4780                 6.8001                 6.8452
 IR Inten    --      0.0000                 0.0001               616.8442

                     73                     74                     75
                      A                      A                      A
 Frequencies --   1371.6724              1374.1183              1378.0518
 Red. masses --      1.4008                 3.2845                 1.3156
 Frc consts  --      1.5529                 3.6539                 1.4719
 IR Inten    --   7748.3510              2270.6966                 0.0123

                     76                     77                     78
                      A                      A                      A
 Frequencies --   1451.3144              1459.9338              1464.2088
 Red. masses --      3.1251                 4.0131                 1.0628
 Frc consts  --      3.8783                 5.0396                 1.3425
 IR Inten    --    212.8041                 0.0000               284.5851

                     79                     80                     81
                      A                      A                      A
 Frequencies --   1464.4404              1473.8805              1474.0529
 Red. masses --      1.0733                 1.0619                 1.0637
 Frc consts  --      1.3561                 1.3591                 1.3618
 IR Inten    --      0.0087               114.8639                 0.0538

                     82                     83                     84
                      A                      A                      A
 Frequencies --   1479.3822              1487.5210              1492.6950
 Red. masses --      7.8922                 4.1973                 5.5188
 Frc consts  --     10.1768                 5.4720                 7.2450
 IR Inten    --      0.0004                 0.0005               572.6859

                     85                     86                     87
                      A                      A                      A
 Frequencies --   1535.7923              1570.1908              1599.1479
 Red. masses --      6.5340                 7.9773                 7.0681
 Frc consts  --      9.0802                11.5881                10.6496
 IR Inten    --     51.4156                 0.0000                48.1283

                     88                     89                     90
                      A                      A                      A
 Frequencies --   1600.8632              1753.4539              1753.5213
 Red. masses --      6.5946                11.2730                11.2743
 Frc consts  --      9.9574                20.4210                20.4251
 IR Inten    --      0.0000               346.0306               308.0250

                     91                     92                     93
                      A                      A                      A
 Frequencies --   2992.6989              2993.5729              3089.2955
 Red. masses --      1.0551                 1.0547                 1.0771
 Frc consts  --      5.5674                 5.5689                 6.0566
 IR Inten    --   1988.0862                 0.2821              1428.2922

                     94                     95                     96
                      A                      A                      A
 Frequencies --   3089.8168              3138.7605              3138.7981
 Red. masses --      1.0775                 1.1054                 1.1054
 Frc consts  --      6.0606                 6.4164                 6.4166
 IR Inten    --      0.2622                75.1585                12.3783

                     97                     98                     99
                      A                      A                      A
 Frequencies --   3164.5902              3164.7770              3181.7273
 Red. masses --      1.0862                 1.0863                 1.0898
 Frc consts  --      6.4090                 6.4102                 6.5000
 IR Inten    --      5.3013                 0.0004                51.6896

                    100                    101                    102
                      A                      A                      A
 Frequencies --   3181.8401              3185.6443              3185.7783
 Red. masses --      1.0897                 1.0935                 1.0937
 Frc consts  --      6.5000                 6.5384                 6.5399
 IR Inten    --      0.0550                55.4437                 2.3519

 - Thermochemistry -
 -------------------
 Temperature   298.150 Kelvin.  Pressure   1.00000 Atm.
 Atom     1 has atomic number  6 and mass  12.00000

 Molecular mass:   324.06339 amu.
 Principal axes and moments of inertia in atomic units:
                           1         2         3
     Eigenvalues --  2170.56880********************
           X            0.99839  -0.05552   0.01150
           Y            0.05581   0.99809  -0.02661
           Z           -0.01000   0.02721   0.99958
 This molecule is an asymmetric top.
 Rotational symmetry number  1.
 Warning -- assumption of classical behavior for rotation
           may cause significant error
 Rotational temperatures (Kelvin)      0.03990     0.00432     0.00398
 Rotational constants (GHZ):           0.83146     0.09009     0.08294
 Zero-point vibrational energy     672128.4 (Joules/Mol)
                                  160.64254 (Kcal/Mol)
 Warning -- explicit consideration of  33 degrees of freedom as
           vibrations may cause significant error
 Vibrational temperatures:     25.66    36.31    45.63    83.08    89.47
          (Kelvin)            100.01   101.25   110.96   123.63   192.95
                              223.82   236.83   273.15   277.88   313.22
                              381.54   409.08   440.75   481.94   553.57
                              557.39   571.01   583.32   620.09   654.43
                              666.78   689.40   699.36   768.63   778.05
                              846.49   865.20   877.97   917.76   927.90
                              970.19   994.40  1003.07  1017.90  1034.96
                             1081.12  1082.07  1124.68  1140.16  1179.89
                             1240.27  1308.50  1310.59  1343.19  1347.00
                             1395.53  1399.06  1409.83  1413.16  1465.35
                             1466.27  1501.88  1503.15  1571.23  1584.72
                             1602.03  1613.40  1690.90  1726.30  1734.14
                             1734.37  1763.76  1764.22  1789.04  1885.40
                             1937.05  1946.94  1973.53  1977.05  1982.71
                             2088.12  2100.52  2106.67  2107.00  2120.59
                             2120.83  2128.50  2140.21  2147.66  2209.66
                             2259.15  2300.82  2303.29  2522.83  2522.93
                             4305.83  4307.08  4444.81  4445.56  4515.98
                             4516.03  4553.14  4553.41  4577.80  4577.96
                             4583.43  4583.62

 Zero-point correction=                           0.256000 (Hartree/Particle)
 Thermal correction to Energy=                    0.277117
 Thermal correction to Enthalpy=                  0.278061
 Thermal correction to Gibbs Free Energy=         0.202909
 Sum of electronic and zero-point Energies=          -1144.583260
 Sum of electronic and thermal Energies=             -1144.562144
 Sum of electronic and thermal Enthalpies=           -1144.561199
 Sum of electronic and thermal Free Energies=        -1144.636351

                     E (Thermal)             CV                S
                      KCal/Mol        Cal/Mol-Kelvin    Cal/Mol-Kelvin
 Total                  173.893             78.848            158.171
 Electronic               0.000              0.000              0.000
 Translational            0.889              2.981             43.223
 Rotational               0.889              2.981             35.202
 Vibrational            172.116             72.886             79.746
 Vibration     1          0.593              1.986              6.861
 Vibration     2          0.593              1.985              6.172
 Vibration     3          0.594              1.983              5.719
 Vibration     4          0.596              1.974              4.533
 Vibration     5          0.597              1.972              4.387
 Vibration     6          0.598              1.969              4.167
 Vibration     7          0.598              1.968              4.143
 Vibration     8          0.599              1.964              3.963
 Vibration     9          0.601              1.959              3.751
 Vibration    10          0.613              1.919              2.886
 Vibration    11          0.620              1.896              2.603
 Vibration    12          0.623              1.886              2.496
 Vibration    13          0.633              1.854              2.229
 Vibration    14          0.635              1.849              2.198
 Vibration    15          0.646              1.814              1.978
 Vibration    16          0.671              1.737              1.627
 Vibration    17          0.683              1.703              1.508
 Vibration    18          0.697              1.662              1.382
 Vibration    19          0.716              1.606              1.236
 Vibration    20          0.754              1.503              1.020
 Vibration    21          0.756              1.497              1.010
 Vibration    22          0.763              1.477              0.974
 Vibration    23          0.770              1.458              0.943
 Vibration    24          0.792              1.403              0.855
 Vibration    25          0.813              1.350              0.781
 Vibration    26          0.821              1.331              0.756
 Vibration    27          0.836              1.296              0.712
 Vibration    28          0.842              1.281              0.694
 Vibration    29          0.889              1.174              0.578
 Vibration    30          0.896              1.160              0.564
 Vibration    31          0.946              1.057              0.470
 Vibration    32          0.960              1.029              0.447
 Vibration    33          0.969              1.010              0.432

                           ! Non-Optimized Parameters !
 Normal termination of Gaussian 16 at Thu Dec 21 17:42:12 2023.
