 Gaussian 16, Revision A.03,
 Gaussian 16:  ES64L-G16RevA.03 25-Dec-2016

 --------------------------------------
 #P UB3LYP/6-311++G(d,p) nosym opt freq
 --------------------------------------

 --------
 Oxidized
 --------
 Symbolic Z-matrix:
 Charge =  0 Multiplicity = 1

 SCF Done:  E(UB3LYP) =  -799.624546611     A.U. after   17 cycles
 SCF Done:  E(UB3LYP) =  -799.654687022     A.U. after   15 cycles
 SCF Done:  E(UB3LYP) =  -799.670017038     A.U. after   15 cycles
 SCF Done:  E(UB3LYP) =  -799.686142396     A.U. after   14 cycles
 SCF Done:  E(UB3LYP) =  -799.699231002     A.U. after   15 cycles
 SCF Done:  E(UB3LYP) =  -799.706063320     A.U. after   13 cycles
 SCF Done:  E(UB3LYP) =  -799.716415564     A.U. after   15 cycles
 SCF Done:  E(UB3LYP) =  -799.719692691     A.U. after   14 cycles
 SCF Done:  E(UB3LYP) =  -799.721422657     A.U. after   14 cycles
 SCF Done:  E(UB3LYP) =  -799.721998091     A.U. after   13 cycles
 SCF Done:  E(UB3LYP) =  -799.722447916     A.U. after   10 cycles
 SCF Done:  E(UB3LYP) =  -799.722449976     A.U. after   10 cycles
 SCF Done:  E(UB3LYP) =  -799.722450669     A.U. after   10 cycles
 SCF Done:  E(UB3LYP) =  -799.722451108     A.U. after    9 cycles
 SCF Done:  E(UB3LYP) =  -799.722451393     A.U. after   10 cycles
 SCF Done:  E(UB3LYP) =  -799.722451487     A.U. after    9 cycles
 SCF Done:  E(UB3LYP) =  -799.722451535     A.U. after    9 cycles
 SCF Done:  E(UB3LYP) =  -799.722451560     A.U. after    8 cycles
 SCF Done:  E(UB3LYP) =  -799.722451573     A.U. after    8 cycles
 Optimization completed.
    -- Stationary point found.
 Normal termination of Gaussian 16 at Thu Dec 21 08:48:31 2023.

 ----------------------------------------------------------------------
 #P Geom=AllCheck Guess=TCheck SCRF=Check GenChk UB3LYP/6-311++G(d,p) F
 req
 ----------------------------------------------------------------------

 Structure from the checkpoint file:  "167.chk"
 --------
 Oxidized
 --------
 Charge =  0 Multiplicity = 1

                          Input orientation:
 ---------------------------------------------------------------------
 Center     Atomic      Atomic             Coordinates (Angstroms)
 Number     Number       Type             X           Y           Z
 ---------------------------------------------------------------------
      1          7           0        3.579588   -1.279423   -0.027678
      2          6           0        2.889985   -0.115257   -0.143288
      3          6           0        3.593920    1.096291   -0.338391
      4          6           0        2.925860    2.297552   -0.455012
      5          6           0        1.529825    2.351354   -0.383382
      6          6           0        0.809298    1.180894   -0.193711
      7          6           0       -0.681741    1.291175   -0.125176
      8          8           0       -1.209940    2.403920   -0.235434
      9          6           0       -1.464542    0.069885    0.071124
     10          6           0       -2.889963    0.115333    0.143867
     11          7           0       -3.579458    1.279674    0.029377
     12          6           0       -3.593934   -1.096323    0.338202
     13          6           0       -2.925904   -2.297631    0.454435
     14          6           0       -1.529847   -2.351400    0.383115
     15          6           0       -0.809300   -1.180872    0.193956
     16          6           0        0.681767   -1.291147    0.125646
     17          8           0        1.209950   -2.403890    0.235856
     18          6           0        1.464575   -0.069817   -0.070543
     19          1           0        3.057791   -2.137834    0.098354
     20          1           0        4.581922   -1.281699   -0.102585
     21          1           0        4.677351    1.065242   -0.394567
     22          1           0        3.492926    3.209920   -0.603862
     23          1           0        0.994252    3.286396   -0.472869
     24          1           0       -4.582006    1.281579    0.101377
     25          1           0       -3.057721    2.137899   -0.098169
     26          1           0       -4.677374   -1.065300    0.394200
     27          1           0       -3.493009   -3.210063    0.602735
     28          1           0       -0.994272   -3.286458    0.472424
 ---------------------------------------------------------------------

 SCF Done:  E(UB3LYP) =  -799.722451573     A.U. after    1 cycles

 Alpha  occ. eigenvalues --  -19.11276 -19.11275 -14.33269 -14.33269 -10.26664
 Alpha  occ. eigenvalues --  -10.26664 -10.24301 -10.24301 -10.19758 -10.19757
 Alpha  occ. eigenvalues --  -10.19350 -10.19350 -10.19303 -10.19302 -10.18841
 Alpha  occ. eigenvalues --  -10.18841 -10.17754 -10.17754  -1.04700  -1.04491
 Alpha  occ. eigenvalues --   -0.94215  -0.94155  -0.87063  -0.85533  -0.80296
 Alpha  occ. eigenvalues --   -0.76430  -0.75463  -0.74693  -0.67930  -0.66101
 Alpha  occ. eigenvalues --   -0.64782  -0.61036  -0.58460  -0.58183  -0.55190
 Alpha  occ. eigenvalues --   -0.53644  -0.52458  -0.50694  -0.49296  -0.48476
 Alpha  occ. eigenvalues --   -0.47246  -0.46135  -0.46065  -0.44641  -0.44166
 Alpha  occ. eigenvalues --   -0.42837  -0.42118  -0.41283  -0.39584  -0.38941
 Alpha  occ. eigenvalues --   -0.38425  -0.37751  -0.37707  -0.36479  -0.33078
 Alpha  occ. eigenvalues --   -0.32478  -0.28002  -0.27319  -0.26916  -0.26138
 Alpha  occ. eigenvalues --   -0.22431  -0.21888
 Alpha virt. eigenvalues --   -0.10453  -0.05011  -0.02925  -0.01140  -0.00971
 Alpha virt. eigenvalues --   -0.00158   0.00491   0.00847   0.01660   0.03339
 Alpha virt. eigenvalues --    0.03722   0.03740   0.03984   0.04765   0.05378

  Beta  occ. eigenvalues --  -19.11276 -19.11275 -14.33269 -14.33269 -10.26664
  Beta  occ. eigenvalues --  -10.26664 -10.24301 -10.24301 -10.19758 -10.19757
  Beta  occ. eigenvalues --  -10.19350 -10.19350 -10.19303 -10.19302 -10.18841
  Beta  occ. eigenvalues --  -10.18841 -10.17754 -10.17754  -1.04700  -1.04491
  Beta  occ. eigenvalues --   -0.94215  -0.94155  -0.87063  -0.85533  -0.80296
  Beta  occ. eigenvalues --   -0.76430  -0.75463  -0.74693  -0.67930  -0.66101
  Beta  occ. eigenvalues --   -0.64782  -0.61036  -0.58460  -0.58183  -0.55190
  Beta  occ. eigenvalues --   -0.53644  -0.52458  -0.50694  -0.49296  -0.48476
  Beta  occ. eigenvalues --   -0.47246  -0.46135  -0.46065  -0.44641  -0.44166
  Beta  occ. eigenvalues --   -0.42837  -0.42118  -0.41283  -0.39584  -0.38941
  Beta  occ. eigenvalues --   -0.38425  -0.37751  -0.37707  -0.36479  -0.33078
  Beta  occ. eigenvalues --   -0.32478  -0.28002  -0.27319  -0.26916  -0.26138
  Beta  occ. eigenvalues --   -0.22431  -0.21888
  Beta virt. eigenvalues --   -0.10453  -0.05011  -0.02925  -0.01140  -0.00971
  Beta virt. eigenvalues --   -0.00158   0.00491   0.00847   0.01660   0.03339
  Beta virt. eigenvalues --    0.03722   0.03740   0.03984   0.04765   0.05378

 Mulliken charges and spin densities:
               1          2
     1  N   -0.410873  -0.000000
     2  C    0.230079  -0.000000
     3  C   -0.134455   0.000000
     4  C   -0.410572  -0.000000
     5  C   -0.085362  -0.000000
     6  C    0.617507  -0.000000
     7  C   -0.811806   0.000000
     8  O   -0.269364  -0.000000
     9  C    0.179863   0.000000
    10  C    0.230309  -0.000000
    11  N   -0.411216   0.000000
    12  C   -0.134551   0.000000
    13  C   -0.410534   0.000000
    14  C   -0.085236  -0.000000
    15  C    0.617516   0.000000
    16  C   -0.811745   0.000000
    17  O   -0.269354  -0.000000
    18  C    0.180058  -0.000000
    19  H    0.330693   0.000000
    20  H    0.272300  -0.000000
    21  H    0.136755   0.000000
    22  H    0.176420  -0.000000
    23  H    0.178605  -0.000000
    24  H    0.272405  -0.000000
    25  H    0.330788   0.000000
    26  H    0.136747  -0.000000
    27  H    0.176418   0.000000
    28  H    0.178604   0.000000
 Sum of Mulliken charges =  -0.00000  -0.00000

 Dipole moment (field-independent basis, Debye):
    X=             -0.0007    Y=             -0.0008    Z=             -0.0065  Tot=              0.0066
 Quadrupole moment (field-independent basis, Debye-Ang):
   XX=            -69.5637   YY=           -105.6799   ZZ=           -109.0695
   XY=              3.5465   XZ=             -3.0020   YZ=             -0.5421

  Exact polarizability: 292.982  20.030 223.929 -13.701 -18.140  93.400
 Approx polarizability: 451.069   6.943 420.110 -17.608 -35.433 150.994

                      1                      2                      3
                      A                      A                      A
 Frequencies --     25.6567                39.2110                42.7335
 Red. masses --      6.4475                 4.0414                 7.3970
 Frc consts  --      0.0025                 0.0037                 0.0080
 IR Inten    --     67.9495                 1.0687                 0.1789

                      4                      5                      6
                      A                      A                      A
 Frequencies --    111.6858               155.8457               208.3913
 Red. masses --      1.8364                 2.2647                 2.8377
 Frc consts  --      0.0135                 0.0324                 0.0726
 IR Inten    --    122.8877                 0.0085               111.4469

                      7                      8                      9
                      A                      A                      A
 Frequencies --    212.2327               217.1112               228.8142
 Red. masses --      1.8382                 4.8577                 2.6563
 Frc consts  --      0.0488                 0.1349                 0.0819
 IR Inten    --      0.3421                 1.5500                39.8192

                     10                     11                     12
                      A                      A                      A
 Frequencies --    265.3343               312.7904               359.1123
 Red. masses --      6.9077                 4.9460                 6.4531
 Frc consts  --      0.2865                 0.2851                 0.4903
 IR Inten    --      0.0011                 0.0005                 0.0000

                     13                     14                     15
                      A                      A                      A
 Frequencies --    390.5304               423.8945               434.7147
 Red. masses --     10.5760                 5.1679                 5.0998
 Frc consts  --      0.9503                 0.5471                 0.5678
 IR Inten    --      0.0000                 1.4760                 0.0000

                     16                     17                     18
                      A                      A                      A
 Frequencies --    447.5452               452.6508               483.7623
 Red. masses --      4.7666                 5.5536                 3.7902
 Frc consts  --      0.5625                 0.6704                 0.5226
 IR Inten    --      0.0000                33.6395                 7.9101

                     19                     20                     21
                      A                      A                      A
 Frequencies --    489.1893               535.3839               541.5632
 Red. masses --      6.4249                 5.5200                 4.7376
 Frc consts  --      0.9059                 0.9322                 0.8187
 IR Inten    --      0.0000                 2.5687                 7.9135

                     22                     23                     24
                      A                      A                      A
 Frequencies --    565.7165               596.4833               619.2461
 Red. masses --      3.5389                 6.3762                 5.9864
 Frc consts  --      0.6673                 1.3366                 1.3525
 IR Inten    --      0.0001                 0.0000                 3.3260

                     25                     26                     27
                      A                      A                      A
 Frequencies --    652.9212               657.9192               679.4423
 Red. masses --      1.0431                 1.0892                 4.2418
 Frc consts  --      0.2620                 0.2778                 1.1537
 IR Inten    --     66.3659                 0.0013                 0.0000

                     28                     29                     30
                      A                      A                      A
 Frequencies --    712.3094               724.0615               774.8751
 Red. masses --      6.8956                 2.5378                 1.8651
 Frc consts  --      2.0614                 0.7839                 0.6598
 IR Inten    --      0.0000                22.4856                 0.0002

                     31                     32                     33
                      A                      A                      A
 Frequencies --    778.4662               786.3921               819.7313
 Red. masses --      5.5496                 6.6972                 1.8604
 Frc consts  --      1.9815                 2.4402                 0.7365
 IR Inten    --     35.4476                 9.4523                39.4759

                     34                     35                     36
                      A                      A                      A
 Frequencies --    826.0262               871.9039               911.0157
 Red. masses --      2.9849                 7.2440                 1.3986
 Frc consts  --      1.2000                 3.2446                 0.6839
 IR Inten    --      0.0001                46.7886                 0.0001

                     37                     38                     39
                      A                      A                      A
 Frequencies --    911.6465               914.5450               969.4060
 Red. masses --      1.4334                 6.2151                 4.1609
 Frc consts  --      0.7019                 3.0627                 2.3038
 IR Inten    --      1.0278                 0.0000                 0.0000

                     40                     41                     42
                      A                      A                      A
 Frequencies --    994.8274               995.0507              1036.2414
 Red. masses --      1.3206                 1.3231                 1.8390
 Frc consts  --      0.7701                 0.7719                 1.1635
 IR Inten    --      0.0008                 0.8755                52.6735

                     43                     44                     45
                      A                      A                      A
 Frequencies --   1062.5573              1072.1039              1112.3933
 Red. masses --      2.0640                 3.2090                 1.7391
 Frc consts  --      1.3730                 2.1731                 1.2679
 IR Inten    --      0.0000                17.3275                 0.0000

                     46                     47                     48
                      A                      A                      A
 Frequencies --   1139.3996              1193.1248              1195.5436
 Red. masses --      1.7245                 1.2103                 1.1923
 Frc consts  --      1.3191                 1.0151                 1.0040
 IR Inten    --      6.1018                 0.0000                29.2261

                     49                     50                     51
                      A                      A                      A
 Frequencies --   1212.4123              1236.7013              1286.7752
 Red. masses --      1.8889                 2.5286                 4.8051
 Frc consts  --      1.6359                 2.2786                 4.6877
 IR Inten    --      0.0000                43.0364               937.8258

                     52                     53                     54
                      A                      A                      A
 Frequencies --   1317.0573              1348.2193              1373.0457
 Red. masses --      2.3297                 2.8484                 5.7444
 Frc consts  --      2.3810                 3.0505                 6.3807
 IR Inten    --      0.0001                 8.1105                 0.0000

                     55                     56                     57
                      A                      A                      A
 Frequencies --   1388.4134              1393.5775              1469.6795
 Red. masses --      5.2492                 6.4236                 2.3982
 Frc consts  --      5.9619                 7.3501                 3.0520
 IR Inten    --      0.0000                77.2332                85.3886

                     58                     59                     60
                      A                      A                      A
 Frequencies --   1480.6112              1482.7054              1491.7414
 Red. masses --      3.1344                 2.5438                 3.2393
 Frc consts  --      4.0484                 3.2949                 4.2471
 IR Inten    --     17.3157                 0.0002                 0.0000

                     61                     62                     63
                      A                      A                      A
 Frequencies --   1574.0227              1576.5228              1601.9010
 Red. masses --      2.8140                 3.0207                 4.4122
 Frc consts  --      4.1077                 4.4234                 6.6708
 IR Inten    --      0.0072               301.1732                 0.0011

                     64                     65                     66
                      A                      A                      A
 Frequencies --   1609.1514              1634.8062              1640.4215
 Red. masses --      1.9871                 2.2277                 5.1568
 Frc consts  --      3.0315                 3.5078                 8.1761
 IR Inten    --    277.5778                 0.0001               618.5328

                     67                     68                     69
                      A                      A                      A
 Frequencies --   1675.0038              1677.5651              3156.8652
 Red. masses --      6.6816                 8.1582                 1.0875
 Frc consts  --     11.0449                13.5271                 6.3854
 IR Inten    --    190.7554                 0.0100                 1.2866

                     70                     71                     72
                      A                      A                      A
 Frequencies --   3156.8773              3177.5107              3177.6560
 Red. masses --      1.0875                 1.0936                 1.0936
 Frc consts  --      6.3855                 6.5057                 6.5061
 IR Inten    --     18.4814                44.0366                 0.0340

                     73                     74                     75
                      A                      A                      A
 Frequencies --   3214.5387              3214.6597              3511.5856
 Red. masses --      1.0922                 1.0922                 1.0530
 Frc consts  --      6.6496                 6.6499                 7.6508
 IR Inten    --      5.1814                 0.0026                 0.0286

                     76                     77                     78
                      A                      A                      A
 Frequencies --   3512.7083              3703.6445              3703.6689
 Red. masses --      1.0530                 1.0978                 1.0978
 Frc consts  --      7.6552                 8.8722                 8.8727
 IR Inten    --    140.2774                30.4806               135.4134

 - Thermochemistry -
 -------------------
 Temperature   298.150 Kelvin.  Pressure   1.00000 Atm.
 Atom     1 has atomic number  7 and mass  14.00307

 Molecular mass:   238.07423 amu.
 Principal axes and moments of inertia in atomic units:
                           1         2         3
     Eigenvalues --  2276.774535060.411817337.17298
           X            0.98238  -0.17880   0.05442
           Y            0.17089   0.97721   0.12592
           Z           -0.07569  -0.11440   0.99055
 This molecule is an asymmetric top.
 Rotational symmetry number  1.
 Warning -- assumption of classical behavior for rotation
           may cause significant error
 Rotational temperatures (Kelvin)      0.03804     0.01712     0.01180
 Rotational constants (GHZ):           0.79267     0.35664     0.24597
 Zero-point vibrational energy     555973.7 (Joules/Mol)
                                  132.88091 (Kcal/Mol)
 Warning -- explicit consideration of  24 degrees of freedom as
           vibrations may cause significant error
 Vibrational temperatures:     36.91    56.42    61.48   160.69   224.23
          (Kelvin)            299.83   305.36   312.37   329.21   381.76
                              450.04   516.68   561.89   609.89   625.46
                              643.92   651.26   696.03   703.83   770.30
                              779.19   813.94   858.21   890.96   939.41
                              946.60   977.57  1024.85  1041.76  1114.87
                             1120.04  1131.44  1179.41  1188.47  1254.48
                             1310.75  1311.66  1315.83  1394.76  1431.33
                             1431.66  1490.92  1528.78  1542.52  1600.49
                             1639.34  1716.64  1720.12  1744.39  1779.34
                             1851.38  1894.95  1939.79  1975.51  1997.62
                             2005.05  2114.54  2130.27  2133.28  2146.28
                             2264.67  2268.26  2304.78  2315.21  2352.12
                             2360.20  2409.96  2413.64  4542.02  4542.04
                             4571.73  4571.94  4625.00  4625.18  5052.39
                             5054.00  5328.72  5328.75

 Zero-point correction=                           0.211759 (Hartree/Particle)
 Thermal correction to Energy=                    0.226282
 Thermal correction to Enthalpy=                  0.227226
 Thermal correction to Gibbs Free Energy=         0.169234
 Sum of electronic and zero-point Energies=           -799.510692
 Sum of electronic and thermal Energies=              -799.496170
 Sum of electronic and thermal Enthalpies=            -799.495225
 Sum of electronic and thermal Free Energies=         -799.553217

                     E (Thermal)             CV                S
                      KCal/Mol        Cal/Mol-Kelvin    Cal/Mol-Kelvin
 Total                  141.994             57.476            122.054
 Electronic               0.000              0.000              0.000
 Translational            0.889              2.981             42.304
 Rotational               0.889              2.981             32.802
 Vibrational            140.217             51.514             46.948
 Vibration     1          0.593              1.985              6.140
 Vibration     2          0.594              1.981              5.299
 Vibration     3          0.595              1.980              5.128
 Vibration     4          0.607              1.940              3.239
 Vibration     5          0.620              1.896              2.600
 Vibration     6          0.642              1.828              2.058
 Vibration     7          0.643              1.822              2.024
 Vibration     8          0.646              1.815              1.983
 Vibration     9          0.651              1.797              1.888
 Vibration    10          0.671              1.737              1.626
 Vibration    11          0.701              1.649              1.348
 Vibration    12          0.734              1.557              1.126
 Vibration    13          0.758              1.490              0.998
 Vibration    14          0.786              1.418              0.879
 Vibration    15          0.795              1.395              0.843
 Vibration    16          0.807              1.366              0.803
 Vibration    17          0.811              1.355              0.788
 Vibration    18          0.840              1.286              0.700
 Vibration    19          0.845              1.274              0.686
 Vibration    20          0.890              1.172              0.575
 Vibration    21          0.897              1.158              0.562
 Vibration    22          0.922              1.105              0.513
 Vibration    23          0.954              1.039              0.456
 Vibration    24          0.979              0.991              0.418

                           ! Non-Optimized Parameters !
 Normal termination of Gaussian 16 at Thu Dec 21 09:40:38 2023.
