 Gaussian 16, Revision A.03,
 Gaussian 16:  ES64L-G16RevA.03 25-Dec-2016

 ----------------------------------------------------------------
 #P UB3LYP/6-311++G(d,p) SCRF=(PCM,Solvent=n,n-DiMethylFormamide)
 ----------------------------------------------------------------

 ------------------
 Quinone PCM in DMF
 ------------------
 Symbolic Z-matrix:
 Charge =  0 Multiplicity = 1

                         Standard orientation:
 ---------------------------------------------------------------------
 Center     Atomic      Atomic             Coordinates (Angstroms)
 Number     Number       Type             X           Y           Z
 ---------------------------------------------------------------------
      1          6           0        2.086824   -1.488731   -0.098210
      2          6           0        0.645113   -1.488174    0.237200
      3          6           0       -0.054189   -0.361501    0.432338
      4          6           0        0.648951    0.957377    0.315405
      5          6           0        2.093344    0.973683   -0.083770
      6          6           0        2.780350   -0.178769   -0.263018
      7          6           0        4.236821   -0.214872   -0.630560
      8          6           0        2.732408    2.325711   -0.237470
      9          8           0        2.675914   -2.549958   -0.242031
     10          8           0        0.061938    2.000353    0.551114
     11          1           0        0.189220   -2.470352    0.312045
     12          1           0        4.833410    0.383548    0.063852
     13          1           0        4.396596    0.200802   -1.631297
     14          1           0        4.605425   -1.239266   -0.623278
     15          1           0        1.982027    3.112709   -0.192491
     16          1           0        3.273768    2.397735   -1.184595
     17          1           0        3.459620    2.504837    0.562309
     18          6           0       -1.525639   -0.412268    0.780264
     19          6           0       -1.892726    0.206524    2.127594
     20          8           0       -2.229613    0.267618   -0.298350
     21          6           0       -3.459312   -0.196622   -0.626305
     22          6           0       -4.047243    0.610642   -1.754640
     23          8           0       -3.991905   -1.131563   -0.079788
     24          1           0       -1.841974   -1.456375    0.767354
     25          1           0       -2.953469    0.041745    2.324900
     26          1           0       -1.679182    1.274059    2.133929
     27          1           0       -1.321132   -0.276762    2.924794
     28          1           0       -3.417491    0.518236   -2.642645
     29          1           0       -4.074959    1.667682   -1.482188
     30          1           0       -5.050746    0.251800   -1.973219
 ---------------------------------------------------------------------

 SCF Done:  E(UB3LYP) =  -766.832179264     A.U. after   15 cycles

 The electronic state is 1-A.
 Alpha  occ. eigenvalues --  -19.17775 -19.14219 -19.14199 -19.12722 -10.31764
 Alpha  occ. eigenvalues --  -10.28889 -10.28578 -10.25463 -10.22296 -10.21444
 Alpha  occ. eigenvalues --  -10.21303 -10.21196 -10.18239 -10.17493 -10.17474
 Alpha  occ. eigenvalues --  -10.17042  -1.12032  -1.07553  -1.07223  -1.03735
 Alpha  occ. eigenvalues --   -0.87361  -0.83597  -0.78627  -0.75176  -0.74656
 Alpha  occ. eigenvalues --   -0.69945  -0.69397  -0.65405  -0.60493  -0.59965
 Alpha  occ. eigenvalues --   -0.56794  -0.53362  -0.51315  -0.50480  -0.48869
 Alpha  occ. eigenvalues --   -0.48663  -0.47095  -0.46684  -0.45380  -0.44215
 Alpha  occ. eigenvalues --   -0.43520  -0.42960  -0.42471  -0.42157  -0.41483
 Alpha  occ. eigenvalues --   -0.41319  -0.40822  -0.40244  -0.39311  -0.38486
 Alpha  occ. eigenvalues --   -0.38129  -0.37721  -0.36128  -0.32247  -0.31109
 Alpha  occ. eigenvalues --   -0.29760  -0.29211  -0.27883  -0.27713
 Alpha virt. eigenvalues --   -0.13453  -0.03093  -0.01086  -0.01022  -0.00512
 Alpha virt. eigenvalues --   -0.00095   0.00875   0.01292   0.02229   0.02636
 Alpha virt. eigenvalues --    0.03047   0.03357   0.04340   0.04503   0.04782

  Beta  occ. eigenvalues --  -19.17775 -19.14219 -19.14199 -19.12722 -10.31764
  Beta  occ. eigenvalues --  -10.28889 -10.28578 -10.25463 -10.22296 -10.21444
  Beta  occ. eigenvalues --  -10.21303 -10.21196 -10.18239 -10.17493 -10.17474
  Beta  occ. eigenvalues --  -10.17042  -1.12032  -1.07553  -1.07223  -1.03735
  Beta  occ. eigenvalues --   -0.87361  -0.83597  -0.78627  -0.75176  -0.74656
  Beta  occ. eigenvalues --   -0.69945  -0.69397  -0.65405  -0.60493  -0.59965
  Beta  occ. eigenvalues --   -0.56794  -0.53362  -0.51315  -0.50480  -0.48869
  Beta  occ. eigenvalues --   -0.48663  -0.47095  -0.46684  -0.45380  -0.44215
  Beta  occ. eigenvalues --   -0.43520  -0.42960  -0.42471  -0.42157  -0.41483
  Beta  occ. eigenvalues --   -0.41319  -0.40822  -0.40244  -0.39311  -0.38486
  Beta  occ. eigenvalues --   -0.38129  -0.37721  -0.36128  -0.32247  -0.31109
  Beta  occ. eigenvalues --   -0.29760  -0.29211  -0.27883  -0.27713
  Beta virt. eigenvalues --   -0.13453  -0.03093  -0.01086  -0.01022  -0.00512
  Beta virt. eigenvalues --   -0.00095   0.00875   0.01292   0.02229   0.02636
  Beta virt. eigenvalues --    0.03047   0.03357   0.04340   0.04503   0.04782

 Mulliken charges and spin densities:
               1          2
     1  C   -0.804927   0.000000
     2  C   -0.396350   0.000000
     3  C    1.256963  -0.000000
     4  C   -0.747926   0.000000
     5  C    0.434219  -0.000000
     6  C    0.759287  -0.000000
     7  C   -0.423744  -0.000000
     8  C   -0.585403   0.000000
     9  O   -0.282738  -0.000000
    10  O   -0.247034  -0.000000
    11  H    0.234957   0.000000
    12  H    0.172830   0.000000
    13  H    0.185964   0.000000
    14  H    0.192538  -0.000000
    15  H    0.193736  -0.000000
    16  H    0.168990   0.000000
    17  H    0.192204  -0.000000
    18  C   -0.567549   0.000000
    19  C   -0.575333  -0.000000
    20  O    0.115943  -0.000000
    21  C    0.307441   0.000000
    22  C   -0.569006  -0.000000
    23  O   -0.330650   0.000000
    24  H    0.230644   0.000000
    25  H    0.177608   0.000000
    26  H    0.200218  -0.000000
    27  H    0.154832   0.000000
    28  H    0.189993  -0.000000
    29  H    0.186484   0.000000
    30  H    0.175810   0.000000
 Sum of Mulliken charges =  -0.00000   0.00000

 Dipole moment (field-independent basis, Debye):
    X=              2.1869    Y=              2.6591    Z=             -0.7827  Tot=              3.5307
 Quadrupole moment (field-independent basis, Debye-Ang):
   XX=            -95.9429   YY=           -108.2433   ZZ=            -88.4222
   XY=              4.3083   XZ=              3.9004   YZ=             -4.0248

 Normal termination of Gaussian 16 at Sun Jan 21 07:00:31 2024.
