 Q-Chem 5.4, Q-Chem, Inc., Pleasanton, CA (2021)
 Q-Chem 5.4.0 for Intel X86 EM64T Linux

User input:
--------------------------------------------------------------
$molecule
0 1
O                  1.4223280000      2.2446740000     -0.0220020000
C                  0.7909100000      1.2022170000     -0.0977720000
C                 -0.6828800000      1.2382940000     -0.1616670000
C                 -1.4680860000      0.1421810000     -0.2217890000
C                 -0.7908070000     -1.2022080000     -0.2249090000
O                 -1.4221590000     -2.2446120000     -0.3017790000
C                  0.6829600000     -1.2382910000     -0.1604120000
C                  1.4681420000     -0.1421730000     -0.1001560000
C                  2.9413550000     -0.2319210000     -0.0175220000
C                  3.5355100000     -1.2290110000      0.7730950000
C                  4.9187610000     -1.3602280000      0.8346220000
C                  5.7349590000     -0.4987590000      0.1030170000
C                  5.1575720000      0.4979230000     -0.6820330000
C                  3.7744440000      0.6393500000     -0.7375130000
C                 -2.9413490000      0.2319260000     -0.3036680000
C                 -3.5359600000      1.2294530000     -1.0934000000
C                 -4.9192470000      1.3606610000     -1.1541120000
C                 -5.7350290000      0.4987540000     -0.4225720000
C                 -5.1572020000     -0.4983690000      0.3615830000
C                 -3.7740410000     -0.6397920000      0.4162390000
H                 -1.1042960000      2.2367730000     -0.1267910000
H                  1.1044100000     -2.2367680000     -0.1951060000
H                  2.9081850000     -1.8881330000      1.3622730000
H                  5.3588300000     -2.1291540000      1.4593750000
H                  6.8133850000     -0.5993450000      0.1498920000
H                  5.7864450000      1.1722610000     -1.2521180000
H                  3.3393740000      1.4219880000     -1.3429510000
H                 -2.9089740000      1.8889080000     -1.6825490000
H                 -5.3596680000      2.1299280000     -1.7781970000
H                 -6.8134840000      0.5993430000     -0.4688080000
H                 -5.7857430000     -1.1730730000      0.9316010000
H                 -3.3386460000     -1.4227960000      1.0209730000
$end
$rem
MAX_SCF_CYCLES=200
BASIS  =  6-311++G(d,p)
GUI  =  2
JOB_TYPE  =  SP
METHOD  =  B3LYP
SOLVENT_METHOD = COSMO
$end
$solvent
dielectric 37.219
opticaldielectric 1.43
$end

--------------------------------------------------------------

             Standard Nuclear Orientation (Angstroms)
    I     Atom           X                Y                Z
 ----------------------------------------------------------------
    1      O      -1.2938125716    -2.2136633073     0.7116880870
    2      C      -0.7214605649    -1.1907308378     0.3693889141
    3      C       0.7532955967    -1.1411579887     0.3605638514
    4      C       1.4751414006    -0.0518599083     0.0229321684
    5      C       0.7214421111     1.1903374057    -0.3707448258
    6      O       1.2937828462     2.2129135401    -0.7140880597
    7      C      -0.7533196223     1.1409365931    -0.3613424058
    8      C      -1.4751474693     0.0516720308    -0.0235799135
    9      C      -2.9533371517     0.0587560712    -0.0115506201
   10      C      -3.6410010984     1.1906468262     0.4555954898
   11      C      -5.0309137966     1.2379464293     0.4385004390
   12      C      -5.7603280363     0.1550227692    -0.0501559869
   13      C      -5.0896693209    -0.9761102381    -0.5125511282
   14      C      -3.6995662230    -1.0315592011    -0.4868318605
   15      C       2.9533454544    -0.0587310703     0.0116288297
   16      C       3.6414482346    -1.1907674995    -0.4545332405
   17      C       5.0313581868    -1.2378330191    -0.4366566532
   18      C       5.7603350687    -0.1545356325     0.0518043971
   19      C       5.0892537092     0.9767452544     0.5132052499
   20      C       3.6991564781     1.0319626756     0.4866945058
   21      H       1.2301747043    -2.0604606540     0.6818690337
   22      H      -1.2302410306     2.0602847854    -0.6824731693
   23      H      -3.0814594338     2.0274506005     0.8578165124
   24      H      -5.5438489332     2.1161951846     0.8137348974
   25      H      -6.8437964773     0.1899546717    -0.0640608766
   26      H      -5.6507596267    -1.8223951984    -0.8922738302
   27      H      -3.1917192238    -1.9180235665    -0.8398696349
   28      H       3.0822626991    -2.0278594265    -0.8566246828
   29      H       5.5446329951    -2.1162018892    -0.8111450522
   30      H       6.8438027157    -0.1892935964     0.0663248481
   31      H       5.6499947176     1.8233401137     0.8927529576
   32      H       3.1909969563     1.9185631538     0.8389455147
 ----------------------------------------------------------------

    9    -843.7853612957      2.02e-06  Convergence criterion met
 Total energy in the final basis set =     -843.7853612957
    4    -843.8025809249      9.03e-06  Convergence criterion met
 Total energy in the final basis set =     -843.8025809249

                    Orbital Energies (a.u.)
 --------------------------------------------------------------

 Alpha MOs
 -- Occupied --
-19.1433 -19.1433 -10.2902 -10.2902 -10.2249 -10.2249 -10.2064 -10.2063
-10.2024 -10.2024 -10.1875 -10.1875 -10.1859 -10.1859 -10.1846 -10.1846
-10.1832 -10.1832 -10.1824 -10.1824  -1.0760  -1.0742  -0.8857  -0.8774
 -0.8556  -0.8170  -0.7676  -0.7596  -0.7592  -0.7455  -0.7066  -0.6580
 -0.6340  -0.6192  -0.6100  -0.6043  -0.5817  -0.5349  -0.5309  -0.5275
 -0.4974  -0.4881  -0.4719  -0.4670  -0.4667  -0.4598  -0.4516  -0.4453
 -0.4354  -0.4330  -0.4308  -0.4282  -0.4223  -0.4081  -0.3851  -0.3834
 -0.3664  -0.3643  -0.3567  -0.3553  -0.3195  -0.3160  -0.2948  -0.2823
 -0.2674  -0.2671  -0.2627  -0.2528

          Ground-State Mulliken Net Atomic Charges

     Atom                 Charge (a.u.)
  ----------------------------------------
      1 O                    -0.289163
      2 C                    -0.806726
      3 C                    -0.531236
      4 C                     1.193205
      5 C                    -0.806604
      6 O                    -0.289258
      7 C                    -0.530579
      8 C                     1.194407
      9 C                     1.354436
     10 C                    -0.807885
     11 C                    -0.235904
     12 C                    -0.533641
     13 C                    -0.136069
     14 C                    -0.520621
     15 C                     1.354417
     16 C                    -0.806469
     17 C                    -0.236724
     18 C                    -0.533212
     19 C                    -0.136869
     20 C                    -0.520434
     21 H                     0.243824
     22 H                     0.243716
     23 H                     0.209741
     24 H                     0.223759
     25 H                     0.206490
     26 H                     0.227513
     27 H                     0.201242
     28 H                     0.209528
     29 H                     0.223762
     30 H                     0.206525
     31 H                     0.227493
     32 H                     0.201312
  ----------------------------------------
  Sum of atomic charges =    -0.000022

                    Cartesian Multipole Moments
 -----------------------------------------------------------------
    Charge (ESU x 10^10)
                -0.0001
    Dipole Moment (Debye)
         X      -0.0005      Y       0.0004      Z       0.0049
       Tot       0.0050
    Quadrupole Moments (Debye-Ang)
        XX     -87.0400     XY     -12.1948     YY    -119.2276
        XZ       4.4393     YZ      11.7370     ZZ    -120.2458

 Total job time:  95.98s(wall), 553.31s(cpu)
        *  Thank you very much for using Q-Chem.  Have a nice day.  *
