 Q-Chem 5.4, Q-Chem, Inc., Pleasanton, CA (2021)
 Q-Chem 5.4.0 for Intel X86 EM64T Linux

User input:
--------------------------------------------------------------
$molecule
0 1
C                 -4.1000470000      3.6200770000      1.5296850000
C                 -4.5842060000      3.8392160000      0.2343320000
C                 -3.9835090000      3.1868730000     -0.8505380000
C                 -2.9097680000      2.3253940000     -0.6352290000
C                 -2.4179300000      2.0979190000      0.6459560000
C                 -3.0288410000      2.7587010000      1.7309310000
C                 -2.5222730000      2.5312940000      3.1000500000
C                 -1.3657230000      1.5947260000      3.2720000000
C                 -0.7881600000      0.9673840000      2.2274880000
C                 -1.2649670000      1.1697140000      0.8547840000
O                 -2.9827980000      3.0558030000      4.1048700000
O                 -0.7344380000      0.5960160000     -0.0874780000
O                 -0.9642570000      1.4400610000      4.5386670000
O                 -5.6310630000      4.6948110000      0.1346000000
C                 -6.1796490000      4.9686650000     -1.1521900000
H                 -4.5627610000      4.1230610000      2.3692820000
H                 -4.3425490000      3.3425880000     -1.8588400000
H                 -2.4384580000      1.8163120000     -1.4672060000
H                  0.0476660000      0.2927170000      2.3667590000
H                 -1.5479440000      2.0018190000      5.0828470000
H                 -6.9939460000      5.6697250000     -0.9809370000
H                 -6.5737530000      4.0593940000     -1.6170120000
H                 -5.4358750000      5.4283190000     -1.8107190000
$end
$rem
MAX_SCF_CYCLES=200
BASIS  =  6-311++G(d,p)
GUI  =  2
JOB_TYPE  =  SP
METHOD  =  B3LYP
SOLVENT_METHOD = COSMO
$end
$solvent
dielectric 37.219
opticaldielectric 1.43
$end

--------------------------------------------------------------

             Standard Nuclear Orientation (Angstroms)
    I     Atom           X                Y                Z
 ----------------------------------------------------------------
    1      C       1.0924465248    -1.0684535680    -0.0000372477
    2      C       2.2663762553    -0.3053937943     0.0000168149
    3      C       2.1847098614     1.0934134780     0.0001035565
    4      C       0.9384532579     1.7165252216     0.0000687263
    5      C      -0.2363459572     0.9715881138    -0.0000190474
    6      C      -0.1439525061    -0.4349961534    -0.0000595843
    7      C      -1.3793068533    -1.2453735687    -0.0000578866
    8      C      -2.6911359740    -0.5218829525     0.0000422109
    9      C      -2.7688934899     0.8242582326     0.0000652475
   10      C      -1.5631319764     1.6601635949    -0.0000521734
   11      O      -1.4051374547    -2.4685616077    -0.0000771058
   12      O      -1.6432764222     2.8816483281    -0.0001289813
   13      O      -3.7629809789    -1.3223139491     0.0001148036
   14      O       3.4252100449    -1.0089583605    -0.0000419990
   15      C       4.6629415350    -0.3019987640     0.0000219411
   16      H       1.1533163536    -2.1493398414    -0.0000525621
   17      H       3.0796033233     1.7008634686     0.0001856869
   18      H       0.8645787129     2.7972776804     0.0001098911
   19      H      -3.7245727204     1.3340172760     0.0000909599
   20      H      -3.4232010672    -2.2371604105     0.0000899799
   21      H       5.4374351503    -1.0662316084    -0.0003205863
   22      H       4.7648238445     0.3191973272     0.8955031621
   23      H       4.7645308260     0.3197617813    -0.8950956193
 ----------------------------------------------------------------

    9    -725.0764722164      8.07e-06  Convergence criterion met
 Total energy in the final basis set =     -725.0764722164
    5    -725.0950295292      2.83e-06  Convergence criterion met
 Total energy in the final basis set =     -725.0950295292

                    Orbital Energies (a.u.)
 --------------------------------------------------------------

 Alpha MOs
 -- Occupied --
-19.1835 -19.1753 -19.1551 -19.1283 -10.2991 -10.2819 -10.2754 -10.2635
-10.2251 -10.2154 -10.2036 -10.2011 -10.2009 -10.1986 -10.1970  -1.1139
 -1.0908  -1.0737  -1.0618  -0.8935  -0.8364  -0.7883  -0.7784  -0.7236
 -0.6975  -0.6612  -0.6321  -0.6112  -0.5781  -0.5533  -0.5297  -0.5192
 -0.5086  -0.4833  -0.4755  -0.4721  -0.4582  -0.4576  -0.4539  -0.4337
 -0.4261  -0.4179  -0.4126  -0.3950  -0.3900  -0.3898  -0.3508  -0.3422
 -0.3075  -0.2908  -0.2821  -0.2737  -0.2500

          Ground-State Mulliken Net Atomic Charges

     Atom                 Charge (a.u.)
  ----------------------------------------
      1 C                    -0.202500
      2 C                    -0.534257
      3 C                     0.172145
      4 C                     0.161259
      5 C                     0.368844
      6 C                     0.849726
      7 C                    -0.747976
      8 C                    -0.377910
      9 C                     0.595636
     10 C                    -0.652099
     11 O                    -0.309167
     12 O                    -0.349458
     13 O                    -0.242429
     14 O                    -0.200246
     15 C                    -0.365667
     16 H                     0.220987
     17 H                     0.266710
     18 H                     0.199218
     19 H                     0.261789
     20 H                     0.321525
     21 H                     0.204822
     22 H                     0.179583
     23 H                     0.179466
  ----------------------------------------
  Sum of atomic charges =     0.000000

                    Cartesian Multipole Moments
 -----------------------------------------------------------------
    Charge (ESU x 10^10)
                 0.0000
    Dipole Moment (Debye)
         X       5.6902      Y      -1.0442      Z       0.0002
       Tot       5.7852
    Quadrupole Moments (Debye-Ang)
        XX     -67.8938     XY      11.6529     YY    -101.1887
        XZ       0.0015     YZ       0.0017     ZZ     -86.8479

 Total job time:  36.75s(wall), 271.51s(cpu)
        *  Thank you very much for using Q-Chem.  Have a nice day.  *
