 Gaussian 16, Revision A.03,
 Gaussian 16:  ES64L-G16RevA.03 25-Dec-2016

 --------------------------------------
 #P UB3LYP/6-311++G(d,p) nosym opt freq
 --------------------------------------

 --------
 Oxidized
 --------
 Symbolic Z-matrix:
 Charge =  0 Multiplicity = 1

 SCF Done:  E(UB3LYP) =  -725.076471880     A.U. after   16 cycles
 SCF Done:  E(UB3LYP) =  -725.076469813     A.U. after   10 cycles
 SCF Done:  E(UB3LYP) =  -725.076472144     A.U. after   10 cycles
 Optimization completed.
    -- Stationary point found.
 Normal termination of Gaussian 16 at Mon Jan  8 21:29:45 2024.

 ----------------------------------------------------------------------
 #P Geom=AllCheck Guess=TCheck SCRF=Check GenChk UB3LYP/6-311++G(d,p) F
 req
 ----------------------------------------------------------------------

 Structure from the checkpoint file:  "304.chk"
 --------
 Oxidized
 --------
 Charge =  0 Multiplicity = 1

                          Input orientation:
 ---------------------------------------------------------------------
 Center     Atomic      Atomic             Coordinates (Angstroms)
 Number     Number       Type             X           Y           Z
 ---------------------------------------------------------------------
      1          6           0       -4.100047    3.620077    1.529685
      2          6           0       -4.584206    3.839216    0.234332
      3          6           0       -3.983509    3.186873   -0.850538
      4          6           0       -2.909768    2.325394   -0.635229
      5          6           0       -2.417930    2.097919    0.645956
      6          6           0       -3.028841    2.758701    1.730931
      7          6           0       -2.522273    2.531294    3.100050
      8          6           0       -1.365723    1.594726    3.272000
      9          6           0       -0.788160    0.967384    2.227488
     10          6           0       -1.264967    1.169714    0.854784
     11          8           0       -2.982798    3.055803    4.104870
     12          8           0       -0.734438    0.596016   -0.087478
     13          8           0       -0.964257    1.440061    4.538667
     14          8           0       -5.631063    4.694811    0.134600
     15          6           0       -6.179649    4.968665   -1.152190
     16          1           0       -4.562761    4.123061    2.369282
     17          1           0       -4.342549    3.342588   -1.858840
     18          1           0       -2.438458    1.816312   -1.467206
     19          1           0        0.047666    0.292717    2.366759
     20          1           0       -1.547944    2.001819    5.082847
     21          1           0       -6.993946    5.669725   -0.980937
     22          1           0       -6.573753    4.059394   -1.617012
     23          1           0       -5.435875    5.428319   -1.810719
 ---------------------------------------------------------------------

 SCF Done:  E(UB3LYP) =  -725.076472144     A.U. after    1 cycles

 Alpha  occ. eigenvalues --  -19.18372 -19.18256 -19.15417 -19.12045 -10.29784
 Alpha  occ. eigenvalues --  -10.27538 -10.27413 -10.27001 -10.24834 -10.21886
 Alpha  occ. eigenvalues --  -10.20787 -10.20701 -10.20637 -10.20540 -10.19784
 Alpha  occ. eigenvalues --   -1.11359  -1.10017  -1.07259  -1.05252  -0.89762
 Alpha  occ. eigenvalues --   -0.83859  -0.79437  -0.78363  -0.73468  -0.70064
 Alpha  occ. eigenvalues --   -0.66474  -0.63790  -0.61426  -0.58212  -0.56015
 Alpha  occ. eigenvalues --   -0.52870  -0.52454  -0.51539  -0.49847  -0.47599
 Alpha  occ. eigenvalues --   -0.47327  -0.46017  -0.45900  -0.45393  -0.43987
 Alpha  occ. eigenvalues --   -0.42326  -0.42088  -0.41307  -0.39888  -0.39541
 Alpha  occ. eigenvalues --   -0.39309  -0.36053  -0.34828  -0.30588  -0.29471
 Alpha  occ. eigenvalues --   -0.27285  -0.27272  -0.25535
 Alpha virt. eigenvalues --   -0.12645  -0.05971  -0.02587  -0.01942  -0.00400
 Alpha virt. eigenvalues --    0.00551   0.01343   0.01927   0.02179   0.02383
 Alpha virt. eigenvalues --    0.03116   0.03897   0.04070   0.05183   0.05856

  Beta  occ. eigenvalues --  -19.18372 -19.18256 -19.15417 -19.12045 -10.29784
  Beta  occ. eigenvalues --  -10.27538 -10.27413 -10.27001 -10.24834 -10.21886
  Beta  occ. eigenvalues --  -10.20787 -10.20701 -10.20637 -10.20540 -10.19784
  Beta  occ. eigenvalues --   -1.11359  -1.10017  -1.07259  -1.05252  -0.89762
  Beta  occ. eigenvalues --   -0.83859  -0.79437  -0.78363  -0.73468  -0.70064
  Beta  occ. eigenvalues --   -0.66474  -0.63790  -0.61426  -0.58212  -0.56015
  Beta  occ. eigenvalues --   -0.52870  -0.52454  -0.51539  -0.49847  -0.47599
  Beta  occ. eigenvalues --   -0.47327  -0.46017  -0.45900  -0.45393  -0.43987
  Beta  occ. eigenvalues --   -0.42326  -0.42088  -0.41307  -0.39888  -0.39541
  Beta  occ. eigenvalues --   -0.39309  -0.36053  -0.34828  -0.30588  -0.29471
  Beta  occ. eigenvalues --   -0.27285  -0.27272  -0.25535
  Beta virt. eigenvalues --   -0.12645  -0.05971  -0.02587  -0.01942  -0.00400
  Beta virt. eigenvalues --    0.00551   0.01343   0.01927   0.02179   0.02383
  Beta virt. eigenvalues --    0.03116   0.03897   0.04070   0.05183   0.05856

 Mulliken charges and spin densities:
               1          2
     1  C   -0.196305  -0.000000
     2  C   -0.485898   0.000000
     3  C    0.244221  -0.000000
     4  C    0.114781   0.000000
     5  C    0.377035   0.000000
     6  C    0.849827  -0.000000
     7  C   -0.827266  -0.000000
     8  C   -0.411051  -0.000000
     9  C    0.659118   0.000000
    10  C   -0.742104  -0.000000
    11  O   -0.261935   0.000000
    12  O   -0.249169   0.000000
    13  O   -0.201206   0.000000
    14  O   -0.156053  -0.000000
    15  C   -0.330254  -0.000000
    16  H    0.209935   0.000000
    17  H    0.207186   0.000000
    18  H    0.186433  -0.000000
    19  H    0.233626   0.000000
    20  H    0.282492   0.000000
    21  H    0.185754   0.000000
    22  H    0.155444   0.000000
    23  H    0.155390   0.000000
 Sum of Mulliken charges =  -0.00000  -0.00000

 Dipole moment (field-independent basis, Debye):
    X=             -3.2409    Y=              2.4019    Z=             -2.0512  Tot=              4.5255
 Quadrupole moment (field-independent basis, Debye-Ang):
   XX=            -67.0837   YY=            -76.5168   ZZ=            -86.5690
   XY=            -14.5656   XZ=             13.8923   YZ=            -11.4765

  Exact polarizability: 145.731 -57.097 121.210  18.584  -0.393 180.326
 Approx polarizability: 227.036 -94.493 199.333 -12.105  38.949 319.869

                      1                      2                      3
                      A                      A                      A
 Frequencies --     58.8665                84.6791               100.7578
 Red. masses --      5.0752                 5.5740                 4.5213
 Frc consts  --      0.0104                 0.0235                 0.0270
 IR Inten    --      3.0137                 0.4884                 3.1065

                      4                      5                      6
                      A                      A                      A
 Frequencies --    154.4843               165.6018               189.5783
 Red. masses --      6.7646                 5.1534                 5.3624
 Frc consts  --      0.0951                 0.0833                 0.1136
 IR Inten    --      3.9928                 1.7315                 0.1802

                      7                      8                      9
                      A                      A                      A
 Frequencies --    223.4911               280.8869               299.6465
 Red. masses --      1.1796                 4.0086                 3.9961
 Frc consts  --      0.0347                 0.1863                 0.2114
 IR Inten    --      0.0200                 1.7306                 1.6627

                     10                     11                     12
                      A                      A                      A
 Frequencies --    328.3741               334.2116               395.7726
 Red. masses --      8.4886                 5.7754                 4.7870
 Frc consts  --      0.5393                 0.3801                 0.4418
 IR Inten    --      2.7124                14.0019                 0.5153

                     13                     14                     15
                      A                      A                      A
 Frequencies --    408.8634               427.5128               458.8845
 Red. masses --      9.6026                 9.1961                 3.6933
 Frc consts  --      0.9458                 0.9903                 0.4582
 IR Inten    --      3.1354                26.3224                 3.9151

                     16                     17                     18
                      A                      A                      A
 Frequencies --    492.4155               543.9247               551.2769
 Red. masses --     10.1929                 4.8096                 5.1968
 Frc consts  --      1.4562                 0.8384                 0.9305
 IR Inten    --      1.0096                17.0958                 1.4495

                     19                     20                     21
                      A                      A                      A
 Frequencies --    630.3390               648.2927               678.0375
 Red. masses --      1.1576                 6.5177                 2.9413
 Frc consts  --      0.2710                 1.6139                 0.7967
 IR Inten    --     83.6490                11.1339                20.0200

                     22                     23                     24
                      A                      A                      A
 Frequencies --    691.8930               705.9695               721.9309
 Red. masses --      6.9756                 4.9361                 7.6896
 Frc consts  --      1.9675                 1.4495                 2.3613
 IR Inten    --      0.7215                 7.8500                 0.0065

                     25                     26                     27
                      A                      A                      A
 Frequencies --    748.1530               756.7505               845.2745
 Red. masses --      5.6795                 5.3593                 1.4467
 Frc consts  --      1.8730                 1.8083                 0.6090
 IR Inten    --     20.0136                 7.8092                34.9335

                     28                     29                     30
                      A                      A                      A
 Frequencies --    875.8475               879.2334               911.3681
 Red. masses --      1.4127                 4.9673                 1.4440
 Frc consts  --      0.6385                 2.2624                 0.7066
 IR Inten    --     31.8615                39.6088                 7.1460

                     31                     32                     33
                      A                      A                      A
 Frequencies --    987.0579              1026.2416              1048.4915
 Red. masses --      1.3307                 4.3372                 3.4965
 Frc consts  --      0.7639                 2.6913                 2.2647
 IR Inten    --      1.8021               105.7996                42.5169

                     34                     35                     36
                      A                      A                      A
 Frequencies --   1104.0797              1148.1167              1166.6359
 Red. masses --      2.8814                 1.7096                 1.2725
 Frc consts  --      2.0695                 1.3278                 1.0204
 IR Inten    --      6.6858                26.2923                 0.7253

                     37                     38                     39
                      A                      A                      A
 Frequencies --   1190.9372              1215.4537              1236.3871
 Red. masses --      1.7373                 1.5985                 1.7778
 Frc consts  --      1.4518                 1.3914                 1.6012
 IR Inten    --      9.5157                 5.3829               192.9663

                     40                     41                     42
                      A                      A                      A
 Frequencies --   1251.7560              1268.8497              1310.6190
 Red. masses --      1.7489                 3.6311                 2.3242
 Frc consts  --      1.6146                 3.4444                 2.3522
 IR Inten    --     28.1688               139.0674               280.8535

                     43                     44                     45
                      A                      A                      A
 Frequencies --   1321.9252              1366.8001              1422.6057
 Red. masses --      4.9827                 9.3042                 2.1669
 Frc consts  --      5.1301                10.2410                 2.5838
 IR Inten    --    318.9845               109.8455               372.0858

                     46                     47                     48
                      A                      A                      A
 Frequencies --   1465.7374              1476.2820              1494.3723
 Red. masses --      2.9477                 1.3760                 1.0453
 Frc consts  --      3.7312                 1.7668                 1.3754
 IR Inten    --     43.2690                 2.9333                10.5894

                     49                     50                     51
                      A                      A                      A
 Frequencies --   1502.9204              1519.0848              1603.7836
 Red. masses --      1.0650                 2.9308                 7.0137
 Frc consts  --      1.4173                 3.9847                10.6290
 IR Inten    --     28.6689                32.9694                19.8205

                     52                     53                     54
                      A                      A                      A
 Frequencies --   1630.8368              1697.8648              1703.5994
 Red. masses --      6.3339                 7.4354                10.1203
 Frc consts  --      9.9252                12.6288                17.3053
 IR Inten    --    225.7374                93.5131               169.5313

                     55                     56                     57
                      A                      A                      A
 Frequencies --   1715.2477              3012.5852              3075.6054
 Red. masses --     12.2206                 1.0342                 1.1067
 Frc consts  --     21.1834                 5.5303                 6.1680
 IR Inten    --    335.2443                50.4290                30.3839

                     58                     59                     60
                      A                      A                      A
 Frequencies --   3143.4704              3193.2850              3199.6680
 Red. masses --      1.0999                 1.0887                 1.0923
 Frc consts  --      6.4033                 6.5409                 6.5890
 IR Inten    --     16.5439                 0.2562                 1.1653

                     61                     62                     63
                      A                      A                      A
 Frequencies --   3206.3883              3209.4696              3623.8376
 Red. masses --      1.0914                 1.0928                 1.0643
 Frc consts  --      6.6109                 6.6325                 8.2345
 IR Inten    --      3.0673                 5.9524               123.8772

 - Thermochemistry -
 -------------------
 Temperature   298.150 Kelvin.  Pressure   1.00000 Atm.
 Atom     1 has atomic number  6 and mass  12.00000

 Molecular mass:   204.04226 amu.
 Principal axes and moments of inertia in atomic units:
                           1         2         3
     Eigenvalues --  1578.716724426.178485993.35590
           X            0.66878  -0.38627   0.63524
           Y           -0.47472   0.43571   0.76472
           Z            0.57217   0.81299  -0.10802
 This molecule is an asymmetric top.
 Rotational symmetry number  1.
 Warning -- assumption of classical behavior for rotation
           may cause significant error
 Rotational temperatures (Kelvin)      0.05486     0.01957     0.01445
 Rotational constants (GHZ):           1.14317     0.40774     0.30112
 Zero-point vibrational energy     443409.7 (Joules/Mol)
                                  105.97746 (Kcal/Mol)
 Warning -- explicit consideration of  18 degrees of freedom as
           vibrations may cause significant error
 Vibrational temperatures:     84.70   121.83   144.97   222.27   238.26
          (Kelvin)            272.76   321.55   404.13   431.12   472.46
                              480.86   569.43   588.26   615.10   660.23
                              708.48   782.59   793.16   906.92   932.75
                              975.54   995.48  1015.73  1038.70  1076.43
                             1088.80  1216.16  1260.15  1265.02  1311.26
                             1420.16  1476.53  1508.55  1588.52  1651.88
                             1678.53  1713.49  1748.77  1778.89  1801.00
                             1825.59  1885.69  1901.96  1966.52  2046.81
                             2108.87  2124.04  2150.07  2162.37  2185.62
                             2307.49  2346.41  2442.85  2451.10  2467.86
                             4334.44  4425.11  4522.75  4594.42  4603.61
                             4613.28  4617.71  5213.89

 Zero-point correction=                           0.168886 (Hartree/Particle)
 Thermal correction to Energy=                    0.181252
 Thermal correction to Enthalpy=                  0.182196
 Thermal correction to Gibbs Free Energy=         0.130123
 Sum of electronic and zero-point Energies=           -724.907586
 Sum of electronic and thermal Energies=              -724.895221
 Sum of electronic and thermal Enthalpies=            -724.894276
 Sum of electronic and thermal Free Energies=         -724.946349

                     E (Thermal)             CV                S
                      KCal/Mol        Cal/Mol-Kelvin    Cal/Mol-Kelvin
 Total                  113.737             47.776            109.596
 Electronic               0.000              0.000              0.000
 Translational            0.889              2.981             41.844
 Rotational               0.889              2.981             32.104
 Vibrational            111.960             41.815             35.648
 Vibration     1          0.596              1.974              4.495
 Vibration     2          0.601              1.960              3.779
 Vibration     3          0.604              1.949              3.440
 Vibration     4          0.620              1.898              2.616
 Vibration     5          0.624              1.885              2.485
 Vibration     6          0.633              1.854              2.232
 Vibration     7          0.649              1.805              1.931
 Vibration     8          0.681              1.709              1.528
 Vibration     9          0.692              1.674              1.419
 Vibration    10          0.712              1.619              1.268
 Vibration    11          0.716              1.607              1.240
 Vibration    12          0.763              1.479              0.978
 Vibration    13          0.773              1.451              0.931
 Vibration    14          0.789              1.410              0.867
 Vibration    15          0.817              1.341              0.769
 Vibration    16          0.848              1.267              0.677
 Vibration    17          0.899              1.153              0.557
 Vibration    18          0.907              1.137              0.542

 Optimization completed.
    -- Stationary point found.
 Normal termination of Gaussian 16 at Mon Jan  8 21:56:18 2024.
