 Gaussian 16, Revision A.03,
 Gaussian 16:  ES64L-G16RevA.03 25-Dec-2016

 --------------------------------------
 #P UB3LYP/6-311++G(d,p) nosym opt freq
 --------------------------------------

 --------
 Oxidized
 --------
 Symbolic Z-matrix:
 Charge =  0 Multiplicity = 1

 SCF Done:  E(UB3LYP) =  -725.072868889     A.U. after   16 cycles
 SCF Done:  E(UB3LYP) =  -725.076147205     A.U. after   14 cycles
 SCF Done:  E(UB3LYP) =  -725.076452288     A.U. after   12 cycles
 SCF Done:  E(UB3LYP) =  -725.076469543     A.U. after   12 cycles
 SCF Done:  E(UB3LYP) =  -725.076471715     A.U. after   10 cycles
 SCF Done:  E(UB3LYP) =  -725.076471880     A.U. after    9 cycles
 Optimization completed.
    -- Stationary point found.
 Normal termination of Gaussian 16 at Thu Dec 28 20:05:47 2023.

 ----------------------------------------------------------------------
 #P Geom=AllCheck Guess=TCheck SCRF=Check GenChk UB3LYP/6-311++G(d,p) F
 req
 ----------------------------------------------------------------------

 Structure from the checkpoint file:  "304.chk"
 --------
 Oxidized
 --------
 Charge =  0 Multiplicity = 1

                          Input orientation:
 ---------------------------------------------------------------------
 Center     Atomic      Atomic             Coordinates (Angstroms)
 Number     Number       Type             X           Y           Z
 ---------------------------------------------------------------------
      1          6           0       -4.099869    3.620272    1.529588
      2          6           0       -4.584138    3.839276    0.234193
      3          6           0       -3.983375    3.186841   -0.850609
      4          6           0       -2.909552    2.325458   -0.635270
      5          6           0       -2.417649    2.098165    0.645953
      6          6           0       -3.028585    2.759028    1.730853
      7          6           0       -2.521906    2.531830    3.099968
      8          6           0       -1.365732    1.594638    3.272148
      9          6           0       -0.788314    0.967319    2.227561
     10          6           0       -1.264622    1.170109    0.854841
     11          8           0       -2.983130    3.055774    4.104744
     12          8           0       -0.734518    0.595778   -0.087262
     13          8           0       -0.964385    1.439503    4.538748
     14          8           0       -5.631032    4.694770    0.134602
     15          6           0       -6.179911    4.968614   -1.152078
     16          1           0       -4.562619    4.123336    2.369163
     17          1           0       -4.342494    3.342454   -1.858911
     18          1           0       -2.438194    1.816304   -1.467239
     19          1           0        0.047236    0.292282    2.366873
     20          1           0       -1.547930    2.001632    5.082653
     21          1           0       -6.994250    5.669607   -0.980752
     22          1           0       -6.573992    4.059304   -1.616880
     23          1           0       -5.436289    5.428297   -1.810785
 ---------------------------------------------------------------------

 SCF Done:  E(UB3LYP) =  -725.076471880     A.U. after    2 cycles

 Alpha  occ. eigenvalues --  -19.18373 -19.18259 -19.15417 -19.12044 -10.29785
 Alpha  occ. eigenvalues --  -10.27536 -10.27413 -10.27002 -10.24835 -10.21886
 Alpha  occ. eigenvalues --  -10.20787 -10.20700 -10.20637 -10.20540 -10.19782
 Alpha  occ. eigenvalues --   -1.11362  -1.10018  -1.07263  -1.05252  -0.89761
 Alpha  occ. eigenvalues --   -0.83858  -0.79436  -0.78363  -0.73468  -0.70062
 Alpha  occ. eigenvalues --   -0.66474  -0.63789  -0.61426  -0.58212  -0.56015
 Alpha  occ. eigenvalues --   -0.52869  -0.52453  -0.51539  -0.49847  -0.47599
 Alpha  occ. eigenvalues --   -0.47327  -0.46016  -0.45899  -0.45393  -0.43987
 Alpha  occ. eigenvalues --   -0.42326  -0.42090  -0.41309  -0.39889  -0.39543
 Alpha  occ. eigenvalues --   -0.39312  -0.36053  -0.34828  -0.30587  -0.29471
 Alpha  occ. eigenvalues --   -0.27284  -0.27271  -0.25535
 Alpha virt. eigenvalues --   -0.12643  -0.05972  -0.02586  -0.01942  -0.00401
 Alpha virt. eigenvalues --    0.00551   0.01342   0.01928   0.02179   0.02383
 Alpha virt. eigenvalues --    0.03116   0.03897   0.04070   0.05183   0.05856

  Beta  occ. eigenvalues --  -19.18373 -19.18259 -19.15417 -19.12044 -10.29785
  Beta  occ. eigenvalues --  -10.27536 -10.27413 -10.27002 -10.24835 -10.21886
  Beta  occ. eigenvalues --  -10.20787 -10.20700 -10.20637 -10.20540 -10.19782
  Beta  occ. eigenvalues --   -1.11362  -1.10018  -1.07263  -1.05252  -0.89761
  Beta  occ. eigenvalues --   -0.83858  -0.79436  -0.78363  -0.73468  -0.70062
  Beta  occ. eigenvalues --   -0.66474  -0.63789  -0.61426  -0.58212  -0.56015
  Beta  occ. eigenvalues --   -0.52869  -0.52453  -0.51539  -0.49847  -0.47599
  Beta  occ. eigenvalues --   -0.47327  -0.46016  -0.45899  -0.45393  -0.43987
  Beta  occ. eigenvalues --   -0.42326  -0.42090  -0.41309  -0.39889  -0.39543
  Beta  occ. eigenvalues --   -0.39312  -0.36053  -0.34828  -0.30587  -0.29471
  Beta  occ. eigenvalues --   -0.27284  -0.27271  -0.25535
  Beta virt. eigenvalues --   -0.12643  -0.05972  -0.02586  -0.01942  -0.00401
  Beta virt. eigenvalues --    0.00551   0.01342   0.01928   0.02179   0.02383
  Beta virt. eigenvalues --    0.03116   0.03897   0.04070   0.05183   0.05856

 Mulliken charges and spin densities:
               1          2
     1  C   -0.196169  -0.000000
     2  C   -0.485731  -0.000000
     3  C    0.243942  -0.000000
     4  C    0.114721  -0.000000
     5  C    0.376740   0.000000
     6  C    0.850000  -0.000000
     7  C   -0.826922   0.000000
     8  C   -0.411160   0.000000
     9  C    0.658693  -0.000000
    10  C   -0.741867   0.000000
    11  O   -0.261901  -0.000000
    12  O   -0.249194   0.000000
    13  O   -0.201108  -0.000000
    14  O   -0.156034   0.000000
    15  C   -0.330243   0.000000
    16  H    0.209942   0.000000
    17  H    0.207156  -0.000000
    18  H    0.186453  -0.000000
    19  H    0.233621  -0.000000
    20  H    0.282461   0.000000
    21  H    0.185743   0.000000
    22  H    0.155467   0.000000
    23  H    0.155391   0.000000
 Sum of Mulliken charges =  -0.00000  -0.00000

 Dipole moment (field-independent basis, Debye):
    X=             -3.2401    Y=              2.4040    Z=             -2.0513  Tot=              4.5261
 Quadrupole moment (field-independent basis, Debye-Ang):
   XX=            -67.0822   YY=            -76.5091   ZZ=            -86.5696
   XY=            -14.5694   XZ=             13.8979   YZ=            -11.4713

  Exact polarizability: 145.735 -57.100 121.214  18.585  -0.395 180.325
 Approx polarizability: 227.044 -94.500 199.340 -12.101  38.945 319.856

                      1                      2                      3
                      A                      A                      A
 Frequencies --     59.0229                84.7403               100.7979
 Red. masses --      5.0731                 5.5824                 4.5203
 Frc consts  --      0.0104                 0.0236                 0.0271
 IR Inten    --      3.0155                 0.4962                 3.1031

                      4                      5                      6
                      A                      A                      A
 Frequencies --    154.3948               165.5865               189.5104
 Red. masses --      6.7596                 5.1525                 5.3642
 Frc consts  --      0.0949                 0.0832                 0.1135
 IR Inten    --      3.9797                 1.7327                 0.1845

                      7                      8                      9
                      A                      A                      A
 Frequencies --    223.4871               280.8587               299.6167
 Red. masses --      1.1794                 4.0088                 3.9970
 Frc consts  --      0.0347                 0.1863                 0.2114
 IR Inten    --      0.0203                 1.7275                 1.6613

                     10                     11                     12
                      A                      A                      A
 Frequencies --    328.3787               333.9495               395.7496
 Red. masses --      8.4912                 5.7758                 4.7880
 Frc consts  --      0.5395                 0.3795                 0.4418
 IR Inten    --      2.7599                13.9894                 0.5101

                     13                     14                     15
                      A                      A                      A
 Frequencies --    408.8636               427.4636               458.9299
 Red. masses --      9.6007                 9.2006                 3.6938
 Frc consts  --      0.9456                 0.9905                 0.4584
 IR Inten    --      3.1322                26.2861                 3.8887

                     16                     17                     18
                      A                      A                      A
 Frequencies --    492.4519               543.9117               551.2732
 Red. masses --     10.1929                 4.8101                 5.1978
 Frc consts  --      1.4564                 0.8384                 0.9307
 IR Inten    --      1.0086                17.0783                 1.4620

                     19                     20                     21
                      A                      A                      A
 Frequencies --    630.1104               648.2872               678.0343
 Red. masses --      1.1568                 6.5173                 2.9447
 Frc consts  --      0.2706                 1.6138                 0.7976
 IR Inten    --     83.8215                11.1413                19.9123

                     22                     23                     24
                      A                      A                      A
 Frequencies --    691.8943               705.9861               721.9153
 Red. masses --      6.9788                 4.9364                 7.6948
 Frc consts  --      1.9684                 1.4496                 2.3628
 IR Inten    --      0.7172                 7.8522                 0.0068

                     25                     26                     27
                      A                      A                      A
 Frequencies --    748.1259               756.7319               845.3514
 Red. masses --      5.6953                 5.3589                 1.4466
 Frc consts  --      1.8781                 1.8080                 0.6091
 IR Inten    --     19.9115                 7.8066                34.9391

                     28                     29                     30
                      A                      A                      A
 Frequencies --    875.9616               879.2012               911.4973
 Red. masses --      1.4124                 4.9685                 1.4435
 Frc consts  --      0.6385                 2.2628                 0.7066
 IR Inten    --     31.8800                39.6149                 7.1467

                     31                     32                     33
                      A                      A                      A
 Frequencies --    987.1767              1026.1973              1048.4739
 Red. masses --      1.3305                 4.3433                 3.4941
 Frc consts  --      0.7640                 2.6948                 2.2631
 IR Inten    --      1.8092               105.9995                42.3750

                     34                     35                     36
                      A                      A                      A
 Frequencies --   1104.1533              1148.1391              1166.6388
 Red. masses --      2.8811                 1.7097                 1.2725
 Frc consts  --      2.0695                 1.3279                 1.0204
 IR Inten    --      6.6983                26.2077                 0.7244

                     37                     38                     39
                      A                      A                      A
 Frequencies --   1190.9719              1215.4975              1236.4811
 Red. masses --      1.7362                 1.6007                 1.7756
 Frc consts  --      1.4509                 1.3934                 1.5994
 IR Inten    --      9.4392                 5.4008               192.8547

                     40                     41                     42
                      A                      A                      A
 Frequencies --   1251.8103              1268.9528              1310.6853
 Red. masses --      1.7483                 3.6377                 2.3260
 Frc consts  --      1.6142                 3.4512                 2.3543
 IR Inten    --     28.2084               139.7569               282.0383

                     43                     44                     45
                      A                      A                      A
 Frequencies --   1322.0368              1366.7449              1422.6912
 Red. masses --      4.9869                 9.3023                 2.1640
 Frc consts  --      5.1353                10.2380                 2.5807
 IR Inten    --    316.1109               110.5318               372.6373

                     46                     47                     48
                      A                      A                      A
 Frequencies --   1465.7416              1476.3038              1494.3602
 Red. masses --      2.9467                 1.3760                 1.0453
 Frc consts  --      3.7300                 1.7670                 1.3753
 IR Inten    --     43.2407                 2.9347                10.5907

                     49                     50                     51
                      A                      A                      A
 Frequencies --   1502.9485              1519.1075              1603.7428
 Red. masses --      1.0650                 2.9305                 7.0155
 Frc consts  --      1.4174                 3.9845                10.6310
 IR Inten    --     28.6659                32.9991                19.6818

                     52                     53                     54
                      A                      A                      A
 Frequencies --   1630.8238              1697.9958              1703.6840
 Red. masses --      6.3300                 7.4459                10.0930
 Frc consts  --      9.9189                12.6486                17.2604
 IR Inten    --    225.7593                92.9334               170.3720

                     55                     56                     57
                      A                      A                      A
 Frequencies --   1715.3060              3012.4731              3075.4389
 Red. masses --     12.2220                 1.0343                 1.1067
 Frc consts  --     21.1872                 5.5300                 6.1673
 IR Inten    --    335.1623                50.4334                30.3918

                     58                     59                     60
                      A                      A                      A
 Frequencies --   3143.4680              3192.9128              3199.4361
 Red. masses --      1.0998                 1.0887                 1.0923
 Frc consts  --      6.4032                 6.5396                 6.5880
 IR Inten    --     16.5462                 0.2380                 1.1663

                     61                     62                     63
                      A                      A                      A
 Frequencies --   3206.0741              3209.2905              3624.1489
 Red. masses --      1.0914                 1.0928                 1.0643
 Frc consts  --      6.6096                 6.6315                 8.2359
 IR Inten    --      3.0683                 5.9803               123.7668

 - Thermochemistry -
 -------------------
 Temperature   298.150 Kelvin.  Pressure   1.00000 Atm.
 Atom     1 has atomic number  6 and mass  12.00000

 Molecular mass:   204.04226 amu.
 Principal axes and moments of inertia in atomic units:
                           1         2         3
     Eigenvalues --  1578.672264426.314535993.44780
           X            0.66877  -0.38627   0.63525
           Y           -0.47475   0.43568   0.76472
           Z            0.57215   0.81301  -0.10799
 This molecule is an asymmetric top.
 Rotational symmetry number  1.
 Warning -- assumption of classical behavior for rotation
           may cause significant error
 Rotational temperatures (Kelvin)      0.05487     0.01957     0.01445
 Rotational constants (GHZ):           1.14320     0.40773     0.30112
 Zero-point vibrational energy     443407.8 (Joules/Mol)
                                  105.97700 (Kcal/Mol)
 Warning -- explicit consideration of  18 degrees of freedom as
           vibrations may cause significant error
 Vibrational temperatures:     84.92   121.92   145.03   222.14   238.24
          (Kelvin)            272.66   321.55   404.09   431.08   472.46
                              480.48   569.40   588.26   615.02   660.30
                              708.53   782.57   793.16   906.59   932.74
                              975.54   995.48  1015.76  1038.68  1076.39
                             1088.77  1216.27  1260.31  1264.97  1311.44
                             1420.33  1476.47  1508.52  1588.63  1651.92
                             1678.53  1713.54  1748.83  1779.02  1801.08
                             1825.74  1885.78  1902.12  1966.44  2046.94
                             2108.88  2124.07  2150.05  2162.41  2185.66
                             2307.43  2346.39  2443.04  2451.22  2467.94
                             4334.28  4424.87  4522.75  4593.89  4603.27
                             4612.83  4617.45  5214.34

 Zero-point correction=                           0.168885 (Hartree/Particle)
 Thermal correction to Energy=                    0.181251
 Thermal correction to Enthalpy=                  0.182195
 Thermal correction to Gibbs Free Energy=         0.130124
 Sum of electronic and zero-point Energies=           -724.907587
 Sum of electronic and thermal Energies=              -724.895221
 Sum of electronic and thermal Enthalpies=            -724.894277
 Sum of electronic and thermal Free Energies=         -724.946347

                     E (Thermal)             CV                S
                      KCal/Mol        Cal/Mol-Kelvin    Cal/Mol-Kelvin
 Total                  113.737             47.777            109.592
 Electronic               0.000              0.000              0.000
 Translational            0.889              2.981             41.844
 Rotational               0.889              2.981             32.104
 Vibrational            111.959             41.815             35.644
 Vibration     1          0.596              1.974              4.490
 Vibration     2          0.601              1.960              3.778
 Vibration     3          0.604              1.948              3.439
 Vibration     4          0.620              1.898              2.617
 Vibration     5          0.624              1.885              2.485
 Vibration     6          0.633              1.854              2.233
 Vibration     7          0.649              1.805              1.931
 Vibration     8          0.681              1.709              1.528
 Vibration     9          0.692              1.674              1.419
 Vibration    10          0.712              1.619              1.268
 Vibration    11          0.715              1.608              1.241
 Vibration    12          0.762              1.479              0.978
 Vibration    13          0.773              1.451              0.931
 Vibration    14          0.789              1.410              0.867
 Vibration    15          0.817              1.341              0.769
 Vibration    16          0.848              1.267              0.677
 Vibration    17          0.899              1.153              0.557
 Vibration    18          0.907              1.137              0.542

 Optimization completed.
    -- Stationary point found.
 Normal termination of Gaussian 16 at Thu Dec 28 20:36:17 2023.
