 Q-Chem 5.4, Q-Chem, Inc., Pleasanton, CA (2021)
 Q-Chem 5.4.0 for Intel X86 EM64T Linux

User input:
--------------------------------------------------------------
$molecule
0 1
C                  0.3110660000      1.8087550000     -2.1458290000
C                 -1.1428580000      2.0948220000     -2.0349620000
C                 -2.0428760000      1.1224430000     -1.8427610000
C                 -1.6210410000     -0.2950340000     -1.7309010000
C                 -0.1702340000     -0.5842800000     -1.8360540000
C                  0.7478910000      0.3864920000     -1.9838900000
O                  1.1019290000      2.7010310000     -2.3971250000
O                 -2.4323330000     -1.1890320000     -1.5557010000
C                  3.2770850000      0.7833050000     -1.3912770000
C                  4.4892130000      0.9199060000     -2.0849140000
C                  3.1474070000      1.3104750000     -0.0881910000
C                  4.2486430000      1.9787320000      0.4574150000
C                  5.5599050000      1.6063490000     -1.5306910000
C                  5.4357990000      2.1411040000     -0.2504650000
H                 -1.4203210000      3.1379750000     -2.1406740000
H                 -3.1078730000      1.3133790000     -1.7706060000
H                  0.1166780000     -1.6284110000     -1.7727760000
H                  4.5664390000      0.4849500000     -3.0735280000
H                  4.1726010000      2.3733640000      1.4651220000
H                  6.4818920000      1.7198590000     -2.0887280000
H                  6.2637570000      2.6751770000      0.2022930000
C                  2.2134400000      0.0190010000     -2.1121480000
O                  2.4960340000     -0.9083390000     -2.8490370000
C                  1.9099890000      1.1522740000      0.7669090000
H                  1.5067060000      0.1386290000      0.7344960000
H                  1.1131820000      1.8380510000      0.4627210000
H                  2.1450080000      1.3797840000      1.8081130000
$end
$rem
MAX_SCF_CYCLES=200
BASIS  =  6-311++G(d,p)
GUI  =  2
JOB_TYPE  =  SP
METHOD  =  B3LYP
SOLVENT_METHOD = PCM
$end
$pcm
theory = CPCM
$end
$solvent
dielectric 37.219
opticaldielectric 1.43
$end

--------------------------------------------------------------

             Standard Nuclear Orientation (Angstroms)
    I     Atom           X                Y                Z
 ----------------------------------------------------------------
    1      C       0.3110660000     1.8087550000    -2.1458290000
    2      C      -1.1428580000     2.0948220000    -2.0349620000
    3      C      -2.0428760000     1.1224430000    -1.8427610000
    4      C      -1.6210410000    -0.2950340000    -1.7309010000
    5      C      -0.1702340000    -0.5842800000    -1.8360540000
    6      C       0.7478910000     0.3864920000    -1.9838900000
    7      O       1.1019290000     2.7010310000    -2.3971250000
    8      O      -2.4323330000    -1.1890320000    -1.5557010000
    9      C       3.2770850000     0.7833050000    -1.3912770000
   10      C       4.4892130000     0.9199060000    -2.0849140000
   11      C       3.1474070000     1.3104750000    -0.0881910000
   12      C       4.2486430000     1.9787320000     0.4574150000
   13      C       5.5599050000     1.6063490000    -1.5306910000
   14      C       5.4357990000     2.1411040000    -0.2504650000
   15      H      -1.4203210000     3.1379750000    -2.1406740000
   16      H      -3.1078730000     1.3133790000    -1.7706060000
   17      H       0.1166780000    -1.6284110000    -1.7727760000
   18      H       4.5664390000     0.4849500000    -3.0735280000
   19      H       4.1726010000     2.3733640000     1.4651220000
   20      H       6.4818920000     1.7198590000    -2.0887280000
   21      H       6.2637570000     2.6751770000     0.2022930000
   22      C       2.2134400000     0.0190010000    -2.1121480000
   23      O       2.4960340000    -0.9083390000    -2.8490370000
   24      C       1.9099890000     1.1522740000     0.7669090000
   25      H       1.5067060000     0.1386290000     0.7344960000
   26      H       1.1131820000     1.8380510000     0.4627210000
   27      H       2.1450080000     1.3797840000     1.8081130000
 ----------------------------------------------------------------

    9    -765.3671160153      3.49e-06  Convergence criterion met
 Total energy in the final basis set =     -765.3671160153

                    Orbital Energies (a.u.)
 --------------------------------------------------------------

 Alpha MOs
 -- Occupied --
-19.1523 -19.1516 -19.1401 -10.2994 -10.2954 -10.2926 -10.2303 -10.2236
-10.2173 -10.2160 -10.2048 -10.1989 -10.1889 -10.1875 -10.1823 -10.1818
-10.1714  -1.0851  -1.0807  -1.0746  -0.8785  -0.8733  -0.8107  -0.7871
 -0.7730  -0.7242  -0.7017  -0.6752  -0.6342  -0.6238  -0.6072  -0.5669
 -0.5356  -0.5261  -0.5126  -0.4958  -0.4861  -0.4785  -0.4631  -0.4582
 -0.4574  -0.4467  -0.4421  -0.4348  -0.4269  -0.4211  -0.4167  -0.4083
 -0.3935  -0.3705  -0.3651  -0.3551  -0.3211  -0.3122  -0.3037  -0.2999
 -0.2766  -0.2683  -0.2611

          Ground-State Mulliken Net Atomic Charges

     Atom                 Charge (a.u.)
  ----------------------------------------
      1 C                    -1.035795
      2 C                    -0.081977
      3 C                     0.193775
      4 C                    -0.436091
      5 C                     0.083986
      6 C                     1.622670
      7 O                    -0.220278
      8 O                    -0.286467
      9 C                     0.588614
     10 C                    -0.095297
     11 C                     0.464325
     12 C                    -0.161091
     13 C                    -0.605464
     14 C                    -0.256878
     15 H                     0.273477
     16 H                     0.270606
     17 H                     0.293480
     18 H                     0.242529
     19 H                     0.197603
     20 H                     0.211073
     21 H                     0.213838
     22 C                    -1.090201
     23 O                    -0.259282
     24 C                    -0.717310
     25 H                     0.193379
     26 H                     0.205443
     27 H                     0.191333
  ----------------------------------------
  Sum of atomic charges =     0.000000

                    Cartesian Multipole Moments
 -----------------------------------------------------------------
    Charge (ESU x 10^10)
                -0.0000
    Dipole Moment (Debye)
         X      -0.3292      Y       3.3902      Z       3.3652
       Tot       4.7881
    Quadrupole Moments (Debye-Ang)
        XX     -92.4563     XY      -2.9567     YY    -104.3590
        XZ      10.6600     YZ      -1.4858     ZZ    -104.6423

 Total job time:  48.78s(wall), 339.65s(cpu)
        *  Thank you very much for using Q-Chem.  Have a nice day.  *
