 Gaussian 16, Revision A.03,
 Gaussian 16:  ES64L-G16RevA.03 25-Dec-2016

 ----------------------------------------------------------------
 #P UB3LYP/6-311++G(d,p) SCRF=(PCM,Solvent=n,n-DiMethylFormamide)
 ----------------------------------------------------------------

 -------
 Reduced
 -------
 Symbolic Z-matrix:
 Charge = -2 Multiplicity = 1

                         Standard orientation:
 ---------------------------------------------------------------------
 Center     Atomic      Atomic             Coordinates (Angstroms)
 Number     Number       Type             X           Y           Z
 ---------------------------------------------------------------------
      1          6           0       -2.499428    1.392373   -0.834132
      2          6           0       -1.874144    2.686560   -1.011650
      3          6           0       -0.649975    3.025562   -0.497059
      4          6           0        0.173064    2.119953    0.270490
      5          6           0       -0.429657    0.825674    0.454779
      6          6           0       -1.712979    0.468935   -0.079774
      7          8           0       -3.678415    1.147902   -1.284594
      8          8           0        1.335909    2.461680    0.684068
      9          1           0       -2.449024    3.411372   -1.587589
     10          1           0       -0.226317    4.014249   -0.667228
     11         16           0        0.606902   -0.400188    1.201706
     12          6           0       -2.421352   -0.802269    0.238857
     13          8           0       -3.023299   -1.071272    1.256277
     14          8           0       -2.418623   -1.670422   -0.822793
     15          6           0       -3.173971   -2.857632   -0.630217
     16          1           0       -3.082989   -3.424994   -1.559935
     17          1           0       -4.225801   -2.626510   -0.434037
     18          1           0       -2.779980   -3.440652    0.208056
     19          6           0        2.077300   -0.514558    0.136409
     20          6           0        3.160786    0.352812    0.314579
     21          6           0        2.093463   -1.477328   -0.875832
     22          6           0        4.265359    0.237713   -0.530480
     23          6           0        3.203007   -1.584537   -1.711225
     24          6           0        4.295798   -0.726094   -1.540282
     25          8           0        1.100656   -0.033592    2.546382
     26          8           0       -0.042078   -1.729909    1.068596
     27          1           0        3.098801    1.108392    1.083875
     28          1           0        1.235569   -2.129503   -0.987503
     29          1           0        5.106573    0.913568   -0.402190
     30          1           0        3.216276   -2.336009   -2.495904
     31          1           0        5.159644   -0.804978   -2.195106
 ---------------------------------------------------------------------

 SCF Done:  E(UB3LYP) =  -1389.54499910     A.U. after   18 cycles

 The electronic state is 1-A.
 Alpha  occ. eigenvalues --  -89.03382 -19.15176 -19.10316 -19.10137 -19.09846
 Alpha  occ. eigenvalues --  -19.03545 -19.02670 -10.29297 -10.20983 -10.20095
 Alpha  occ. eigenvalues --  -10.19824 -10.19099 -10.18294 -10.18094 -10.17925
 Alpha  occ. eigenvalues --  -10.17830 -10.17769 -10.17307 -10.15489 -10.14718
 Alpha  occ. eigenvalues --  -10.14464  -8.09725  -6.06038  -6.05906  -6.05789
 Alpha  occ. eigenvalues --   -1.09453  -1.08901  -1.00823  -0.98525  -0.95756
 Alpha  occ. eigenvalues --   -0.94596  -0.86387  -0.80881  -0.76875  -0.75238
 Alpha  occ. eigenvalues --   -0.74767  -0.72367  -0.68276  -0.64931  -0.61262
 Alpha  occ. eigenvalues --   -0.60881  -0.59069  -0.55628  -0.54564  -0.52351
 Alpha  occ. eigenvalues --   -0.49198  -0.47970  -0.47276  -0.47157  -0.46669
 Alpha  occ. eigenvalues --   -0.46501  -0.45043  -0.44417  -0.43517  -0.42870
 Alpha  occ. eigenvalues --   -0.42544  -0.40868  -0.38312  -0.38093  -0.38068
 Alpha  occ. eigenvalues --   -0.37085  -0.36705  -0.35728  -0.35328  -0.34755
 Alpha  occ. eigenvalues --   -0.34256  -0.33135  -0.32476  -0.31119  -0.29943
 Alpha  occ. eigenvalues --   -0.28999  -0.28517  -0.27919  -0.26536  -0.26083
 Alpha  occ. eigenvalues --   -0.24173  -0.23678  -0.21193  -0.20698  -0.13855
 Alpha virt. eigenvalues --   -0.03725  -0.01551  -0.00809  -0.00149   0.00740
 Alpha virt. eigenvalues --    0.01129   0.01730   0.01933   0.02505   0.03065
 Alpha virt. eigenvalues --    0.03385   0.03771   0.04236   0.04730   0.04889

  Beta  occ. eigenvalues --  -89.03382 -19.15176 -19.10316 -19.10137 -19.09846
  Beta  occ. eigenvalues --  -19.03545 -19.02670 -10.29297 -10.20983 -10.20095
  Beta  occ. eigenvalues --  -10.19824 -10.19099 -10.18294 -10.18094 -10.17925
  Beta  occ. eigenvalues --  -10.17830 -10.17769 -10.17307 -10.15489 -10.14718
  Beta  occ. eigenvalues --  -10.14464  -8.09725  -6.06038  -6.05906  -6.05789
  Beta  occ. eigenvalues --   -1.09453  -1.08901  -1.00823  -0.98525  -0.95756
  Beta  occ. eigenvalues --   -0.94596  -0.86387  -0.80881  -0.76875  -0.75238
  Beta  occ. eigenvalues --   -0.74767  -0.72367  -0.68276  -0.64931  -0.61262
  Beta  occ. eigenvalues --   -0.60881  -0.59069  -0.55628  -0.54564  -0.52351
  Beta  occ. eigenvalues --   -0.49198  -0.47970  -0.47276  -0.47157  -0.46669
  Beta  occ. eigenvalues --   -0.46501  -0.45043  -0.44417  -0.43517  -0.42870
  Beta  occ. eigenvalues --   -0.42544  -0.40868  -0.38312  -0.38093  -0.38068
  Beta  occ. eigenvalues --   -0.37085  -0.36705  -0.35728  -0.35328  -0.34755
  Beta  occ. eigenvalues --   -0.34256  -0.33135  -0.32476  -0.31119  -0.29943
  Beta  occ. eigenvalues --   -0.28999  -0.28517  -0.27919  -0.26536  -0.26083
  Beta  occ. eigenvalues --   -0.24173  -0.23678  -0.21193  -0.20698  -0.13855
  Beta virt. eigenvalues --   -0.03725  -0.01551  -0.00809  -0.00149   0.00740
  Beta virt. eigenvalues --    0.01129   0.01730   0.01933   0.02505   0.03065
  Beta virt. eigenvalues --    0.03385   0.03771   0.04236   0.04730   0.04889

 Mulliken charges and spin densities:
               1          2
     1  C   -0.480400  -0.000000
     2  C   -0.190822   0.000000
     3  C    0.025358   0.000000
     4  C   -0.218737  -0.000000
     5  C    0.202195   0.000000
     6  C    0.612135   0.000000
     7  O   -0.650358   0.000000
     8  O   -0.541083   0.000000
     9  H    0.165192  -0.000000
    10  H    0.170291   0.000000
    11  S   -0.177182  -0.000000
    12  C   -0.505337  -0.000000
    13  O   -0.237617   0.000000
    14  O    0.016103  -0.000000
    15  C   -0.236477  -0.000000
    16  H    0.152199   0.000000
    17  H    0.169726  -0.000000
    18  H    0.166550  -0.000000
    19  C    0.100895  -0.000000
    20  C    0.032648  -0.000000
    21  C   -0.023162   0.000000
    22  C   -0.414564  -0.000000
    23  C   -0.461716   0.000000
    24  C   -0.313473   0.000000
    25  O   -0.199539   0.000000
    26  O   -0.235935   0.000000
    27  H    0.276961   0.000000
    28  H    0.204348  -0.000000
    29  H    0.201957   0.000000
    30  H    0.206951  -0.000000
    31  H    0.182891  -0.000000
 Sum of Mulliken charges =  -2.00000  -0.00000

 Dipole moment (field-independent basis, Debye):
    X=             11.7030    Y=             -8.4023    Z=             -5.9797  Tot=             15.5986
 Quadrupole moment (field-independent basis, Debye-Ang):
   XX=           -190.5938   YY=           -157.3446   ZZ=           -161.3231
   XY=              6.8449   XZ=            -19.5249   YZ=              8.8187

 Normal termination of Gaussian 16 at Wed Jan 24 22:56:35 2024.
