 Q-Chem 5.4, Q-Chem, Inc., Pleasanton, CA (2021)
 Q-Chem 5.4.0 for Intel X86 EM64T Linux

User input:
--------------------------------------------------------------
$molecule
-1 2
C                 -0.2700010000      3.8131090000     -0.1798550000
C                 -1.4822090000      3.2161300000     -0.4722980000
C                 -1.5242070000      1.8680380000     -0.8821750000
C                  0.9372760000      3.0888630000     -0.2854930000
C                  0.8969250000      1.7264980000     -0.6999650000
C                 -0.3484570000      1.1432000000     -0.9915360000
C                  2.2060020000      3.7146330000      0.0211430000
C                  3.3860930000      2.8926940000     -0.1169900000
C                  3.3824630000      1.5703650000     -0.5079180000
C                  2.1299230000      0.9207270000     -0.8293780000
O                  2.3566060000      4.9229110000      0.3994750000
O                  2.0814490000     -0.2808010000     -1.2018190000
H                 -0.2120760000      4.8482490000      0.1374190000
H                 -2.4033110000      3.7855180000     -0.3866290000
H                 -2.4768100000      1.3998370000     -1.1117080000
H                 -0.3509240000      0.1054210000     -1.3053280000
O                  4.5438700000      3.5496540000      0.1852820000
C                  4.6594890000      0.7797950000     -0.6294760000
C                  5.2400530000      0.7781540000     -2.0569080000
C                  6.5192970000     -0.0559760000     -2.1852020000
C                  7.1088890000     -0.0671100000     -3.6003530000
C                  8.3874800000     -0.9029330000     -3.7325120000
H                  4.2115400000      4.4421420000      0.4286720000
H                  4.4488040000     -0.2553120000     -0.3418320000
H                  5.4075020000      1.1834300000      0.0607100000
H                  5.4447170000      1.8117800000     -2.3609290000
H                  4.4777300000      0.3889690000     -2.7402030000
H                  6.3079990000     -1.0879400000     -1.8745540000
H                  7.2739370000      0.3255070000     -1.4835110000
H                  7.3183890000      0.9647660000     -3.9120220000
H                  6.3543380000     -0.4476890000     -4.3010540000
H                  8.1776500000     -1.9348310000     -3.4209930000
H                  9.1419170000     -0.5226050000     -3.0308440000
C                  8.9764820000     -0.9142190000     -5.1476980000
H                  9.1870230000      0.1172630000     -5.4603390000
H                  8.2228700000     -1.2945290000     -5.8500330000
C                 10.2545130000     -1.7503530000     -5.2806440000
C                 10.8346310000     -1.7549170000     -6.6985400000
H                 10.0444620000     -2.7812250000     -4.9695260000
H                 11.0081990000     -1.3703970000     -4.5797180000
H                 10.1161160000     -2.1619030000     -7.4175600000
H                 11.7447450000     -2.3596270000     -6.7598080000
H                 11.0868220000     -0.7406560000     -7.0250710000
$end
$rem
MAX_SCF_CYCLES=200
SCF_Guess=core
BASIS  =  6-311++G(d,p)
GUI  =  2
JOB_TYPE  =  SP
METHOD  =  B3LYP
THRESH = 14
SCF_CONVERGENCE = 8
SOLVENT_METHOD = COSMO
$end
$solvent
dielectric 37.219
opticaldielectric 1.43
$end

--------------------------------------------------------------

             Standard Nuclear Orientation (Angstroms)
    I     Atom           X                Y                Z
 ----------------------------------------------------------------
    1      C       5.2674061803    -0.1334484876    -0.8828703494
    2      C       5.9142875455     1.0864956910    -0.9509568407
    3      C       5.2692256475     2.2537095247    -0.4942052214
    4      C       3.9601254698    -0.2308915892    -0.3587220914
    5      C       3.3064056412     0.9476389406     0.1029810721
    6      C       3.9860132127     2.1755989272     0.0225177205
    7      C       3.2836817934    -1.5086403091    -0.2875774922
    8      C       1.9482802111    -1.5070451373     0.2637656706
    9      C       1.2894879897    -0.3874984805     0.7263669617
   10      C       1.9373389334     0.9048209039     0.6598667538
   11      O       3.7737896394    -2.6215339934    -0.6710019816
   12      O       1.3684020939     1.9542268256     1.0596037250
   13      H       5.7427297149    -1.0448926692    -1.2276455770
   14      H       6.9201481374     1.1465845546    -1.3566717217
   15      H       5.7780395095     3.2116037020    -0.5480313220
   16      H       3.4656560153     3.0569858043     0.3800681618
   17      O       1.3727146798    -2.7444139018     0.2962502098
   18      C      -0.1066846360    -0.4687869282     1.2873187104
   19      C      -1.2002752995    -0.1812313282     0.2404230121
   20      C      -2.6174188647    -0.2295296662     0.8218598574
   21      C      -3.7166638309     0.0546875989    -0.2083226971
   22      C      -5.1355704936     0.0096060373     0.3709290351
   23      H       2.0835105562    -3.3073622527    -0.0833220857
   24      H      -0.1954250533     0.2700112454     2.0903605141
   25      H      -0.2726968735    -1.4631557690     1.7144860329
   26      H      -1.1142101615    -0.9087080151    -0.5757076706
   27      H      -1.0141468835     0.8076791638    -0.1919028249
   28      H      -2.6945548640     0.4975859842     1.6412813549
   29      H      -2.7921681983    -1.2164768750     1.2721696904
   30      H      -3.6385244708    -0.6709434678    -1.0287796980
   31      H      -3.5412232323     1.0405153313    -0.6583602028
   32      H      -5.2135117414     0.7354979302     1.1912291755
   33      H      -5.3105936636    -0.9763885435     0.8218659856
   34      C      -6.2344026215     0.2942718136    -0.6592823486
   35      H      -6.1576847693    -0.4312355301    -1.4801236787
   36      H      -6.0603382773     1.2800829297    -1.1106350293
   37      C      -7.6533049510     0.2500556795    -0.0805604339
   38      C      -8.7435031997     0.5359154630    -1.1182206642
   39      H      -7.7308551995     0.9755006642     0.7387859190
   40      H      -7.8281702239    -0.7349436827     0.3698891180
   41      H      -8.6154151094     1.5287141232    -1.5618820568
   42      H      -9.7429764735     0.4969385677    -0.6740704402
   43      H      -8.7134124095    -0.1941965616    -1.9336831994
 ----------------------------------------------------------------

   49    -925.1938640692      8.67e-09  Convergence criterion met
 Total energy in the final basis set =     -925.1938640692
   12    -925.2745615795      8.75e-09  Convergence criterion met
 Total energy in the final basis set =     -925.2745615795

                    Orbital Energies (a.u.)
 --------------------------------------------------------------

 Alpha MOs
 -- Occupied --
-19.1444 -19.0888 -19.0769 -10.2255 -10.2234 -10.2225 -10.1755 -10.1734
-10.1721 -10.1711 -10.1708 -10.1694 -10.1634 -10.1574 -10.1566 -10.1549
-10.1547 -10.1544 -10.1543 -10.1539 -10.1510  -1.0645  -1.0026  -0.9988
 -0.8591  -0.8140  -0.8018  -0.7811  -0.7569  -0.7512  -0.7298  -0.6963
 -0.6707  -0.6428  -0.6182  -0.6035  -0.5800  -0.5706  -0.5703  -0.5659
 -0.5373  -0.5052  -0.4852  -0.4771  -0.4634  -0.4536  -0.4504  -0.4385
 -0.4294  -0.4265  -0.4229  -0.4196  -0.4134  -0.4071  -0.3994  -0.3911
 -0.3851  -0.3829  -0.3775  -0.3682  -0.3597  -0.3507  -0.3474  -0.3447
 -0.3428  -0.3367  -0.3264  -0.3257  -0.3183  -0.3158  -0.3143  -0.3020
 -0.2688  -0.2630  -0.2586  -0.2422  -0.2284  -0.1533

 Beta MOs
 -- Occupied --
-19.1439 -19.0828 -19.0717 -10.2240 -10.2216 -10.2203 -10.1754 -10.1723
-10.1720 -10.1703 -10.1703 -10.1696 -10.1626 -10.1574 -10.1567 -10.1549
-10.1547 -10.1544 -10.1542 -10.1539 -10.1510  -1.0623  -0.9935  -0.9885
 -0.8567  -0.8118  -0.8008  -0.7799  -0.7555  -0.7490  -0.7289  -0.6942
 -0.6639  -0.6413  -0.6165  -0.6017  -0.5789  -0.5704  -0.5688  -0.5648
 -0.5355  -0.5029  -0.4829  -0.4763  -0.4621  -0.4529  -0.4498  -0.4307
 -0.4262  -0.4254  -0.4223  -0.4151  -0.4102  -0.4052  -0.3977  -0.3842
 -0.3818  -0.3789  -0.3753  -0.3623  -0.3547  -0.3502  -0.3428  -0.3418
 -0.3355  -0.3304  -0.3260  -0.3248  -0.3182  -0.3156  -0.3142  -0.3012
 -0.2577  -0.2517  -0.2495  -0.2373  -0.2199

          Ground-State Mulliken Net Atomic Charges

     Atom                 Charge (a.u.)    Spin (a.u.)
  --------------------------------------------------------
      1 C                     0.030720       0.076505
      2 C                    -0.391495      -0.001546
      3 C                    -0.478594       0.072092
      4 C                     0.483639      -0.007114
      5 C                    -0.116233       0.057486
      6 C                     0.083944       0.004985
      7 C                    -0.865529       0.177291
      8 C                    -0.595334       0.057512
      9 C                     1.998256       0.052242
     10 C                    -0.695991       0.083351
     11 O                    -0.555866       0.221688
     12 O                    -0.484331       0.192636
     13 H                     0.181386      -0.004118
     14 H                     0.204529      -0.000620
     15 H                     0.199534      -0.005063
     16 H                     0.180817      -0.000380
     17 O                    -0.302041       0.016221
     18 C                    -0.391882       0.011210
     19 C                    -0.720254      -0.001321
     20 C                    -0.139514       0.001669
     21 C                     0.010193      -0.003242
     22 C                    -0.134669      -0.000535
     23 H                     0.307735      -0.003405
     24 H                     0.201800       0.002454
     25 H                     0.218604      -0.000507
     26 H                     0.172215       0.001929
     27 H                     0.181448      -0.001601
     28 H                     0.119829       0.000489
     29 H                     0.117742      -0.000349
     30 H                     0.129522      -0.000009
     31 H                     0.129098      -0.000042
     32 H                     0.133638      -0.000003
     33 H                     0.133058      -0.000008
     34 C                    -0.350092       0.000004
     35 H                     0.129069      -0.000005
     36 H                     0.128860       0.000003
     37 C                    -0.261584       0.000113
     38 C                    -0.707640      -0.000005
     39 H                     0.136026       0.000006
     40 H                     0.135955      -0.000009
     41 H                     0.145599       0.000002
     42 H                     0.152244      -0.000003
     43 H                     0.145590      -0.000001
  --------------------------------------------------------
  Sum of atomic charges =    -1.000000

                    Cartesian Multipole Moments
 -----------------------------------------------------------------
    Charge (ESU x 10^10)
                -4.8032
    Dipole Moment (Debye)
         X     -11.2313      Y       1.7147      Z      -1.3801
       Tot      11.4450
    Quadrupole Moments (Debye-Ang)
        XX    -166.0857     XY      15.9948     YY    -155.1213
        XZ      -0.6647     YZ      -7.2531     ZZ    -138.7159

 Total job time:  1176.34s(wall), 8735.47s(cpu)
        *  Thank you very much for using Q-Chem.  Have a nice day.  *
