 Q-Chem 5.4, Q-Chem, Inc., Pleasanton, CA (2021)
 Q-Chem 5.4.0 for Intel X86 EM64T Linux

User input:
--------------------------------------------------------------
$molecule
0 1
C                 -2.8936440000      3.9400150000      0.4130980000
C                 -4.1745740000      3.4237290000      0.5461570000
C                 -4.3514820000      2.0383270000      0.5311460000
C                 -1.7903890000      3.0919100000      0.2709310000
C                 -1.9857700000      1.6999200000      0.2637880000
C                 -3.2729410000      1.1773430000      0.3942290000
C                 -0.4314080000      3.6833230000      0.1330320000
C                  0.7154830000      2.7365370000     -0.0120890000
C                  0.5201040000      1.3445400000     -0.0192360000
C                 -0.8389000000      0.7531350000      0.1185070000
C                  2.0026660000      3.2591090000     -0.1423890000
C                  3.0812230000      2.3981150000     -0.2791450000
C                  2.9043200000      1.0127230000     -0.2941710000
C                  1.6233670000      0.4964340000     -0.1612730000
O                 -0.2567640000      4.8908730000      0.1382550000
O                 -1.0135690000     -0.4544100000      0.1130650000
H                 -3.4194610000      0.1049290000      0.3913880000
H                  1.4557560000     -0.5733140000     -0.1678350000
H                 -2.7260260000      5.0097620000      0.4196350000
H                  2.1491900000      4.3315240000     -0.1395800000
H                  3.7552790000      0.3546870000     -0.4010390000
O                 -5.5935050000      1.4486730000      0.7355750000
O                  4.3233050000      2.9877260000     -0.4834000000
C                  5.4215340000      2.5972090000      0.2527800000
C                  6.6234450000      3.3943060000     -0.1706550000
O                  5.3849040000      1.7530380000      1.1027770000
H                 -5.0255120000      4.0817750000      0.6531210000
H                  6.4508430000      4.4545820000      0.0285280000
H                  6.7860500000      3.2858790000     -1.2450580000
H                  7.4965970000      3.0511250000      0.3796860000
C                 -6.6920080000      1.8394480000     -0.0000630000
C                 -7.8940240000      1.0430920000      0.4244600000
O                 -6.6555890000      2.6835750000     -0.8501120000
H                 -7.7195980000     -0.0181970000      0.2326420000
H                 -8.7660930000      1.3820190000     -0.1302090000
H                 -8.0598310000      1.1582300000      1.4977240000
$end
$rem
MAX_SCF_CYCLES=200
BASIS  =  6-311++G(d,p)
GUI  =  2
JOB_TYPE  =  SP
METHOD  =  B3LYP
SOLVENT_METHOD = COSMO
$end
$solvent
dielectric 37.219
opticaldielectric 1.43
$end

--------------------------------------------------------------

             Standard Nuclear Orientation (Angstroms)
    I     Atom           X                Y                Z
 ----------------------------------------------------------------
    1      C       2.1628435502    -1.8387782837     0.2972153445
    2      C       3.4729790424    -1.3926147790     0.3947894974
    3      C       3.7272400136    -0.0203725304     0.3385485696
    4      C       1.1066592350    -0.9335552191     0.1498686861
    5      C       1.3798734528     0.4444241764     0.1010046470
    6      C       2.6965457114     0.8964424498     0.1956851767
    7      C      -0.2857043496    -1.4503998761     0.0508228491
    8      C      -1.3799506634    -0.4442935593    -0.1014856676
    9      C      -1.1067381205     0.9336928292    -0.1503538652
   10      C       0.2856451602     1.4505240349    -0.0514641056
   11      C      -2.6966320765    -0.8963023997    -0.1960252108
   12      C      -3.7273388844     0.0205277643    -0.3387276998
   13      C      -3.4730837375     1.3927599159    -0.3949832607
   14      C      -2.1629280207     1.8389208143    -0.2975704867
   15      O      -0.5278771558    -2.6455294798     0.0923243125
   16      O       0.5278386914     2.6456413868    -0.0931847296
   17      H       2.9030848250     1.9583606349     0.1607662454
   18      H      -1.9355518249     2.8968826242    -0.3364827604
   19      H       1.9354599720    -2.8967393656     0.3361027189
   20      H      -2.9031758167    -1.9582222097    -0.1611381692
   21      H      -4.2874678758     2.0949187898    -0.5059551376
   22      O       5.0039508964     0.5031259078     0.5060684052
   23      O      -5.0041031069    -0.5029197691    -0.5060738414
   24      C      -6.0651681362    -0.0312335077     0.2370442720
   25      C      -7.3174564951    -0.7698858329    -0.1442921768
   26      O      -5.9657838665     0.8318795145     1.0626470893
   27      H       4.2873433864    -2.0947798805     0.5058579476
   28      H      -7.2012067212    -1.8325523995     0.0812655147
   29      H      -7.4930570949    -0.6811163329    -1.2184537158
   30      H      -8.1598523306    -0.3631680222     0.4106787314
   31      C       6.0652847100     0.0311810737    -0.2365053745
   32      C       7.3176558264     0.7691169307     0.1459372725
   33      O       5.9661126090    -0.8319013910    -1.0621648635
   34      H       7.1997750636     1.8330944826    -0.0722571614
   35      H       8.1591317888     0.3665907031    -0.4134591813
   36      H       7.4960547781     0.6734376123     1.2190931866
 ----------------------------------------------------------------

    9   -1144.8426869839      5.61e-06  Convergence criterion met
 Total energy in the final basis set =    -1144.8426869839
    5   -1144.8680770459      3.31e-06  Convergence criterion met
 Total energy in the final basis set =    -1144.8680770459

                    Orbital Energies (a.u.)
 --------------------------------------------------------------

 Alpha MOs
 -- Occupied --
-19.1971 -19.1971 -19.1403 -19.1403 -19.1363 -19.1362 -10.3307 -10.3307
-10.2888 -10.2888 -10.2683 -10.2683 -10.2162 -10.2162 -10.2119 -10.2119
-10.2048 -10.2048 -10.2039 -10.2039 -10.2038 -10.2038 -10.1830 -10.1830
 -1.1370  -1.1370  -1.0722  -1.0705  -1.0587  -1.0587  -0.9019  -0.8908
 -0.8249  -0.7982  -0.7911  -0.7865  -0.7624  -0.7523  -0.7029  -0.6821
 -0.6722  -0.6388  -0.6292  -0.6058  -0.5832  -0.5703  -0.5345  -0.5248
 -0.5173  -0.5137  -0.5072  -0.5027  -0.5021  -0.4935  -0.4745  -0.4718
 -0.4616  -0.4610  -0.4595  -0.4589  -0.4555  -0.4414  -0.4330  -0.4248
 -0.4248  -0.4207  -0.4075  -0.4040  -0.4040  -0.3951  -0.3903  -0.3885
 -0.3772  -0.3715  -0.3506  -0.3477  -0.3107  -0.3107  -0.2944  -0.2906
 -0.2832  -0.2813  -0.2797  -0.2702

          Ground-State Mulliken Net Atomic Charges

     Atom                 Charge (a.u.)
  ----------------------------------------
      1 C                     0.171155
      2 C                     0.082315
      3 C                    -0.542201
      4 C                     0.386950
      5 C                     0.447843
      6 C                    -0.056008
      7 C                    -0.737574
      8 C                     0.447670
      9 C                     0.389430
     10 C                    -0.738873
     11 C                    -0.054961
     12 C                    -0.544028
     13 C                     0.080681
     14 C                     0.171402
     15 O                    -0.279917
     16 O                    -0.279814
     17 H                     0.229527
     18 H                     0.213388
     19 H                     0.213397
     20 H                     0.229491
     21 H                     0.262242
     22 O                    -0.039983
     23 O                    -0.039647
     24 C                     0.137986
     25 C                    -0.586452
     26 O                    -0.296050
     27 H                     0.262064
     28 H                     0.207572
     29 H                     0.208790
     30 H                     0.190516
     31 C                     0.138312
     32 C                    -0.586518
     33 O                    -0.295983
     34 H                     0.207352
     35 H                     0.190592
     36 H                     0.209042
  ----------------------------------------
  Sum of atomic charges =    -0.000292

                    Cartesian Multipole Moments
 -----------------------------------------------------------------
    Charge (ESU x 10^10)
                -0.0014
    Dipole Moment (Debye)
         X       0.0006      Y      -0.0018      Z       0.0029
       Tot       0.0034
    Quadrupole Moments (Debye-Ang)
        XX     -84.2170     XY      14.3004     YY    -147.6837
        XZ      24.0017     YZ      -6.8805     ZZ    -142.8931

 Total job time:  111.31s(wall), 832.52s(cpu)
        *  Thank you very much for using Q-Chem.  Have a nice day.  *
