 Q-Chem 5.4, Q-Chem, Inc., Pleasanton, CA (2021)
 Q-Chem 5.4.0 for Intel X86 EM64T Linux

User input:
--------------------------------------------------------------
$molecule
-2 1
C                  5.7051420000     -5.3442820000      1.2083130000
C                  6.6563850000     -5.1900880000      0.2082670000
C                  6.5888210000     -4.1242060000     -0.7255060000
C                  4.6119060000     -4.4178610000      1.3284790000
C                  4.5519530000     -3.3241670000      0.3615690000
C                  5.5517970000     -3.2215940000     -0.6343910000
C                  3.5939540000     -4.5464520000      2.3657580000
C                  2.5802630000     -3.5460450000      2.3445400000
C                  2.5447670000     -2.5012980000      1.4009120000
C                  3.4966070000     -2.3160260000      0.3707990000
O                  3.5829390000     -5.4939300000      3.2611760000
O                  3.4510610000     -1.3474710000     -0.4926210000
C                  5.8744420000     -6.5206730000      2.1520610000
H                  7.4724540000     -5.9103060000      0.1452650000
C                  1.5099450000     -3.6448970000      3.4013990000
H                  1.7335580000     -1.7717820000      1.4503140000
H                  5.4514290000     -2.3873240000     -1.3226580000
H                  7.3489910000     -4.0271160000     -1.5003570000
H                  6.7750410000     -7.0895280000      1.8728530000
H                  5.0031210000     -7.1787350000      2.1342310000
H                  5.9519590000     -6.1945640000      3.1913160000
H                  1.9393230000     -3.6112550000      4.4143920000
H                  0.9785210000     -4.6074110000      3.3483920000
H                  0.7792610000     -2.8315790000      3.2998990000
$end
$rem
MAX_SCF_CYCLES=200
BASIS  =  6-311++G(d,p)
GUI  =  2
JOB_TYPE  =  SP
METHOD  =  B3LYP
SOLVENT_METHOD = PCM
$end
$pcm
theory = CPCM
$end
$solvent
dielectric 37.219
opticaldielectric 1.43
$end

--------------------------------------------------------------

             Standard Nuclear Orientation (Angstroms)
    I     Atom           X                Y                Z
 ----------------------------------------------------------------
    1      C       5.7051420000    -5.3442820000     1.2083130000
    2      C       6.6563850000    -5.1900880000     0.2082670000
    3      C       6.5888210000    -4.1242060000    -0.7255060000
    4      C       4.6119060000    -4.4178610000     1.3284790000
    5      C       4.5519530000    -3.3241670000     0.3615690000
    6      C       5.5517970000    -3.2215940000    -0.6343910000
    7      C       3.5939540000    -4.5464520000     2.3657580000
    8      C       2.5802630000    -3.5460450000     2.3445400000
    9      C       2.5447670000    -2.5012980000     1.4009120000
   10      C       3.4966070000    -2.3160260000     0.3707990000
   11      O       3.5829390000    -5.4939300000     3.2611760000
   12      O       3.4510610000    -1.3474710000    -0.4926210000
   13      C       5.8744420000    -6.5206730000     2.1520610000
   14      H       7.4724540000    -5.9103060000     0.1452650000
   15      C       1.5099450000    -3.6448970000     3.4013990000
   16      H       1.7335580000    -1.7717820000     1.4503140000
   17      H       5.4514290000    -2.3873240000    -1.3226580000
   18      H       7.3489910000    -4.0271160000    -1.5003570000
   19      H       6.7750410000    -7.0895280000     1.8728530000
   20      H       5.0031210000    -7.1787350000     2.1342310000
   21      H       5.9519590000    -6.1945640000     3.1913160000
   22      H       1.9393230000    -3.6112550000     4.4143920000
   23      H       0.9785210000    -4.6074110000     3.3483920000
   24      H       0.7792610000    -2.8315790000     3.2998990000
 ----------------------------------------------------------------

    9    -614.1594260787      8.31e-06  Convergence criterion met
 Total energy in the final basis set =     -614.1594260787

                    Orbital Energies (a.u.)
 --------------------------------------------------------------

 Alpha MOs
 -- Occupied --
-19.0164 -19.0098 -10.1670 -10.1649 -10.1569 -10.1446 -10.1409 -10.1402
-10.1390 -10.1384 -10.1372 -10.1344 -10.1241 -10.1161  -0.9289  -0.9228
 -0.8225  -0.7696  -0.7423  -0.7174  -0.6649  -0.6609  -0.6200  -0.5733
 -0.5571  -0.5044  -0.4717  -0.4585  -0.4344  -0.4139  -0.3980  -0.3965
 -0.3856  -0.3770  -0.3694  -0.3538  -0.3521  -0.3513  -0.3462  -0.3292
 -0.3092  -0.3077  -0.3057  -0.2996  -0.2229  -0.2183  -0.2067  -0.1973
 -0.1868  -0.1097

          Ground-State Mulliken Net Atomic Charges

     Atom                 Charge (a.u.)
  ----------------------------------------
      1 C                     0.546738
      2 C                    -0.545389
      3 C                    -0.514587
      4 C                     0.451069
      5 C                     0.486308
      6 C                    -0.140243
      7 C                    -0.823092
      8 C                     0.506133
      9 C                    -0.396073
     10 C                    -0.713138
     11 O                    -0.691478
     12 O                    -0.744704
     13 C                    -0.465954
     14 H                     0.118875
     15 C                    -0.348826
     16 H                     0.102740
     17 H                     0.141703
     18 H                     0.176523
     19 H                     0.136195
     20 H                     0.145488
     21 H                     0.145535
     22 H                     0.142722
     23 H                     0.142551
     24 H                     0.140904
  ----------------------------------------
  Sum of atomic charges =    -2.000000

                    Cartesian Multipole Moments
 -----------------------------------------------------------------
    Charge (ESU x 10^10)
                -9.6064
    Dipole Moment (Debye)
         X     -35.8978      Y      33.0310      Z     -11.5534
       Tot      50.1316
    Quadrupole Moments (Debye-Ang)
        XX    -233.6764     XY     126.2220     YY    -240.0390
        XZ     -40.9339     YZ      67.3890     ZZ    -135.9114

 Total job time:  44.03s(wall), 240.84s(cpu)
        *  Thank you very much for using Q-Chem.  Have a nice day.  *
