 Q-Chem 5.4, Q-Chem, Inc., Pleasanton, CA (2021)
 Q-Chem 5.4.0 for Intel X86 EM64T Linux

User input:
--------------------------------------------------------------
$molecule
-2 1
O                  3.9116230000     -2.4958930000     -0.0727990000
C                  3.0296160000     -1.5686840000     -0.0005820000
C                  3.3801750000     -0.1861050000      0.2274200000
C                  4.7422300000      0.1749230000      0.3847780000
C                  5.1331770000      1.4799860000      0.5996810000
C                  4.1468420000      2.5031570000      0.6658040000
C                  2.8142620000      2.1799630000      0.5158250000
C                  2.3785040000      0.8468810000      0.2961630000
C                  0.9556670000      0.5953070000      0.1496780000
O                  0.1226400000      1.5745560000      0.2059820000
C                  0.5771300000     -0.7907870000     -0.0639070000
C                 -0.7953180000     -1.2359500000     -0.2112680000
C                 -1.0880510000     -2.5686560000     -0.4394920000
C                 -0.0750990000     -3.5547690000     -0.5340080000
C                  1.2363080000     -3.1737850000     -0.3822260000
C                  1.6071650000     -1.8282560000     -0.1459100000
N                 -1.9663180000     -0.3904290000     -0.1230480000
C                 -2.2626270000      0.1867660000      1.1901000000
C                 -3.7766910000      0.4788310000      1.2954390000
C                 -4.3562990000      0.9411190000     -0.0632810000
C                 -3.2525130000      1.5674520000     -0.9206850000
C                 -2.1604810000      0.5344310000     -1.2510900000
H                  5.4657250000     -0.6323100000      0.3264410000
H                  6.1866740000      1.7275090000      0.7171210000
H                  4.4439760000      3.5367690000      0.8342830000
H                  2.0391840000      2.9379530000      0.5596720000
H                 -2.1364980000     -2.8359060000     -0.5322310000
H                 -0.3392210000     -4.5944810000     -0.7166640000
H                  2.0517260000     -3.8876590000     -0.4352640000
H                 -1.6651580000      1.0908760000      1.3691690000
H                 -1.9707040000     -0.5472380000      1.9458840000
H                 -3.9345310000      1.2568700000      2.0548790000
H                 -4.3167850000     -0.4132770000      1.6373240000
H                 -5.1935850000      1.6359220000      0.0849790000
H                 -4.7648380000      0.0757360000     -0.5986670000
H                 -3.6624000000      1.9785470000     -1.8515770000
H                 -2.7976180000      2.4037310000     -0.3788180000
H                 -1.2332030000      1.0637370000     -1.4989060000
H                 -2.4746870000     -0.0668370000     -2.1189970000
$end
$rem
MAX_SCF_CYCLES=200
BASIS  =  6-311++G(d,p)
GUI  =  2
JOB_TYPE  =  SP
METHOD  =  B3LYP
SOLVENT_METHOD = PCM
$end
$pcm
theory = CPCM
$end
$solvent
dielectric 37.219
opticaldielectric 1.43
$end

--------------------------------------------------------------

             Standard Nuclear Orientation (Angstroms)
    I     Atom           X                Y                Z
 ----------------------------------------------------------------
    1      O       3.9116230000    -2.4958930000    -0.0727990000
    2      C       3.0296160000    -1.5686840000    -0.0005820000
    3      C       3.3801750000    -0.1861050000     0.2274200000
    4      C       4.7422300000     0.1749230000     0.3847780000
    5      C       5.1331770000     1.4799860000     0.5996810000
    6      C       4.1468420000     2.5031570000     0.6658040000
    7      C       2.8142620000     2.1799630000     0.5158250000
    8      C       2.3785040000     0.8468810000     0.2961630000
    9      C       0.9556670000     0.5953070000     0.1496780000
   10      O       0.1226400000     1.5745560000     0.2059820000
   11      C       0.5771300000    -0.7907870000    -0.0639070000
   12      C      -0.7953180000    -1.2359500000    -0.2112680000
   13      C      -1.0880510000    -2.5686560000    -0.4394920000
   14      C      -0.0750990000    -3.5547690000    -0.5340080000
   15      C       1.2363080000    -3.1737850000    -0.3822260000
   16      C       1.6071650000    -1.8282560000    -0.1459100000
   17      N      -1.9663180000    -0.3904290000    -0.1230480000
   18      C      -2.2626270000     0.1867660000     1.1901000000
   19      C      -3.7766910000     0.4788310000     1.2954390000
   20      C      -4.3562990000     0.9411190000    -0.0632810000
   21      C      -3.2525130000     1.5674520000    -0.9206850000
   22      C      -2.1604810000     0.5344310000    -1.2510900000
   23      H       5.4657250000    -0.6323100000     0.3264410000
   24      H       6.1866740000     1.7275090000     0.7171210000
   25      H       4.4439760000     3.5367690000     0.8342830000
   26      H       2.0391840000     2.9379530000     0.5596720000
   27      H      -2.1364980000    -2.8359060000    -0.5322310000
   28      H      -0.3392210000    -4.5944810000    -0.7166640000
   29      H       2.0517260000    -3.8876590000    -0.4352640000
   30      H      -1.6651580000     1.0908760000     1.3691690000
   31      H      -1.9707040000    -0.5472380000     1.9458840000
   32      H      -3.9345310000     1.2568700000     2.0548790000
   33      H      -4.3167850000    -0.4132770000     1.6373240000
   34      H      -5.1935850000     1.6359220000     0.0849790000
   35      H      -4.7648380000     0.0757360000    -0.5986670000
   36      H      -3.6624000000     1.9785470000    -1.8515770000
   37      H      -2.7976180000     2.4037310000    -0.3788180000
   38      H      -1.2332030000     1.0637370000    -1.4989060000
   39      H      -2.4746870000    -0.0668370000    -2.1189970000
 ----------------------------------------------------------------

    9    -939.9360202800      2.91e-06  Convergence criterion met
 Total energy in the final basis set =     -939.9360202800

                    Orbital Energies (a.u.)
 --------------------------------------------------------------

 Alpha MOs
 -- Occupied --
-19.0220 -19.0136 -14.2764 -10.1785 -10.1751 -10.1734 -10.1651 -10.1626
-10.1505 -10.1492 -10.1491 -10.1482 -10.1480 -10.1460 -10.1449 -10.1448
-10.1422 -10.1417 -10.1402 -10.1359 -10.1352 -10.1348  -0.9432  -0.9371
 -0.8999  -0.8257  -0.8167  -0.7736  -0.7496  -0.7286  -0.7224  -0.7096
 -0.7039  -0.6366  -0.6220  -0.6077  -0.6006  -0.5869  -0.5540  -0.5302
 -0.5086  -0.5031  -0.4952  -0.4684  -0.4600  -0.4390  -0.4378  -0.4306
 -0.4255  -0.4180  -0.3987  -0.3919  -0.3897  -0.3856  -0.3762  -0.3737
 -0.3686  -0.3619  -0.3588  -0.3500  -0.3454  -0.3352  -0.3264  -0.3207
 -0.3151  -0.3134  -0.3033  -0.3024  -0.2991  -0.2908  -0.2323  -0.2239
 -0.2219  -0.2159  -0.2044  -0.1918  -0.1839  -0.1050

          Ground-State Mulliken Net Atomic Charges

     Atom                 Charge (a.u.)
  ----------------------------------------
      1 O                    -0.681847
      2 C                    -0.222016
      3 C                     0.422216
      4 C                    -0.156315
      5 C                    -0.457522
      6 C                    -0.477164
      7 C                    -0.016030
      8 C                     0.027987
      9 C                    -0.106160
     10 O                    -0.597167
     11 C                    -0.169283
     12 C                    -1.007510
     13 C                     0.036781
     14 C                    -0.368658
     15 C                    -0.315173
     16 C                     0.386244
     17 N                     0.503940
     18 C                    -0.109123
     19 C                    -0.408130
     20 C                    -0.362796
     21 C                    -0.351003
     22 C                    -0.118782
     23 H                     0.139684
     24 H                     0.173833
     25 H                     0.173850
     26 H                     0.133631
     27 H                     0.127734
     28 H                     0.184619
     29 H                     0.143439
     30 H                     0.144385
     31 H                     0.155767
     32 H                     0.143181
     33 H                     0.142426
     34 H                     0.168587
     35 H                     0.135830
     36 H                     0.172851
     37 H                     0.133871
     38 H                     0.132492
     39 H                     0.141334
  ----------------------------------------
  Sum of atomic charges =    -2.000000

                    Cartesian Multipole Moments
 -----------------------------------------------------------------
    Charge (ESU x 10^10)
                -9.6064
    Dipole Moment (Debye)
         X     -18.2503      Y       5.9286      Z      -0.4154
       Tot      19.1936
    Quadrupole Moments (Debye-Ang)
        XX    -216.3584     XY      26.3657     YY    -178.2739
        XZ      -1.0195     YZ      -3.0091     ZZ    -144.2146

 Total job time:  159.71s(wall), 760.65s(cpu)
        *  Thank you very much for using Q-Chem.  Have a nice day.  *
