 Gaussian 16, Revision A.03,
 Gaussian 16:  ES64L-G16RevA.03 25-Dec-2016

 ----------------------------------------------------------------
 #P UB3LYP/6-311++G(d,p) SCRF=(PCM,Solvent=n,n-DiMethylFormamide)
 ----------------------------------------------------------------

 -------
 Reduced
 -------
 Symbolic Z-matrix:
 Charge = -2 Multiplicity = 1

                         Standard orientation:
 ---------------------------------------------------------------------
 Center     Atomic      Atomic             Coordinates (Angstroms)
 Number     Number       Type             X           Y           Z
 ---------------------------------------------------------------------
      1          8           0       -3.445904    2.274539    0.033219
      2          6           0       -2.548916    1.359127    0.015816
      3          6           0       -2.880509   -0.046669    0.029396
      4          6           0       -4.240458   -0.445745    0.069075
      5          6           0       -4.613414   -1.773533    0.078718
      6          6           0       -3.609951   -2.781574    0.046720
      7          6           0       -2.278985   -2.421412    0.007591
      8          6           0       -1.861643   -1.064577   -0.000666
      9          6           0       -0.439196   -0.774513   -0.042144
     10          8           0        0.410678   -1.739871   -0.084964
     11          6           0       -0.080384    0.633113   -0.039638
     12          6           0        1.287739    1.114192   -0.057060
     13          6           0        1.562628    2.469833   -0.080658
     14          6           0        0.534637    3.444847   -0.083236
     15          6           0       -0.774059    3.027532   -0.049471
     16          6           0       -1.127074    1.656937   -0.023408
     17          7           0        2.470934    0.281477   -0.033325
     18          6           0        2.719566   -0.472024    1.197824
     19          6           0        4.233084   -0.754490    1.332972
     20          6           0        4.883023   -1.010889   -0.048192
     21          6           0        3.832418   -1.524806   -1.037079
     22          6           0        2.735128   -0.471001   -1.270064
     23          1           0       -4.977256    0.351206    0.090828
     24          1           0       -5.665751   -2.050203    0.109663
     25          1           0       -3.892774   -3.832762    0.053248
     26          1           0       -1.491040   -3.166831   -0.019079
     27          1           0        2.608393    2.762449   -0.084634
     28          1           0        0.785002    4.503615   -0.104496
     29          1           0       -1.600958    3.730017   -0.040041
     30          1           0        2.133601   -1.400817    1.218780
     31          1           0        2.378539    0.143009    2.034857
     32          1           0        4.372633   -1.630141    1.981640
     33          1           0        4.738451    0.087644    1.822725
     34          1           0        5.727061   -1.707705    0.040272
     35          1           0        5.297204   -0.072530   -0.435965
     36          1           0        4.292443   -1.793693   -1.996060
     37          1           0        3.371039   -2.435939   -0.641001
     38          1           0        1.831239   -0.972915   -1.634053
     39          1           0        3.075629    0.251811   -2.028426
 ---------------------------------------------------------------------

 SCF Done:  E(UB3LYP) =  -939.928637773     A.U. after   18 cycles

 The electronic state is 1-A.
 Alpha  occ. eigenvalues --  -19.01648 -19.00812 -14.27426 -10.17620 -10.17082
 Alpha  occ. eigenvalues --  -10.16918 -10.16414 -10.16173 -10.15207 -10.14982
 Alpha  occ. eigenvalues --  -10.14918 -10.14769 -10.14672 -10.14391 -10.14303
 Alpha  occ. eigenvalues --  -10.14268 -10.13915 -10.13875 -10.13815 -10.13234
 Alpha  occ. eigenvalues --  -10.13176 -10.13136  -0.93754  -0.93162  -0.89775
 Alpha  occ. eigenvalues --   -0.82288  -0.81433  -0.77347  -0.74669  -0.72839
 Alpha  occ. eigenvalues --   -0.71974  -0.70742  -0.70136  -0.63376  -0.62061
 Alpha  occ. eigenvalues --   -0.60731  -0.59868  -0.58436  -0.55218  -0.52820
 Alpha  occ. eigenvalues --   -0.50663  -0.50185  -0.49317  -0.46773  -0.45858
 Alpha  occ. eigenvalues --   -0.43679  -0.43514  -0.42890  -0.42351  -0.41614
 Alpha  occ. eigenvalues --   -0.39638  -0.39113  -0.38874  -0.38419  -0.37400
 Alpha  occ. eigenvalues --   -0.37068  -0.36412  -0.35975  -0.35726  -0.34754
 Alpha  occ. eigenvalues --   -0.34410  -0.33266  -0.32436  -0.31652  -0.31470
 Alpha  occ. eigenvalues --   -0.31131  -0.30230  -0.30080  -0.29646  -0.28985
 Alpha  occ. eigenvalues --   -0.22961  -0.21928  -0.21863  -0.21301  -0.19863
 Alpha  occ. eigenvalues --   -0.18674  -0.18066  -0.10052
 Alpha virt. eigenvalues --   -0.02389  -0.00175   0.00471   0.00551   0.00875
 Alpha virt. eigenvalues --    0.01653   0.01800   0.02086   0.02395   0.02758
 Alpha virt. eigenvalues --    0.03555   0.03998   0.04061   0.04353   0.04712

  Beta  occ. eigenvalues --  -19.01648 -19.00812 -14.27426 -10.17620 -10.17082
  Beta  occ. eigenvalues --  -10.16918 -10.16414 -10.16173 -10.15207 -10.14982
  Beta  occ. eigenvalues --  -10.14918 -10.14769 -10.14672 -10.14391 -10.14303
  Beta  occ. eigenvalues --  -10.14268 -10.13915 -10.13875 -10.13815 -10.13234
  Beta  occ. eigenvalues --  -10.13176 -10.13136  -0.93754  -0.93162  -0.89775
  Beta  occ. eigenvalues --   -0.82288  -0.81433  -0.77347  -0.74669  -0.72839
  Beta  occ. eigenvalues --   -0.71974  -0.70742  -0.70136  -0.63376  -0.62061
  Beta  occ. eigenvalues --   -0.60731  -0.59868  -0.58436  -0.55218  -0.52820
  Beta  occ. eigenvalues --   -0.50663  -0.50185  -0.49317  -0.46773  -0.45858
  Beta  occ. eigenvalues --   -0.43679  -0.43514  -0.42890  -0.42351  -0.41614
  Beta  occ. eigenvalues --   -0.39638  -0.39113  -0.38874  -0.38419  -0.37400
  Beta  occ. eigenvalues --   -0.37068  -0.36412  -0.35975  -0.35726  -0.34754
  Beta  occ. eigenvalues --   -0.34410  -0.33266  -0.32436  -0.31652  -0.31470
  Beta  occ. eigenvalues --   -0.31131  -0.30230  -0.30080  -0.29646  -0.28985
  Beta  occ. eigenvalues --   -0.22961  -0.21928  -0.21863  -0.21301  -0.19863
  Beta  occ. eigenvalues --   -0.18674  -0.18066  -0.10052
  Beta virt. eigenvalues --   -0.02389  -0.00175   0.00471   0.00551   0.00875
  Beta virt. eigenvalues --    0.01653   0.01800   0.02086   0.02395   0.02758
  Beta virt. eigenvalues --    0.03555   0.03998   0.04061   0.04353   0.04712

 Mulliken charges and spin densities:
               1          2
     1  O   -0.655716  -0.000000
     2  C   -0.296506  -0.000000
     3  C    0.445078  -0.000000
     4  C   -0.152036   0.000000
     5  C   -0.449729   0.000000
     6  C   -0.470844   0.000000
     7  C   -0.006048  -0.000000
     8  C    0.062866   0.000000
     9  C   -0.158522  -0.000000
    10  O   -0.557888   0.000000
    11  C   -0.155235   0.000000
    12  C   -1.048281   0.000000
    13  C    0.048068  -0.000000
    14  C   -0.351645  -0.000000
    15  C   -0.299838   0.000000
    16  C    0.383459   0.000000
    17  N    0.543361   0.000000
    18  C   -0.117394  -0.000000
    19  C   -0.392502   0.000000
    20  C   -0.350883  -0.000000
    21  C   -0.341261   0.000000
    22  C   -0.113565  -0.000000
    23  H    0.138164   0.000000
    24  H    0.156657  -0.000000
    25  H    0.156938   0.000000
    26  H    0.129360   0.000000
    27  H    0.112589   0.000000
    28  H    0.167261   0.000000
    29  H    0.143553   0.000000
    30  H    0.156294  -0.000000
    31  H    0.144195   0.000000
    32  H    0.135388   0.000000
    33  H    0.136050  -0.000000
    34  H    0.160781   0.000000
    35  H    0.129686  -0.000000
    36  H    0.163304  -0.000000
    37  H    0.132825  -0.000000
    38  H    0.139268   0.000000
    39  H    0.132747  -0.000000
 Sum of Mulliken charges =  -2.00000  -0.00000

 Dipole moment (field-independent basis, Debye):
    X=             13.3824    Y=             -4.0785    Z=              0.1932  Tot=             13.9914
 Quadrupole moment (field-independent basis, Debye-Ang):
   XX=           -203.8020   YY=           -177.7458   ZZ=           -144.2631
   XY=             19.1866   XZ=              0.3091   YZ=             -0.2622

 Normal termination of Gaussian 16 at Tue Jan 16 06:39:31 2024.
