 Gaussian 16, Revision A.03,
 Gaussian 16:  ES64L-G16RevA.03 25-Dec-2016

 --------------------------------------
 #P UB3LYP/6-311++G(d,p) nosym opt freq
 --------------------------------------

 -------
 Radical
 -------
 Symbolic Z-matrix:
 Charge = -1 Multiplicity = 2

 SCF Done:  E(UB3LYP) =  -566.183082600     A.U. after   20 cycles
 SCF Done:  E(UB3LYP) =  -566.200468893     A.U. after   19 cycles
 SCF Done:  E(UB3LYP) =  -566.200956870     A.U. after   18 cycles
 SCF Done:  E(UB3LYP) =  -566.201076478     A.U. after   18 cycles
 SCF Done:  E(UB3LYP) =  -566.201096560     A.U. after   15 cycles
 SCF Done:  E(UB3LYP) =  -566.201097254     A.U. after   12 cycles
 Optimization completed.
    -- Stationary point found.
 Normal termination of Gaussian 16 at Sun Dec 17 21:00:01 2023.

 ----------------------------------------------------------------------
 #P Geom=AllCheck Guess=TCheck SCRF=Check GenChk UB3LYP/6-311++G(d,p) F
 req
 ----------------------------------------------------------------------

 Structure from the checkpoint file:  "001-rad.chk"
 -------
 Radical
 -------
 Charge = -1 Multiplicity = 2

                          Input orientation:
 ---------------------------------------------------------------------
 Center     Atomic      Atomic             Coordinates (Angstroms)
 Number     Number       Type             X           Y           Z
 ---------------------------------------------------------------------
      1          8           0       -1.092896    1.744526   -1.863800
      2          6           0       -0.812818    0.879377   -1.009050
      3          6           0       -1.827606   -0.019067   -0.466703
      4          6           0       -1.552905   -0.966537    0.461119
      5          6           0       -0.215897   -1.179620    1.007315
      6          8           0        0.010118   -2.060293    1.862089
      7          6           0        0.819855   -0.294373    0.482729
      8          6           0        0.534797    0.689178   -0.480443
      9          6           0        1.556109    1.543673   -0.981135
     10          7           0        2.387492    2.239613   -1.389067
     11          6           0        2.138911   -0.466362    0.987368
     12          7           0        3.212978   -0.606402    1.398090
     13          1           0       -2.831423    0.118684   -0.856737
     14          1           0       -2.326716   -1.622396    0.848226
 ---------------------------------------------------------------------

 SCF Done:  E(UB3LYP) =  -566.201097254     A.U. after    1 cycles

 Alpha  occ. eigenvalues --  -18.98082 -18.98081 -14.19520 -14.19520 -10.13355
 Alpha  occ. eigenvalues --  -10.13354 -10.10480 -10.10432 -10.09399 -10.09396
 Alpha  occ. eigenvalues --  -10.07853 -10.07780  -0.90999  -0.90727  -0.79830
 Alpha  occ. eigenvalues --   -0.79053  -0.73977  -0.67845  -0.61353  -0.54641
 Alpha  occ. eigenvalues --   -0.51151  -0.41682  -0.41167  -0.38960  -0.35314
 Alpha  occ. eigenvalues --   -0.32643  -0.31121  -0.29273  -0.28762  -0.28359
 Alpha  occ. eigenvalues --   -0.25715  -0.25501  -0.25355  -0.23735  -0.22357
 Alpha  occ. eigenvalues --   -0.21709  -0.18307  -0.16219  -0.14428  -0.14111
 Alpha  occ. eigenvalues --   -0.07040
 Alpha virt. eigenvalues --    0.04579   0.08652   0.10927   0.11212   0.12494
 Alpha virt. eigenvalues --    0.13370   0.14675   0.15287   0.15310   0.15437
 Alpha virt. eigenvalues --    0.16717   0.16819   0.17517   0.18106   0.18172

  Beta  occ. eigenvalues --  -18.97398 -18.97396 -14.19389 -14.19388 -10.13332
  Beta  occ. eigenvalues --  -10.13331 -10.10241 -10.10191 -10.09450 -10.09448
  Beta  occ. eigenvalues --  -10.07806 -10.07733  -0.89863  -0.89552  -0.79585
  Beta  occ. eigenvalues --   -0.78845  -0.73360  -0.67555  -0.60411  -0.54253
  Beta  occ. eigenvalues --   -0.50857  -0.41364  -0.40874  -0.38724  -0.35149
  Beta  occ. eigenvalues --   -0.31143  -0.30428  -0.28782  -0.28554  -0.26163
  Beta  occ. eigenvalues --   -0.25296  -0.25146  -0.24729  -0.22757  -0.22245
  Beta  occ. eigenvalues --   -0.21624  -0.15979  -0.14425  -0.13777  -0.13461
  Beta virt. eigenvalues --   -0.00187   0.06159   0.08665   0.11232   0.12446
  Beta virt. eigenvalues --    0.12530   0.13443   0.14700   0.15356   0.15459
  Beta virt. eigenvalues --    0.15508   0.16772   0.17067   0.17547   0.18236

 Mulliken charges and spin densities:
               1          2
     1  O   -0.343435   0.252781
     2  C   -0.958688  -0.010404
     3  C    0.230023   0.038979
     4  C    0.230329   0.038968
     5  C   -0.959821  -0.010366
     6  O   -0.343425   0.252701
     7  C    1.633869   0.181611
     8  C    1.635125   0.181636
     9  C   -0.990745  -0.023186
    10  N   -0.246846   0.064196
    11  C   -0.990155  -0.023164
    12  N   -0.246877   0.064164
    13  H    0.175325  -0.003960
    14  H    0.175321  -0.003958
 Sum of Mulliken charges =  -1.00000   1.00000

 Dipole moment (field-independent basis, Debye):
    X=             -6.5573    Y=             -1.9125    Z=             -0.0104  Tot=              6.8306
 Quadrupole moment (field-independent basis, Debye-Ang):
   XX=            -96.5715   YY=            -93.1182   ZZ=            -90.0688
   XY=             -1.1438   XZ=             -6.1812   YZ=             21.1650

  Exact polarizability: 158.213  11.481 122.538  15.945 -54.420 112.208
 Approx polarizability: 245.939  11.799 209.618  31.124-106.471 192.513

                      1                      2                      3
                      A                      A                      A
 Frequencies --     72.0669               103.4364               129.8133
 Red. masses --     13.4416                 7.1335                13.6544
 Frc consts  --      0.0411                 0.0450                 0.1356
 IR Inten    --      0.0000                 6.6148                 0.4898

                      4                      5                      6
                      A                      A                      A
 Frequencies --    171.8382               174.2226               298.5901
 Red. masses --     13.1266                 9.9793                 6.3319
 Frc consts  --      0.2284                 0.1785                 0.3326
 IR Inten    --      1.4709                14.0501                 0.0000

                      7                      8                      9
                      A                      A                      A
 Frequencies --    354.2255               363.9754               369.6352
 Red. masses --     14.5979                 7.1960                11.1478
 Frc consts  --      1.0792                 0.5617                 0.8974
 IR Inten    --      0.8029                 0.0000                 0.2495

                     10                     11                     12
                      A                      A                      A
 Frequencies --    447.9675               466.4614               489.3690
 Red. masses --     11.9303                11.8604                 5.4613
 Frc consts  --      1.4106                 1.5205                 0.7706
 IR Inten    --      8.4061                 3.1092                 6.8762

                     13                     14                     15
                      A                      A                      A
 Frequencies --    534.1095               605.8939               607.7827
 Red. masses --     12.1851                 9.1514                 8.9731
 Frc consts  --      2.0481                 1.9794                 1.9530
 IR Inten    --      1.9021                 2.9590                 0.0000

                     16                     17                     18
                      A                      A                      A
 Frequencies --    642.3546               643.7728               749.9263
 Red. masses --      4.5464                 2.9878                 8.5329
 Frc consts  --      1.1053                 0.7296                 2.8274
 IR Inten    --      0.0012                 0.6007                15.2291

                     19                     20                     21
                      A                      A                      A
 Frequencies --    765.8048               848.6253               965.7076
 Red. masses --      9.2046                 2.0261                 7.8356
 Frc consts  --      3.1805                 0.8597                 4.3054
 IR Inten    --      0.0000                38.2768                 7.8155

                     22                     23                     24
                      A                      A                      A
 Frequencies --    981.5881              1000.7607              1145.6905
 Red. masses --      1.2626                 6.0411                 1.4037
 Frc consts  --      0.7168                 3.5647                 1.0856
 IR Inten    --      0.0000                 3.1172                18.7564

                     25                     26                     27
                      A                      A                      A
 Frequencies --   1153.8368              1238.7084              1342.5053
 Red. masses --      4.1227                 4.6815                 2.6107
 Frc consts  --      3.2338                 4.2323                 2.7723
 IR Inten    --     20.3555                32.9913                15.7708

                     28                     29                     30
                      A                      A                      A
 Frequencies --   1410.3232              1451.2288              1553.2568
 Red. masses --      3.5565                 9.6446                11.4817
 Frc consts  --      4.1678                11.9676                16.3208
 IR Inten    --     32.7869               148.7479                13.1769

                     31                     32                     33
                      A                      A                      A
 Frequencies --   1565.7673              1639.0878              2293.8234
 Red. masses --      8.8777                 7.1430                12.6870
 Frc consts  --     12.8234                11.3068                39.3304
 IR Inten    --    339.2443                48.1341               190.1769

                     34                     35                     36
                      A                      A                      A
 Frequencies --   2299.0019              3150.1241              3170.8443
 Red. masses --     12.6811                 1.0858                 1.0961
 Frc consts  --     39.4899                 6.3480                 6.4928
 IR Inten    --     41.3907                 9.2014                26.5524

 - Thermochemistry -
 -------------------
 Temperature   298.150 Kelvin.  Pressure   1.00000 Atm.
 Atom     1 has atomic number  8 and mass  15.99491

 Molecular mass:   158.01163 amu.
 Principal axes and moments of inertia in atomic units:
                           1         2         3
     Eigenvalues --  1490.380561713.690103204.07065
           X           -0.20261   0.96007  -0.19289
           Y            0.69968   0.27974   0.65741
           Z           -0.68512   0.00176   0.72843
 This molecule is an asymmetric top.
 Rotational symmetry number  1.
 Warning -- assumption of classical behavior for rotation
           may cause significant error
 Rotational temperatures (Kelvin)      0.05812     0.05054     0.02703
 Rotational constants (GHZ):           1.21093     1.05313     0.56327
 Zero-point vibrational energy     210555.5 (Joules/Mol)
                                   50.32397 (Kcal/Mol)
 Warning -- explicit consideration of  15 degrees of freedom as
           vibrations may cause significant error
 Vibrational temperatures:    103.69   148.82   186.77   247.24   250.67
          (Kelvin)            429.60   509.65   523.68   531.82   644.53
                              671.13   704.09   768.46   871.75   874.46
                              924.21   926.25  1078.98  1101.82  1220.98
                             1389.44  1412.29  1439.87  1648.39  1660.11
                             1782.23  1931.57  2029.14  2087.99  2234.79
                             2252.79  2358.28  3300.30  3307.75  4532.33
                             4562.14

 Zero-point correction=                           0.080196 (Hartree/Particle)
 Thermal correction to Energy=                    0.089890
 Thermal correction to Enthalpy=                  0.090834
 Thermal correction to Gibbs Free Energy=         0.044001
 Sum of electronic and zero-point Energies=           -566.120901
 Sum of electronic and thermal Energies=              -566.111207
 Sum of electronic and thermal Enthalpies=            -566.110263
 Sum of electronic and thermal Free Energies=         -566.157096

                     E (Thermal)             CV                S
                      KCal/Mol        Cal/Mol-Kelvin    Cal/Mol-Kelvin
 Total                   56.407             35.296             98.568
 Electronic               0.000              0.000              1.377
 Translational            0.889              2.981             41.082
 Rotational               0.889              2.981             30.482
 Vibrational             54.629             29.335             25.627
 Vibration     1          0.598              1.967              4.096
 Vibration     2          0.605              1.946              3.389
 Vibration     3          0.612              1.923              2.949
 Vibration     4          0.626              1.877              2.415
 Vibration     5          0.627              1.874              2.389
 Vibration     6          0.692              1.676              1.425
 Vibration     7          0.730              1.567              1.147
 Vibration     8          0.738              1.546              1.105
 Vibration     9          0.742              1.535              1.081
 Vibration    10          0.807              1.365              0.802
 Vibration    11          0.824              1.324              0.748
 Vibration    12          0.845              1.274              0.685
 Vibration    13          0.889              1.175              0.578
 Vibration    14          0.965              1.019              0.440
 Vibration    15          0.967              1.015              0.436

 Optimization completed.
    -- Stationary point found.
 Normal termination of Gaussian 16 at Sun Dec 17 21:10:04 2023.
