 Gaussian 16, Revision A.03,
 Gaussian 16:  ES64L-G16RevA.03 25-Dec-2016

 ----------------------------------------------------------------------
 #P UB3LYP/6-311++G(d,p) nosym opt freq SCRF=(PCM,Solvent=n,n-DiMethylF
 ormamide)
 ----------------------------------------------------------------------

 -------
 Reduced
 -------
 Symbolic Z-matrix:
 Charge = -2 Multiplicity = 1

 SCF Done:  E(UB3LYP) =  -914.965952456     A.U. after   16 cycles
 SCF Done:  E(UB3LYP) =  -914.966962887     A.U. after   13 cycles
 SCF Done:  E(UB3LYP) =  -914.967092897     A.U. after   13 cycles
 SCF Done:  E(UB3LYP) =  -914.967162296     A.U. after   12 cycles
 SCF Done:  E(UB3LYP) =  -914.967183156     A.U. after   11 cycles
 SCF Done:  E(UB3LYP) =  -914.967193154     A.U. after   11 cycles
 SCF Done:  E(UB3LYP) =  -914.967194348     A.U. after   10 cycles
 Optimization completed.
    -- Stationary point found.
 Normal termination of Gaussian 16 at Sat Feb 10 22:47:32 2024.

 ----------------------------------------------------------------------
 #P Geom=AllCheck Guess=TCheck SCRF=Check GenChk UB3LYP/6-311++G(d,p) F
 req
 ----------------------------------------------------------------------

 Structure from the checkpoint file:  "199-an.chk"
 -------
 Reduced
 -------
 Charge = -2 Multiplicity = 1

                          Input orientation:
 ---------------------------------------------------------------------
 Center     Atomic      Atomic             Coordinates (Angstroms)
 Number     Number       Type             X           Y           Z
 ---------------------------------------------------------------------
      1          8           0       -4.355345    0.974028   -1.589137
      2          6           0       -3.177992    0.573035   -0.978751
      3          6           0       -1.933568    0.991225   -1.402600
      4          6           0       -0.750371    0.552212   -0.744024
      5          6           0        0.541419    1.013042   -1.207882
      6          8           0        0.649955    1.831310   -2.201232
      7          6           0        1.690484    0.508543   -0.498797
      8          6           0        2.999525    0.893771   -0.896142
      9          6           0        4.129102    0.442664   -0.252367
     10          6           0        3.999782   -0.442310    0.857977
     11          6           0        2.757998   -0.845278    1.280228
     12          6           0        1.561396   -0.398690    0.629496
     13          6           0        0.292028   -0.807225    1.047005
     14          8           0        0.170410   -1.671318    2.124165
     15          6           0       -0.862712   -0.345737    0.375735
     16          6           0       -2.177485   -0.770879    0.807232
     17          8           0       -2.370397   -1.588488    1.827505
     18          6           0       -3.297048   -0.299551    0.118612
     19          8           0       -4.533500   -0.731010    0.564980
     20          1           0       -4.133122    1.567691   -2.315772
     21          1           0       -1.835587    1.660024   -2.250306
     22          1           0        3.080798    1.566357   -1.742875
     23          1           0        5.114160    0.754959   -0.583870
     24          1           0        4.888742   -0.797906    1.370110
     25          1           0        2.661894   -1.517295    2.125403
     26          1           0       -0.818216   -1.804887    2.219530
     27          1           0       -4.292349   -1.308289    1.315774
 ---------------------------------------------------------------------

 SCF Done:  E(UB3LYP) =  -914.967194348     A.U. after    1 cycles

 Alpha  occ. eigenvalues --  -19.14147 -19.12596 -19.09980 -19.05516 -19.02752
 Alpha  occ. eigenvalues --  -10.21166 -10.19537 -10.18923 -10.18664 -10.18545
 Alpha  occ. eigenvalues --  -10.15434 -10.15294 -10.15100 -10.14972 -10.14901
 Alpha  occ. eigenvalues --  -10.14892 -10.14343 -10.14107 -10.13510  -1.05094
 Alpha  occ. eigenvalues --   -1.03184  -1.01127  -0.95178  -0.94248  -0.83525
 Alpha  occ. eigenvalues --   -0.81423  -0.76300  -0.73170  -0.71026  -0.70321
 Alpha  occ. eigenvalues --   -0.65085  -0.62437  -0.59876  -0.57723  -0.55068
 Alpha  occ. eigenvalues --   -0.53169  -0.50832  -0.50112  -0.48430  -0.47511
 Alpha  occ. eigenvalues --   -0.45637  -0.42578  -0.41900  -0.41720  -0.40690
 Alpha  occ. eigenvalues --   -0.40316  -0.39244  -0.38725  -0.38378  -0.36381
 Alpha  occ. eigenvalues --   -0.36318  -0.35900  -0.35595  -0.34494  -0.33431
 Alpha  occ. eigenvalues --   -0.33141  -0.32065  -0.31121  -0.30817  -0.27286
 Alpha  occ. eigenvalues --   -0.24687  -0.23782  -0.23396  -0.20392  -0.20327
 Alpha  occ. eigenvalues --   -0.17821  -0.12058
 Alpha virt. eigenvalues --   -0.02504  -0.00284   0.00491   0.00884   0.01154
 Alpha virt. eigenvalues --    0.02208   0.02450   0.03091   0.04236   0.04877
 Alpha virt. eigenvalues --    0.04888   0.04982   0.06738   0.06845   0.06949

  Beta  occ. eigenvalues --  -19.14147 -19.12596 -19.09980 -19.05516 -19.02752
  Beta  occ. eigenvalues --  -10.21166 -10.19537 -10.18923 -10.18664 -10.18545
  Beta  occ. eigenvalues --  -10.15434 -10.15294 -10.15100 -10.14972 -10.14901
  Beta  occ. eigenvalues --  -10.14892 -10.14343 -10.14107 -10.13510  -1.05094
  Beta  occ. eigenvalues --   -1.03184  -1.01127  -0.95178  -0.94248  -0.83525
  Beta  occ. eigenvalues --   -0.81423  -0.76300  -0.73170  -0.71026  -0.70321
  Beta  occ. eigenvalues --   -0.65085  -0.62437  -0.59876  -0.57723  -0.55068
  Beta  occ. eigenvalues --   -0.53169  -0.50832  -0.50112  -0.48430  -0.47511
  Beta  occ. eigenvalues --   -0.45637  -0.42578  -0.41900  -0.41720  -0.40690
  Beta  occ. eigenvalues --   -0.40316  -0.39244  -0.38725  -0.38378  -0.36381
  Beta  occ. eigenvalues --   -0.36318  -0.35900  -0.35595  -0.34494  -0.33431
  Beta  occ. eigenvalues --   -0.33141  -0.32065  -0.31121  -0.30817  -0.27286
  Beta  occ. eigenvalues --   -0.24687  -0.23782  -0.23396  -0.20392  -0.20327
  Beta  occ. eigenvalues --   -0.17821  -0.12058
  Beta virt. eigenvalues --   -0.02504  -0.00284   0.00491   0.00884   0.01154
  Beta virt. eigenvalues --    0.02208   0.02450   0.03091   0.04236   0.04877
  Beta virt. eigenvalues --    0.04888   0.04982   0.06738   0.06845   0.06949

 Mulliken charges and spin densities:
               1          2
     1  O   -0.339651  -0.000000
     2  C   -0.325336   0.000000
     3  C   -0.089923  -0.000000
     4  C    0.850058  -0.000000
     5  C   -0.538709   0.000000
     6  O   -0.632338  -0.000000
     7  C   -0.079597  -0.000000
     8  C   -0.056611  -0.000000
     9  C   -0.517578   0.000000
    10  C   -0.452043   0.000000
    11  C   -0.157103   0.000000
    12  C    0.175012   0.000000
    13  C    0.050724  -0.000000
    14  O   -0.505891   0.000000
    15  C    0.768387   0.000000
    16  C   -0.530487   0.000000
    17  O   -0.676433   0.000000
    18  C   -0.310486   0.000000
    19  O   -0.370546   0.000000
    20  H    0.299877   0.000000
    21  H    0.129900   0.000000
    22  H    0.144772  -0.000000
    23  H    0.159222  -0.000000
    24  H    0.160711   0.000000
    25  H    0.149402   0.000000
    26  H    0.396722  -0.000000
    27  H    0.297943  -0.000000
 Sum of Mulliken charges =  -2.00000   0.00000

 Dipole moment (field-independent basis, Debye):
    X=              5.5483    Y=             -0.0271    Z=              0.2692  Tot=              5.5549
 Quadrupole moment (field-independent basis, Debye-Ang):
   XX=           -175.4494   YY=           -136.6658   ZZ=           -142.7161
   XY=            -12.4788   XZ=             11.2728   YZ=             18.1265

  Exact polarizability: 525.356   5.575 235.175  21.756-104.849 284.351
 Approx polarizability: 579.608   5.698 277.968  24.440-136.691 342.000

                      1                      2                      3
                      A                      A                      A
 Frequencies --     53.0841                78.1628               134.6861
 Red. masses --      7.4547                 7.2242                10.1809
 Frc consts  --      0.0124                 0.0260                 0.1088
 IR Inten    --      7.0690                 3.2241                 2.1904

                      4                      5                      6
                      A                      A                      A
 Frequencies --    142.8098               165.3504               187.9491
 Red. masses --      4.7981                 9.6068                 6.1743
 Frc consts  --      0.0577                 0.1548                 0.1285
 IR Inten    --      0.0347                 0.9067                14.4223

                      7                      8                      9
                      A                      A                      A
 Frequencies --    197.8304               277.4318               282.8111
 Red. masses --      6.0996                 6.3033                 1.7399
 Frc consts  --      0.1406                 0.2858                 0.0820
 IR Inten    --      1.6164                12.9399               107.1498

                     10                     11                     12
                      A                      A                      A
 Frequencies --    288.0950               302.4728               334.3776
 Red. masses --      5.5778                 2.4165                 8.8960
 Frc consts  --      0.2728                 0.1303                 0.5860
 IR Inten    --     30.6854                33.7121                42.3448

                     13                     14                     15
                      A                      A                      A
 Frequencies --    349.1019               352.3423               370.7551
 Red. masses --      7.6068                 4.8525                 7.5734
 Frc consts  --      0.5462                 0.3549                 0.6134
 IR Inten    --     24.5738                 8.0956                 5.0804

                     16                     17                     18
                      A                      A                      A
 Frequencies --    391.8728               403.8398               452.7432
 Red. masses --      8.6158                 7.5804                 3.3246
 Frc consts  --      0.7795                 0.7284                 0.4015
 IR Inten    --     43.5514                 0.1813                15.6966

                     19                     20                     21
                      A                      A                      A
 Frequencies --    488.8924               521.8567               541.1106
 Red. masses --     12.0697                 7.3415                 8.0463
 Frc consts  --      1.6997                 1.1780                 1.3881
 IR Inten    --      2.9884                15.9297                32.1819

                     22                     23                     24
                      A                      A                      A
 Frequencies --    541.3280               553.5349               595.3392
 Red. masses --      3.2379                 1.6974                 2.8362
 Frc consts  --      0.5590                 0.3064                 0.5923
 IR Inten    --     34.3139                64.3435                25.0771

                     25                     26                     27
                      A                      A                      A
 Frequencies --    606.3345               638.1920               651.9231
 Red. masses --      7.6287                 5.2532                 6.8521
 Frc consts  --      1.6524                 1.2606                 1.7158
 IR Inten    --      6.5995                44.9497                35.5383

                     28                     29                     30
                      A                      A                      A
 Frequencies --    689.3113               699.3918               706.2108
 Red. masses --      4.6344                 2.9382                 8.4623
 Frc consts  --      1.2974                 0.8468                 2.4866
 IR Inten    --      9.9062                95.4294                10.1862

                     31                     32                     33
                      A                      A                      A
 Frequencies --    729.3468               754.2551               772.5216
 Red. masses --      7.5213                 1.8956                 2.0502
 Frc consts  --      2.3573                 0.6354                 0.7209
 IR Inten    --     23.0512                63.1101                 3.6622

                     34                     35                     36
                      A                      A                      A
 Frequencies --    796.4394               797.3571               833.5493
 Red. masses --      2.4121                 5.4997                 1.1571
 Frc consts  --      0.9015                 2.0601                 0.4737
 IR Inten    --     61.9020               137.0060                96.4069

                     37                     38                     39
                      A                      A                      A
 Frequencies --    843.0802               882.7944               969.9074
 Red. masses --      1.3717                 6.9805                 1.3089
 Frc consts  --      0.5744                 3.2052                 0.7255
 IR Inten    --     26.4990                 6.8600                 1.4217

                     40                     41                     42
                      A                      A                      A
 Frequencies --    984.6262               985.1152              1017.8743
 Red. masses --      3.9538                 1.3726                 2.2063
 Frc consts  --      2.2584                 0.7848                 1.3468
 IR Inten    --    143.7971                18.1223               179.3204

                     43                     44                     45
                      A                      A                      A
 Frequencies --   1044.1315              1064.5176              1123.0292
 Red. masses --      6.2948                 5.2994                 1.8764
 Frc consts  --      4.0433                 3.5382                 1.3943
 IR Inten    --    675.2925                42.5293                 1.1833

                     46                     47                     48
                      A                      A                      A
 Frequencies --   1127.5101              1142.3850              1174.8182
 Red. masses --      4.0328                 1.4281                 1.3856
 Frc consts  --      3.0206                 1.0981                 1.1268
 IR Inten    --    231.0719               120.1658                17.6844

                     49                     50                     51
                      A                      A                      A
 Frequencies --   1201.5705              1235.2717              1256.1766
 Red. masses --      1.8103                 1.8593                 2.7496
 Frc consts  --      1.5399                 1.6716                 2.5563
 IR Inten    --     74.5881              1037.2179               208.2458

                     52                     53                     54
                      A                      A                      A
 Frequencies --   1278.1428              1313.1622              1349.4219
 Red. masses --      2.8195                 6.2751                 2.4132
 Frc consts  --      2.7138                 6.3754                 2.5891
 IR Inten    --     85.7021               147.9810               417.3989

                     55                     56                     57
                      A                      A                      A
 Frequencies --   1358.0904              1377.1735              1399.1874
 Red. masses --      3.8610                 7.2263                 5.0507
 Frc consts  --      4.1958                 8.0750                 5.8258
 IR Inten    --    257.1418               255.5675               811.7529

                     58                     59                     60
                      A                      A                      A
 Frequencies --   1405.3698              1441.4307              1463.0370
 Red. masses --      3.4138                 2.6349                 3.9510
 Frc consts  --      3.9725                 3.2256                 4.9828
 IR Inten    --   1590.9321               371.6006               154.8924

                     61                     62                     63
                      A                      A                      A
 Frequencies --   1491.3423              1501.4497              1555.8201
 Red. masses --      2.2596                 3.9790                 6.1340
 Frc consts  --      2.9610                 5.2850                 8.7481
 IR Inten    --    169.3740               139.4632                14.3878

                     64                     65                     66
                      A                      A                      A
 Frequencies --   1595.7594              1604.3126              1619.9201
 Red. masses --      4.6856                 6.6921                 4.1681
 Frc consts  --      7.0300                10.1482                 6.4444
 IR Inten    --     47.9603                85.3391                77.1451

                     67                     68                     69
                      A                      A                      A
 Frequencies --   1634.8515              3022.8708              3143.0847
 Red. masses --      2.8628                 1.0734                 1.0850
 Frc consts  --      4.5081                 5.7791                 6.3151
 IR Inten    --     58.2943              1263.4839                21.8694

                     70                     71                     72
                      A                      A                      A
 Frequencies --   3158.2507              3169.7794              3176.5249
 Red. masses --      1.0888                 1.0890                 1.0914
 Frc consts  --      6.3987                 6.4466                 6.4885
 IR Inten    --     25.6879                36.6383                38.7682

                     73                     74                     75
                      A                      A                      A
 Frequencies --   3180.5152              3580.7292              3815.3804
 Red. masses --      1.0941                 1.0641                 1.0661
 Frc consts  --      6.5207                 8.0386                 9.1434
 IR Inten    --     66.9268               122.1968                93.4265

 - Thermochemistry -
 -------------------
 Temperature   298.150 Kelvin.  Pressure   1.00000 Atm.
 Atom     1 has atomic number  8 and mass  15.99491

 Molecular mass:   256.03717 amu.
 Principal axes and moments of inertia in atomic units:
                           1         2         3
     Eigenvalues --  2338.769166572.632808911.20103
           X            0.99854  -0.02312  -0.04887
           Y            0.02382  -0.62339   0.78154
           Z            0.04853   0.78157   0.62193
 This molecule is an asymmetric top.
 Rotational symmetry number  1.
 Warning -- assumption of classical behavior for rotation
           may cause significant error
 Rotational temperatures (Kelvin)      0.03703     0.01318     0.00972
 Rotational constants (GHZ):           0.77166     0.27458     0.20253
 Zero-point vibrational energy     492688.1 (Joules/Mol)
                                  117.75529 (Kcal/Mol)
 Warning -- explicit consideration of  25 degrees of freedom as
           vibrations may cause significant error
 Vibrational temperatures:     76.38   112.46   193.78   205.47   237.90
          (Kelvin)            270.42   284.63   399.16   406.90   414.50
                              435.19   481.09   502.28   506.94   533.43
                              563.82   581.04   651.40   703.41   750.84
                              778.54   778.85   796.41   856.56   872.38
                              918.22   937.97   991.77  1006.27  1016.08
                             1049.37  1085.20  1111.49  1145.90  1147.22
                             1199.29  1213.00  1270.14  1395.48  1416.66
                             1417.36  1464.49  1502.27  1531.60  1615.79
                             1622.24  1643.64  1690.30  1728.79  1777.28
                             1807.36  1838.96  1889.35  1941.52  1953.99
                             1981.45  2013.12  2022.01  2073.90  2104.98
                             2145.71  2160.25  2238.48  2295.94  2308.25
                             2330.70  2352.19  4349.24  4522.20  4544.02
                             4560.61  4570.31  4576.05  5151.87  5489.48

 Zero-point correction=                           0.187655 (Hartree/Particle)
 Thermal correction to Energy=                    0.202277
 Thermal correction to Enthalpy=                  0.203221
 Thermal correction to Gibbs Free Energy=         0.146864
 Sum of electronic and zero-point Energies=           -914.779539
 Sum of electronic and thermal Energies=              -914.764917
 Sum of electronic and thermal Enthalpies=            -914.763973
 Sum of electronic and thermal Free Energies=         -914.820330

                     E (Thermal)             CV                S
                      KCal/Mol        Cal/Mol-Kelvin    Cal/Mol-Kelvin
 Total                  126.931             59.475            118.614
 Electronic               0.000              0.000              0.000
 Translational            0.889              2.981             42.520
 Rotational               0.889              2.981             33.282
 Vibrational            125.153             53.513             42.812
 Vibration     1          0.596              1.976              4.699
 Vibration     2          0.599              1.964              3.936
 Vibration     3          0.613              1.919              2.878
 Vibration     4          0.616              1.910              2.766
 Vibration     5          0.624              1.885              2.488
 Vibration     6          0.633              1.856              2.248
 Vibration     7          0.637              1.843              2.153
 Vibration     8          0.678              1.715              1.549
 Vibration     9          0.682              1.705              1.517
 Vibration    10          0.685              1.696              1.485
 Vibration    11          0.694              1.669              1.403
 Vibration    12          0.716              1.607              1.239
 Vibration    13          0.726              1.577              1.170
 Vibration    14          0.729              1.570              1.156
 Vibration    15          0.743              1.532              1.077
 Vibration    16          0.759              1.488              0.993
 Vibration    17          0.769              1.462              0.949
 Vibration    18          0.811              1.355              0.788
 Vibration    19          0.845              1.275              0.686
 Vibration    20          0.877              1.202              0.606
 Vibration    21          0.896              1.159              0.563
 Vibration    22          0.896              1.159              0.562
 Vibration    23          0.909              1.132              0.537
 Vibration    24          0.953              1.042              0.458
 Vibration    25          0.965              1.018              0.439

 Optimization completed.
    -- Stationary point found.
 Normal termination of Gaussian 16 at Sat Feb 10 23:56:27 2024.
