 Q-Chem 5.4, Q-Chem, Inc., Pleasanton, CA (2021)
 Q-Chem 5.4.0 for Intel X86 EM64T Linux

User input:
--------------------------------------------------------------
$molecule
-1 2
O                 -2.7068030000     -2.5614880000      0.5390930000
C                 -2.5649290000     -1.2213860000      0.3981030000
C                 -3.7045060000     -0.4245370000      0.4079660000
C                 -3.6121890000      0.9631030000      0.2661110000
C                 -2.3782150000      1.5851440000      0.1112350000
O                 -2.3412110000      2.9330250000     -0.0224990000
C                 -1.1890260000      0.8028050000      0.0961880000
C                  0.0955110000      1.4359460000     -0.0636500000
O                  0.1813140000      2.7247670000     -0.1956000000
C                  1.2836910000      0.6208100000     -0.0754820000
C                  2.5648200000      1.2213770000     -0.2319130000
O                  2.7064030000      2.5616000000     -0.3728580000
C                  3.7044700000      0.4246390000     -0.2418370000
C                  3.6122260000     -0.9630190000     -0.1000020000
C                  2.3783290000     -1.5852020000      0.0549100000
O                  2.3414250000     -2.9330420000      0.1886110000
C                  1.1890420000     -0.8028630000      0.0700060000
C                 -0.0954450000     -1.4359970000      0.2298650000
O                 -0.1809940000     -2.7249340000      0.3617050000
C                 -1.2837090000     -0.6209070000      0.2416930000
H                 -1.7816550000     -2.9307730000      0.5041260000
H                 -4.6678520000     -0.9070300000      0.5285580000
H                 -4.5022060000      1.5821320000      0.2741110000
H                 -1.3763190000      3.1630980000     -0.1186420000
H                  1.7812670000      2.9307980000     -0.3378040000
H                  4.6677350000      0.9072750000     -0.3624540000
H                  4.5023110000     -1.5819690000     -0.1080460000
H                  1.3765160000     -3.1633710000      0.2847980000
$end
$rem
MAX_SCF_CYCLES=200
BASIS  =  6-311++G(d,p)
GUI  =  2
JOB_TYPE  =  SP
METHOD  =  B3LYP
SOLVENT_METHOD = COSMO
$end
$solvent
dielectric 37.219
opticaldielectric 1.43
$end

--------------------------------------------------------------

             Standard Nuclear Orientation (Angstroms)
    I     Atom           X                Y                Z
 ----------------------------------------------------------------
    1      O      -2.5369310504    -2.7676607517    -0.0000280324
    2      C      -2.4842002447    -1.4137407970    -0.0000005129
    3      C      -3.6770364194    -0.6990078350    -0.0000031434
    4      C      -3.6770331628     0.6989156389    -0.0000178778
    5      C      -2.4841951938     1.4135840885     0.0000060957
    6      O      -2.5368725250     2.7675642832     0.0000153393
    7      C      -1.2427038710     0.7170566336     0.0000326038
    8      C      -0.0000301419     1.4465859471     0.0000443596
    9      O       0.0000464210     2.7449820652    -0.0001602799
   10      C       1.2426375800     0.7171098751     0.0000236334
   11      C       2.4840713015     1.4137340269     0.0000178945
   12      O       2.5365006146     2.7677503090     0.0000796233
   13      C       3.6769761878     0.6991222586    -0.0000237672
   14      C       3.6770482602    -0.6988122329    -0.0000250692
   15      C       2.4842948148    -1.4136202059    -0.0000211507
   16      O       2.5370709140    -2.7675497501    -0.0000515938
   17      C       1.2427026056    -0.7171041944    -0.0000064765
   18      C       0.0000766593    -1.4466253884     0.0000070831
   19      O       0.0002689001    -2.7451087187     0.0001106751
   20      C      -1.2426709901    -0.7172001192     0.0000130224
   21      H      -1.5870188885    -3.0695875788    -0.0000221411
   22      H      -4.6084751186    -1.2538045453    -0.0000356849
   23      H      -4.6084235967     1.2538057379    -0.0000447927
   24      H      -1.5870949750     3.0694189368     0.0000991443
   25      H       1.5866007555     3.0695827410     0.0001526002
   26      H       4.6083255508     1.2540581048    -0.0000084085
   27      H       4.6085036010    -1.2536149580    -0.0000290396
   28      H       1.5872921630    -3.0696641079    -0.0001176988
 ----------------------------------------------------------------

    9    -990.0736809917      2.51e-06  Convergence criterion met
 Total energy in the final basis set =     -990.0736809917
    4    -990.1443163216      4.48e-06  Convergence criterion met
 Total energy in the final basis set =     -990.1443163216

                    Orbital Energies (a.u.)
 --------------------------------------------------------------

 Alpha MOs
 -- Occupied --
-19.1399 -19.1399 -19.1399 -19.1398 -19.1085 -19.1085 -10.2493 -10.2492
-10.2394 -10.2394 -10.2394 -10.2394 -10.1887 -10.1887 -10.1883 -10.1883
-10.1763 -10.1763 -10.1758 -10.1758  -1.0681  -1.0663  -1.0583  -1.0571
 -1.0161  -1.0148  -0.8715  -0.8507  -0.8002  -0.7568  -0.7549  -0.7376
 -0.6892  -0.6589  -0.6476  -0.6112  -0.5987  -0.5617  -0.5364  -0.5346
 -0.5276  -0.5237  -0.5198  -0.4785  -0.4626  -0.4551  -0.4441  -0.4408
 -0.4390  -0.4249  -0.4197  -0.4183  -0.4149  -0.4134  -0.4114  -0.3982
 -0.3860  -0.3747  -0.3738  -0.3721  -0.3617  -0.3555  -0.3218  -0.3121
 -0.2814  -0.2811  -0.2642  -0.2603  -0.2356  -0.2139  -0.1536

 Beta MOs
 -- Occupied --
-19.1393 -19.1393 -19.1393 -19.1393 -19.1048 -19.1048 -10.2470 -10.2470
-10.2388 -10.2388 -10.2388 -10.2388 -10.1888 -10.1887 -10.1884 -10.1883
-10.1753 -10.1753 -10.1748 -10.1748  -1.0659  -1.0642  -1.0571  -1.0559
 -1.0101  -1.0087  -0.8691  -0.8490  -0.7962  -0.7553  -0.7511  -0.7352
 -0.6831  -0.6570  -0.6453  -0.6101  -0.5973  -0.5593  -0.5352  -0.5331
 -0.5263  -0.5233  -0.5177  -0.4768  -0.4608  -0.4472  -0.4424  -0.4371
 -0.4370  -0.4207  -0.4174  -0.4140  -0.4122  -0.4104  -0.4101  -0.3941
 -0.3743  -0.3742  -0.3705  -0.3606  -0.3597  -0.3543  -0.3132  -0.3075
 -0.2782  -0.2677  -0.2615  -0.2568  -0.2225  -0.2053

          Ground-State Mulliken Net Atomic Charges

     Atom                 Charge (a.u.)    Spin (a.u.)
  --------------------------------------------------------
      1 O                    -0.422687       0.018193
      2 C                    -0.290644       0.056564
      3 C                    -0.180857       0.064728
      4 C                    -0.180649       0.064698
      5 C                    -0.290385       0.056590
      6 O                    -0.422777       0.018193
      7 C                     0.476899      -0.014479
      8 C                    -0.331943       0.136975
      9 O                    -0.581191       0.129512
     10 C                     0.476695      -0.014451
     11 C                    -0.290061       0.056556
     12 O                    -0.422945       0.018196
     13 C                    -0.181006       0.064742
     14 C                    -0.180793       0.064691
     15 C                    -0.290507       0.056591
     16 O                    -0.422708       0.018205
     17 C                     0.477001      -0.014501
     18 C                    -0.332141       0.137018
     19 O                    -0.581215       0.129539
     20 C                     0.477966      -0.014487
     21 H                     0.401621      -0.002336
     22 H                     0.221820      -0.005932
     23 H                     0.221839      -0.005932
     24 H                     0.401678      -0.002335
     25 H                     0.401743      -0.002336
     26 H                     0.221815      -0.005935
     27 H                     0.221843      -0.005931
     28 H                     0.401590      -0.002336
  --------------------------------------------------------
  Sum of atomic charges =    -1.000000

                    Cartesian Multipole Moments
 -----------------------------------------------------------------
    Charge (ESU x 10^10)
                -4.8032
    Dipole Moment (Debye)
         X      -0.0020      Y      -0.0009      Z       0.0004
       Tot       0.0023
    Quadrupole Moments (Debye-Ang)
        XX    -135.3375     XY      -0.0019     YY    -159.9554
        XZ       0.0001     YZ       0.0019     ZZ    -120.3418

 Total job time:  104.66s(wall), 752.08s(cpu)
        *  Thank you very much for using Q-Chem.  Have a nice day.  *
