 Q-Chem 5.4, Q-Chem, Inc., Pleasanton, CA (2021)
 Q-Chem 5.4.0 for Intel X86 EM64T Linux

User input:
--------------------------------------------------------------
$molecule
-2 1
C                  1.0566050000      1.7409920000     -0.0393200000
C                 -0.1712870000      1.0894630000      0.4161080000
C                 -0.4349570000     -0.2284550000      0.2338360000
C                  0.5087460000     -1.1739140000     -0.3621250000
C                  1.7404580000     -0.5870870000     -0.8332980000
C                  1.9220660000      0.8626160000     -0.7634340000
O                  1.2393850000      2.9753150000      0.2010630000
O                  0.2273570000     -2.4160750000     -0.3321920000
S                  3.0929370000      1.6532640000     -1.8249400000
C                  4.4654070000      2.2300130000     -0.7706630000
C                  4.2989030000      3.3878900000     -0.0077970000
C                  5.6576020000      1.5083090000     -0.7364580000
C                  6.7106240000      1.9698980000      0.0533390000
C                  5.3573080000      3.8361370000      0.7815650000
C                  6.5670110000      3.1361370000      0.8089140000
O                  2.5443190000      2.8879310000     -2.4307430000
O                  3.6855860000      0.6822370000     -2.7719220000
H                 -0.8880010000      1.7462710000      0.9069810000
H                 -1.3667970000     -0.6680800000      0.5862040000
H                  3.3313820000      3.8784920000     -0.0228050000
H                  5.7264610000      0.5911680000     -1.3073960000
H                  7.6422840000      1.4117560000      0.0863490000
H                  5.2356760000      4.7332270000      1.3827180000
H                  7.3890090000      3.4909190000      1.4254270000
C                  2.8780090000     -1.4762470000     -1.0244090000
C                  2.6932090000     -2.8068630000     -1.7281740000
C                  1.7503940000     -2.9898540000     -2.7461460000
C                  3.5834770000     -3.8494210000     -1.4511860000
C                  1.7017240000     -4.1789470000     -3.4674570000
C                  2.5833030000     -5.2232830000     -3.1699990000
C                  3.5225930000     -5.0540000000     -2.1525610000
O                  4.0322400000     -1.2184640000     -0.6408720000
H                  1.0607830000     -2.1831140000     -2.9603100000
H                  4.3288690000     -3.6873160000     -0.6809490000
H                  0.9670530000     -4.2991320000     -4.2591580000
H                  2.5389500000     -6.1552160000     -3.7280460000
H                  4.2146040000     -5.8577960000     -1.9123210000
$end
$rem
MAX_SCF_CYCLES=200
BASIS  =  6-311++G(d,p)
GUI  =  2
JOB_TYPE  =  SP
METHOD  =  B3LYP
SOLVENT_METHOD = PCM
$end
$pcm
theory = CPCM
$end
$solvent
dielectric 37.219
opticaldielectric 1.43
$end

--------------------------------------------------------------

             Standard Nuclear Orientation (Angstroms)
    I     Atom           X                Y                Z
 ----------------------------------------------------------------
    1      C       1.0566050000     1.7409920000    -0.0393200000
    2      C      -0.1712870000     1.0894630000     0.4161080000
    3      C      -0.4349570000    -0.2284550000     0.2338360000
    4      C       0.5087460000    -1.1739140000    -0.3621250000
    5      C       1.7404580000    -0.5870870000    -0.8332980000
    6      C       1.9220660000     0.8626160000    -0.7634340000
    7      O       1.2393850000     2.9753150000     0.2010630000
    8      O       0.2273570000    -2.4160750000    -0.3321920000
    9      S       3.0929370000     1.6532640000    -1.8249400000
   10      C       4.4654070000     2.2300130000    -0.7706630000
   11      C       4.2989030000     3.3878900000    -0.0077970000
   12      C       5.6576020000     1.5083090000    -0.7364580000
   13      C       6.7106240000     1.9698980000     0.0533390000
   14      C       5.3573080000     3.8361370000     0.7815650000
   15      C       6.5670110000     3.1361370000     0.8089140000
   16      O       2.5443190000     2.8879310000    -2.4307430000
   17      O       3.6855860000     0.6822370000    -2.7719220000
   18      H      -0.8880010000     1.7462710000     0.9069810000
   19      H      -1.3667970000    -0.6680800000     0.5862040000
   20      H       3.3313820000     3.8784920000    -0.0228050000
   21      H       5.7264610000     0.5911680000    -1.3073960000
   22      H       7.6422840000     1.4117560000     0.0863490000
   23      H       5.2356760000     4.7332270000     1.3827180000
   24      H       7.3890090000     3.4909190000     1.4254270000
   25      C       2.8780090000    -1.4762470000    -1.0244090000
   26      C       2.6932090000    -2.8068630000    -1.7281740000
   27      C       1.7503940000    -2.9898540000    -2.7461460000
   28      C       3.5834770000    -3.8494210000    -1.4511860000
   29      C       1.7017240000    -4.1789470000    -3.4674570000
   30      C       2.5833030000    -5.2232830000    -3.1699990000
   31      C       3.5225930000    -5.0540000000    -2.1525610000
   32      O       4.0322400000    -1.2184640000    -0.6408720000
   33      H       1.0607830000    -2.1831140000    -2.9603100000
   34      H       4.3288690000    -3.6873160000    -0.6809490000
   35      H       0.9670530000    -4.2991320000    -4.2591580000
   36      H       2.5389500000    -6.1552160000    -3.7280460000
   37      H       4.2146040000    -5.8577960000    -1.9123210000
 ----------------------------------------------------------------

    9   -1506.0807950928      7.48e-06  Convergence criterion met
 Total energy in the final basis set =    -1506.0807950928

                    Orbital Energies (a.u.)
 --------------------------------------------------------------

 Alpha MOs
 -- Occupied --
-89.0309 -19.0976 -19.0972 -19.0801 -19.0471 -19.0413 -10.2348 -10.2109
-10.2067 -10.1952 -10.1779 -10.1776 -10.1763 -10.1761 -10.1755 -10.1717
-10.1712 -10.1695 -10.1685 -10.1676 -10.1670 -10.1661 -10.1568 -10.1549
-10.1500  -8.0942  -6.0575  -6.0560  -6.0549  -1.0886  -1.0091  -0.9830
 -0.9706  -0.9647  -0.8620  -0.8517  -0.8087  -0.7674  -0.7562  -0.7497
 -0.7421  -0.7394  -0.6995  -0.6509  -0.6288  -0.6094  -0.6030  -0.5986
 -0.5824  -0.5522  -0.5346  -0.5220  -0.4991  -0.4794  -0.4692  -0.4650
 -0.4599  -0.4574  -0.4461  -0.4415  -0.4363  -0.4326  -0.4250  -0.4235
 -0.4153  -0.4088  -0.3901  -0.3860  -0.3809  -0.3756  -0.3670  -0.3631
 -0.3579  -0.3530  -0.3482  -0.3444  -0.3390  -0.3339  -0.3221  -0.3097
 -0.2891  -0.2843  -0.2664  -0.2602  -0.2559  -0.2556  -0.2489  -0.2399
 -0.2326  -0.2194  -0.2080  -0.1502

          Ground-State Mulliken Net Atomic Charges

     Atom                 Charge (a.u.)
  ----------------------------------------
      1 C                     0.079832
      2 C                    -0.404889
      3 C                    -0.285646
      4 C                    -0.480878
      5 C                     0.598391
      6 C                    -0.135949
      7 O                    -0.515930
      8 O                    -0.512852
      9 S                     0.430651
     10 C                    -0.138549
     11 C                    -0.043333
     12 C                     0.323961
     13 C                    -0.531003
     14 C                    -0.559305
     15 C                    -0.253531
     16 O                    -0.205548
     17 O                    -0.276474
     18 H                     0.196048
     19 H                     0.196427
     20 H                     0.274870
     21 H                     0.260821
     22 H                     0.218875
     23 H                     0.215774
     24 H                     0.201953
     25 C                    -0.681805
     26 C                     0.943777
     27 C                    -0.909587
     28 C                     0.551805
     29 C                    -0.571634
     30 C                    -0.389870
     31 C                    -0.278602
     32 O                    -0.328507
     33 H                     0.198053
     34 H                     0.206204
     35 H                     0.211963
     36 H                     0.187790
     37 H                     0.206696
  ----------------------------------------
  Sum of atomic charges =    -2.000001

                    Cartesian Multipole Moments
 -----------------------------------------------------------------
    Charge (ESU x 10^10)
                -9.6064
    Dipole Moment (Debye)
         X     -18.1704      Y      -3.6515      Z      10.1968
       Tot      21.1535
    Quadrupole Moments (Debye-Ang)
        XX    -204.5355     XY     -11.7904     YY    -211.8390
        XZ      36.2910     YZ      16.6848     ZZ    -183.9531

 Total job time:  122.60s(wall), 876.48s(cpu)
        *  Thank you very much for using Q-Chem.  Have a nice day.  *
