 Gaussian 16, Revision A.03,
 Gaussian 16:  ES64L-G16RevA.03 25-Dec-2016

 --------------------------------------
 #P UB3LYP/6-311++G(d,p) nosym opt freq
 --------------------------------------

 --------
 Oxidized
 --------
 Symbolic Z-matrix:
 Charge =  0 Multiplicity = 1

 SCF Done:  E(UB3LYP) =  -807.136474630     A.U. after   15 cycles
 SCF Done:  E(UB3LYP) =  -807.139793697     A.U. after   13 cycles
 SCF Done:  E(UB3LYP) =  -807.140171545     A.U. after   12 cycles
 SCF Done:  E(UB3LYP) =  -807.140248147     A.U. after   12 cycles
 SCF Done:  E(UB3LYP) =  -807.140324607     A.U. after   13 cycles
 SCF Done:  E(UB3LYP) =  -807.140440198     A.U. after   12 cycles
 SCF Done:  E(UB3LYP) =  -807.140558449     A.U. after   13 cycles
 SCF Done:  E(UB3LYP) =  -807.141134707     A.U. after   18 cycles
 SCF Done:  E(UB3LYP) =  -807.142051168     A.U. after   14 cycles
 SCF Done:  E(UB3LYP) =  -807.144413099     A.U. after   17 cycles
 SCF Done:  E(UB3LYP) =  -807.145508014     A.U. after   14 cycles
 SCF Done:  E(UB3LYP) =  -807.145745962     A.U. after   15 cycles
 SCF Done:  E(UB3LYP) =  -807.146202247     A.U. after   13 cycles
 SCF Done:  E(UB3LYP) =  -807.146293416     A.U. after   13 cycles
 SCF Done:  E(UB3LYP) =  -807.146319131     A.U. after   12 cycles
 SCF Done:  E(UB3LYP) =  -807.146328776     A.U. after   12 cycles
 SCF Done:  E(UB3LYP) =  -807.146331153     A.U. after   12 cycles
 SCF Done:  E(UB3LYP) =  -807.146331730     A.U. after   11 cycles
 SCF Done:  E(UB3LYP) =  -807.146331900     A.U. after   10 cycles
 Optimization completed.
    -- Stationary point found.
 Normal termination of Gaussian 16 at Tue Dec 26 21:39:04 2023.

 ----------------------------------------------------------------------
 #P Geom=AllCheck Guess=TCheck SCRF=Check GenChk UB3LYP/6-311++G(d,p) F
 req
 ----------------------------------------------------------------------

 Structure from the checkpoint file:  "289.chk"
 --------
 Oxidized
 --------
 Charge =  0 Multiplicity = 1

                          Input orientation:
 ---------------------------------------------------------------------
 Center     Atomic      Atomic             Coordinates (Angstroms)
 Number     Number       Type             X           Y           Z
 ---------------------------------------------------------------------
      1          6           0       -2.033311    3.049137   -0.243963
      2          6           0       -2.989275    2.500275    0.605181
      3          6           0       -2.704326    1.331672    1.313844
      4          6           0       -0.790747    2.426023   -0.382344
      5          6           0       -0.501137    1.250191    0.329118
      6          6           0       -1.465550    0.707916    1.176680
      7          6           0        0.232553    2.994455   -1.278388
      8          6           0        1.544192    2.293161   -1.385600
      9          6           0        1.843988    1.152727   -0.716306
     10          6           0        0.831455    0.569325    0.188700
     11          8           0        0.073275    4.011587   -1.944076
     12          8           0        1.064882   -0.454844    0.815470
     13          1           0       -2.231088    3.954539   -0.804597
     14          1           0       -3.954479    2.980735    0.715794
     15          1           0       -3.450412    0.905657    1.975049
     16          1           0       -1.228326   -0.199064    1.718715
     17          8           0        2.413758    2.889350   -2.217530
     18          1           0        1.951936    3.670866   -2.576483
     19          6           0        3.180176    0.474633   -0.834439
     20          6           0        4.169829    0.935137    0.258906
     21          6           0        5.520470    0.195291    0.243822
     22          6           0        6.347293    0.576920    1.479964
     23          6           0        6.320707    0.453277   -1.040944
     24          1           0        3.592367    0.679761   -1.823899
     25          1           0        3.029654   -0.604086   -0.741532
     26          1           0        3.698710    0.784515    1.235535
     27          1           0        4.347310    2.012734    0.154487
     28          1           0        5.308184   -0.880933    0.302221
     29          1           0        7.294208    0.029606    1.506516
     30          1           0        5.806505    0.356692    2.404988
     31          1           0        6.583022    1.646970    1.477180
     32          1           0        7.279094   -0.073614   -1.014398
     33          1           0        6.532186    1.521957   -1.158830
     34          1           0        5.788776    0.118370   -1.934831
 ---------------------------------------------------------------------

 SCF Done:  E(UB3LYP) =  -807.146331900     A.U. after    1 cycles

 Alpha  occ. eigenvalues --  -19.17890 -19.15004 -19.12615 -10.29395 -10.27822
 Alpha  occ. eigenvalues --  -10.26752 -10.21577 -10.21398 -10.20800 -10.20784
 Alpha  occ. eigenvalues --  -10.20657 -10.20513 -10.20317 -10.17623 -10.17357
 Alpha  occ. eigenvalues --  -10.16720 -10.15564 -10.15557  -1.10942  -1.06762
 Alpha  occ. eigenvalues --   -1.05896  -0.89796  -0.84677  -0.81370  -0.78855
 Alpha  occ. eigenvalues --   -0.78524  -0.73923  -0.69666  -0.68345  -0.66473
 Alpha  occ. eigenvalues --   -0.65054  -0.61559  -0.60693  -0.57778  -0.56063
 Alpha  occ. eigenvalues --   -0.54419  -0.52218  -0.50120  -0.48569  -0.47451
 Alpha  occ. eigenvalues --   -0.46868  -0.46557  -0.45858  -0.44979  -0.44358
 Alpha  occ. eigenvalues --   -0.43134  -0.42367  -0.41891  -0.40961  -0.40770
 Alpha  occ. eigenvalues --   -0.39904  -0.38495  -0.38244  -0.37986  -0.37552
 Alpha  occ. eigenvalues --   -0.36561  -0.35231  -0.33180  -0.32569  -0.32276
 Alpha  occ. eigenvalues --   -0.30288  -0.29403  -0.28529  -0.27575  -0.25828
 Alpha virt. eigenvalues --   -0.12654  -0.06068  -0.03087  -0.01303  -0.00562
 Alpha virt. eigenvalues --    0.00190   0.01024   0.01275   0.01587   0.02238
 Alpha virt. eigenvalues --    0.02685   0.03090   0.03416   0.03788   0.04209

  Beta  occ. eigenvalues --  -19.17890 -19.15004 -19.12615 -10.29395 -10.27822
  Beta  occ. eigenvalues --  -10.26752 -10.21577 -10.21398 -10.20800 -10.20784
  Beta  occ. eigenvalues --  -10.20657 -10.20513 -10.20317 -10.17623 -10.17357
  Beta  occ. eigenvalues --  -10.16720 -10.15564 -10.15557  -1.10942  -1.06762
  Beta  occ. eigenvalues --   -1.05896  -0.89796  -0.84677  -0.81370  -0.78855
  Beta  occ. eigenvalues --   -0.78524  -0.73923  -0.69666  -0.68345  -0.66473
  Beta  occ. eigenvalues --   -0.65054  -0.61559  -0.60693  -0.57778  -0.56063
  Beta  occ. eigenvalues --   -0.54419  -0.52218  -0.50120  -0.48569  -0.47451
  Beta  occ. eigenvalues --   -0.46868  -0.46557  -0.45858  -0.44979  -0.44358
  Beta  occ. eigenvalues --   -0.43134  -0.42367  -0.41891  -0.40961  -0.40770
  Beta  occ. eigenvalues --   -0.39904  -0.38495  -0.38244  -0.37986  -0.37552
  Beta  occ. eigenvalues --   -0.36561  -0.35231  -0.33180  -0.32569  -0.32276
  Beta  occ. eigenvalues --   -0.30288  -0.29403  -0.28529  -0.27575  -0.25828
  Beta virt. eigenvalues --   -0.12654  -0.06068  -0.03087  -0.01303  -0.00562
  Beta virt. eigenvalues --    0.00190   0.01024   0.01275   0.01587   0.02238
  Beta virt. eigenvalues --    0.02685   0.03090   0.03416   0.03788   0.04209

 Mulliken charges and spin densities:
               1          2
     1  C    0.232058   0.000000
     2  C   -0.352610  -0.000000
     3  C   -0.328515   0.000000
     4  C    0.222919  -0.000000
     5  C    0.071354  -0.000000
     6  C    0.175786  -0.000000
     7  C   -0.822804  -0.000000
     8  C   -0.606993   0.000000
     9  C    2.033232   0.000000
    10  C   -1.007497   0.000000
    11  O   -0.275043   0.000000
    12  O   -0.204579   0.000000
    13  H    0.186778  -0.000000
    14  H    0.179653   0.000000
    15  H    0.178385  -0.000000
    16  H    0.188812  -0.000000
    17  O   -0.185818  -0.000000
    18  H    0.286464  -0.000000
    19  C   -0.191054  -0.000000
    20  C   -0.703451  -0.000000
    21  C    0.407344  -0.000000
    22  C   -0.609118   0.000000
    23  C   -0.620581  -0.000000
    24  H    0.216986   0.000000
    25  H    0.221406   0.000000
    26  H    0.164970  -0.000000
    27  H    0.163588   0.000000
    28  H    0.140987   0.000000
    29  H    0.145998  -0.000000
    30  H    0.133256   0.000000
    31  H    0.136963   0.000000
    32  H    0.143710  -0.000000
    33  H    0.143914  -0.000000
    34  H    0.133501  -0.000000
 Sum of Mulliken charges =  -0.00000   0.00000

 Dipole moment (field-independent basis, Debye):
    X=             -1.9703    Y=              0.7096    Z=              0.5393  Tot=              2.1625
 Quadrupole moment (field-independent basis, Debye-Ang):
   XX=            -98.8607   YY=           -111.2639   ZZ=           -109.4594
   XY=             -3.2243   XZ=             -4.3475   YZ=              3.6485

  Exact polarizability: 241.124 -27.691 178.080 -22.335 -39.970 159.480
 Approx polarizability: 311.645 -37.676 342.092 -32.262-102.301 268.597

                      1                      2                      3
                      A                      A                      A
 Frequencies --     25.5600                35.1735                39.5669
 Red. masses --      3.4796                 3.4260                 4.8868
 Frc consts  --      0.0013                 0.0025                 0.0045
 IR Inten    --      0.2054                 0.2133                 1.5437

                      4                      5                      6
                      A                      A                      A
 Frequencies --     77.6044               108.3607               116.6210
 Red. masses --      8.2033                 2.2018                 4.3123
 Frc consts  --      0.0291                 0.0152                 0.0346
 IR Inten    --      2.7478                 0.1581                 0.1846

                      7                      8                      9
                      A                      A                      A
 Frequencies --    130.2145               176.3985               191.8766
 Red. masses --      6.5745                 5.1106                 3.6951
 Frc consts  --      0.0657                 0.0937                 0.0802
 IR Inten    --      0.1395                 0.2608                 0.1332

                     10                     11                     12
                      A                      A                      A
 Frequencies --    222.1281               247.6831               251.6223
 Red. masses --      1.0675                 1.2359                 2.8988
 Frc consts  --      0.0310                 0.0447                 0.1081
 IR Inten    --      0.0400                 0.0267                 0.1519

                     13                     14                     15
                      A                      A                      A
 Frequencies --    293.7502               307.0932               351.0590
 Red. masses --      3.1862                 3.7490                 4.8182
 Frc consts  --      0.1620                 0.2083                 0.3499
 IR Inten    --      2.0864                 0.3863                 7.7080

                     16                     17                     18
                      A                      A                      A
 Frequencies --    382.2778               386.3964               398.4061
 Red. masses --      2.9847                 5.9746                 3.2750
 Frc consts  --      0.2570                 0.5256                 0.3063
 IR Inten    --      0.9735                 8.9335                15.8410

                     19                     20                     21
                      A                      A                      A
 Frequencies --    418.5747               425.2535               444.1756
 Red. masses --      6.9625                 2.9561                 4.2871
 Frc consts  --      0.7187                 0.3150                 0.4983
 IR Inten    --      8.3948                 0.3394                 2.4630

                     22                     23                     24
                      A                      A                      A
 Frequencies --    457.1687               472.7705               525.2930
 Red. masses --      3.1091                 6.1672                 7.4121
 Frc consts  --      0.3829                 0.8122                 1.2050
 IR Inten    --      2.7133                 6.5118                 3.4115

                     25                     26                     27
                      A                      A                      A
 Frequencies --    585.4911               647.6557               651.8507
 Red. masses --      5.7048                 1.1597                 5.3889
 Frc consts  --      1.1522                 0.2866                 1.3491
 IR Inten    --      7.2535                67.5612                 8.8093

                     28                     29                     30
                      A                      A                      A
 Frequencies --    677.2996               706.0693               711.2279
 Red. masses --      6.1494                 3.8145                 4.3898
 Frc consts  --      1.6620                 1.1204                 1.3083
 IR Inten    --      2.5671                 5.2174                 2.9261

                     31                     32                     33
                      A                      A                      A
 Frequencies --    735.5460               757.8509               765.9558
 Red. masses --      2.5079                 4.6128                 1.6744
 Frc consts  --      0.7994                 1.5609                 0.5788
 IR Inten    --     74.0590                 1.8042                 2.9628

                     34                     35                     36
                      A                      A                      A
 Frequencies --    804.5825               827.6913               865.0803
 Red. masses --      1.8495                 2.9213                 2.9115
 Frc consts  --      0.7054                 1.1791                 1.2837
 IR Inten    --     13.2398                 3.7853                14.5637

                     37                     38                     39
                      A                      A                      A
 Frequencies --    912.7758               928.5310               941.3907
 Red. masses --      1.3225                 1.2513                 1.8565
 Frc consts  --      0.6492                 0.6356                 0.9694
 IR Inten    --      0.0137                 1.2681                 0.7086

                     40                     41                     42
                      A                      A                      A
 Frequencies --    955.6639               962.6891               980.5866
 Red. masses --      4.4418                 1.4847                 2.1525
 Frc consts  --      2.3901                 0.8107                 1.2194
 IR Inten    --     28.4473                 2.6378                 4.5603

                     43                     44                     45
                      A                      A                      A
 Frequencies --    997.7839              1016.4456              1021.3751
 Red. masses --      1.3793                 1.3260                 3.3123
 Frc consts  --      0.8090                 0.8072                 2.0359
 IR Inten    --      1.3644                 0.1261                30.9032

                     46                     47                     48
                      A                      A                      A
 Frequencies --   1041.1823              1057.2681              1110.2088
 Red. masses --      3.2168                 2.0323                 2.2221
 Frc consts  --      2.0546                 1.3384                 1.6137
 IR Inten    --     28.0793                 5.1864                 1.5949

                     49                     50                     51
                      A                      A                      A
 Frequencies --   1130.7116              1141.4584              1181.9191
 Red. masses --      2.0680                 1.8812                 1.2184
 Frc consts  --      1.5578                 1.4442                 1.0028
 IR Inten    --      9.7590                21.7960                25.6887

                     52                     53                     54
                      A                      A                      A
 Frequencies --   1189.2146              1194.3259              1225.3388
 Red. masses --      1.7605                 2.2307                 2.1707
 Frc consts  --      1.4669                 1.8747                 1.9203
 IR Inten    --     11.8623                24.6099                10.7061

                     55                     56                     57
                      A                      A                      A
 Frequencies --   1249.2639              1283.1128              1299.1264
 Red. masses --      1.7450                 1.5703                 1.5116
 Frc consts  --      1.6046                 1.5232                 1.5031
 IR Inten    --    123.1761                27.6666                30.6310

                     58                     59                     60
                      A                      A                      A
 Frequencies --   1309.1390              1313.3882              1340.6342
 Red. masses --      1.8340                 2.2416                 1.9357
 Frc consts  --      1.8520                 2.2782                 2.0498
 IR Inten    --    151.0464               124.5891                47.0887

                     61                     62                     63
                      A                      A                      A
 Frequencies --   1353.1458              1366.8413              1371.2328
 Red. masses --      1.4021                 6.3630                 1.3165
 Frc consts  --      1.5125                 7.0041                 1.4585
 IR Inten    --      4.4958                63.7223                 6.4412

                     64                     65                     66
                      A                      A                      A
 Frequencies --   1383.1090              1401.0529              1401.9575
 Red. masses --      1.4591                 1.2975                 1.9803
 Frc consts  --      1.6445                 1.5007                 2.2933
 IR Inten    --     11.4797                50.1262               293.0289

                     67                     68                     69
                      A                      A                      A
 Frequencies --   1420.8421              1476.7226              1485.1847
 Red. masses --      1.2320                 1.1227                 2.0596
 Frc consts  --      1.4654                 1.4425                 2.6767
 IR Inten    --      4.9879                 3.4560                 4.3874

                     70                     71                     72
                      A                      A                      A
 Frequencies --   1489.3793              1491.6988              1497.3644
 Red. masses --      1.1288                 1.0686                 1.0720
 Frc consts  --      1.4753                 1.4010                 1.4162
 IR Inten    --      5.0444                 4.5048                 4.2778

                     73                     74                     75
                      A                      A                      A
 Frequencies --   1505.1139              1506.7296              1511.7020
 Red. masses --      1.0665                 2.5891                 1.0478
 Frc consts  --      1.4234                 3.4631                 1.4108
 IR Inten    --      3.2335                 4.3652                16.8512

                     76                     77                     78
                      A                      A                      A
 Frequencies --   1613.5153              1627.8678              1690.5472
 Red. masses --      6.6604                 5.9390                 7.9788
 Frc consts  --     10.2163                 9.2726                13.4351
 IR Inten    --      2.0283                79.1402                47.5678

                     79                     80                     81
                      A                      A                      A
 Frequencies --   1702.1215              1704.5961              2989.3636
 Red. masses --     11.2333                11.2158                 1.0817
 Frc consts  --     19.1752                19.2011                 5.6950
 IR Inten    --     64.7137               395.8991                 8.5419

                     82                     83                     84
                      A                      A                      A
 Frequencies --   3009.5932              3012.1950              3018.6971
 Red. masses --      1.0519                 1.0414                 1.0420
 Frc consts  --      5.6134                 5.5672                 5.5945
 IR Inten    --      7.8554                36.4430                37.8648

                     85                     86                     87
                      A                      A                      A
 Frequencies --   3051.7647              3052.9789              3070.4244
 Red. masses --      1.0596                 1.1002                 1.1005
 Frc consts  --      5.8141                 6.0417                 6.1125
 IR Inten    --     17.1399                10.7187                 6.4100

                     88                     89                     90
                      A                      A                      A
 Frequencies --   3077.5602              3082.2489              3087.7615
 Red. masses --      1.0997                 1.1017                 1.1005
 Frc consts  --      6.1368                 6.1666                 6.1819
 IR Inten    --     72.5623                42.5161                46.0581

                     91                     92                     93
                      A                      A                      A
 Frequencies --   3103.5640              3171.7313              3185.8020
 Red. masses --      1.1030                 1.0871                 1.0915
 Frc consts  --      6.2598                 6.4431                 6.5269
 IR Inten    --     11.6855                 3.1548                 8.2319

                     94                     95                     96
                      A                      A                      A
 Frequencies --   3199.5709              3202.9436              3617.7685
 Red. masses --      1.0933                 1.0948                 1.0642
 Frc consts  --      6.5943                 6.6173                 8.2066
 IR Inten    --      1.5734                 8.4392               151.1279

 - Thermochemistry -
 -------------------
 Temperature   298.150 Kelvin.  Pressure   1.00000 Atm.
 Atom     1 has atomic number  6 and mass  12.00000

 Molecular mass:   244.10994 amu.
 Principal axes and moments of inertia in atomic units:
                           1         2         3
     Eigenvalues --  2198.059847896.953919523.41624
           X            0.97382  -0.13958   0.17940
           Y           -0.22600  -0.67905   0.69844
           Z           -0.02433   0.72070   0.69282
 This molecule is an asymmetric top.
 Rotational symmetry number  1.
 Warning -- assumption of classical behavior for rotation
           may cause significant error
 Rotational temperatures (Kelvin)      0.03940     0.01097     0.00909
 Rotational constants (GHZ):           0.82106     0.22854     0.18951
 Zero-point vibrational energy     729360.5 (Joules/Mol)
                                  174.32135 (Kcal/Mol)
 Warning -- explicit consideration of  25 degrees of freedom as
           vibrations may cause significant error
 Vibrational temperatures:     36.78    50.61    56.93   111.66   155.91
          (Kelvin)            167.79   187.35   253.80   276.07   319.59
                              356.36   362.03   422.64   441.84   505.10
                              550.01   555.94   573.22   602.24   611.84
                              639.07   657.76   680.21   755.78   842.39
                              931.83   937.87   974.48  1015.88  1023.30
                             1058.29  1090.38  1102.04  1157.61  1190.86
                             1244.66  1313.28  1335.95  1354.45  1374.99
                             1385.09  1410.85  1435.59  1462.44  1469.53
                             1498.03  1521.17  1597.34  1626.84  1642.30
                             1700.52  1711.01  1718.37  1762.99  1797.41
                             1846.11  1869.15  1883.56  1889.67  1928.87
                             1946.87  1966.58  1972.90  1989.99  2015.80
                             2017.10  2044.27  2124.67  2136.85  2142.88
                             2146.22  2154.37  2165.52  2167.85  2175.00
                             2321.49  2342.14  2432.32  2448.97  2452.53
                             4301.03  4330.13  4333.88  4343.23  4390.81
                             4392.56  4417.66  4427.92  4434.67  4442.60
                             4465.34  4563.41  4583.66  4603.47  4608.32
                             5205.16

 Zero-point correction=                           0.277799 (Hartree/Particle)
 Thermal correction to Energy=                    0.294525
 Thermal correction to Enthalpy=                  0.295469
 Thermal correction to Gibbs Free Energy=         0.232214
 Sum of electronic and zero-point Energies=           -806.868533
 Sum of electronic and thermal Energies=              -806.851807
 Sum of electronic and thermal Enthalpies=            -806.850863
 Sum of electronic and thermal Free Energies=         -806.914118

                     E (Thermal)             CV                S
                      KCal/Mol        Cal/Mol-Kelvin    Cal/Mol-Kelvin
 Total                  184.817             64.088            133.132
 Electronic               0.000              0.000              0.000
 Translational            0.889              2.981             42.378
 Rotational               0.889              2.981             33.469
 Vibrational            183.040             58.127             57.285
 Vibration     1          0.593              1.985              6.147
 Vibration     2          0.594              1.982              5.514
 Vibration     3          0.594              1.981              5.281
 Vibration     4          0.599              1.964              3.951
 Vibration     5          0.606              1.943              3.298
 Vibration     6          0.608              1.936              3.156
 Vibration     7          0.612              1.923              2.943
 Vibration     8          0.628              1.871              2.366
 Vibration     9          0.634              1.851              2.210
 Vibration    10          0.648              1.807              1.942
 Vibration    11          0.661              1.767              1.747
 Vibration    12          0.664              1.760              1.719
 Vibration    13          0.689              1.685              1.452
 Vibration    14          0.697              1.660              1.378
 Vibration    15          0.728              1.573              1.161
 Vibration    16          0.752              1.508              1.030
 Vibration    17          0.755              1.499              1.014
 Vibration    18          0.765              1.474              0.969
 Vibration    19          0.781              1.430              0.897
 Vibration    20          0.787              1.415              0.874
 Vibration    21          0.804              1.374              0.814
 Vibration    22          0.815              1.345              0.774
 Vibration    23          0.830              1.310              0.730
 Vibration    24          0.880              1.194              0.598
 Vibration    25          0.942              1.063              0.475

 Optimization completed.
    -- Stationary point found.
 Normal termination of Gaussian 16 at Tue Dec 26 22:19:32 2023.
