 Gaussian 16, Revision A.03,
 Gaussian 16:  ES64L-G16RevA.03 25-Dec-2016

 --------------------------------------
 #P UB3LYP/6-311++G(d,p) nosym opt freq
 --------------------------------------

 -------
 Reduced
 -------
 Symbolic Z-matrix:
 Charge = -2 Multiplicity = 1

 SCF Done:  E(UB3LYP) =  -2019.71452321     A.U. after   39 cycles
 SCF Done:  E(UB3LYP) =  -2019.74447841     A.U. after   23 cycles
 SCF Done:  E(UB3LYP) =  -2019.75071405     A.U. after   20 cycles
 SCF Done:  E(UB3LYP) =  -2019.74905297     A.U. after   20 cycles
 SCF Done:  E(UB3LYP) =  -2019.75268234     A.U. after   17 cycles
 SCF Done:  E(UB3LYP) =  -2019.75354798     A.U. after   19 cycles
 SCF Done:  E(UB3LYP) =  -2019.75425938     A.U. after   20 cycles
 SCF Done:  E(UB3LYP) =  -2019.75523443     A.U. after   24 cycles
 SCF Done:  E(UB3LYP) =  -2019.75597156     A.U. after   24 cycles
 SCF Done:  E(UB3LYP) =  -2019.75626348     A.U. after   17 cycles
 SCF Done:  E(UB3LYP) =  -2019.75648534     A.U. after   17 cycles
 SCF Done:  E(UB3LYP) =  -2019.75649255     A.U. after   15 cycles
 SCF Done:  E(UB3LYP) =  -2019.75649660     A.U. after   15 cycles
 SCF Done:  E(UB3LYP) =  -2019.75649821     A.U. after   15 cycles
 SCF Done:  E(UB3LYP) =  -2019.75649859     A.U. after   13 cycles
 SCF Done:  E(UB3LYP) =  -2019.75649872     A.U. after   13 cycles
 SCF Done:  E(UB3LYP) =  -2019.75649875     A.U. after   13 cycles
 SCF Done:  E(UB3LYP) =  -2019.75649875     A.U. after   13 cycles
 SCF Done:  E(UB3LYP) =  -2019.75649873     A.U. after   12 cycles
 Optimization completed.
    -- Stationary point found.
 Normal termination of Gaussian 16 at Wed Dec 20 11:01:46 2023.

 ----------------------------------------------------------------------
 #P Geom=AllCheck Guess=TCheck SCRF=Check GenChk UB3LYP/6-311++G(d,p) F
 req
 ----------------------------------------------------------------------

 Structure from the checkpoint file:  "074-an.chk"
 -------
 Reduced
 -------
 Charge = -2 Multiplicity = 1

                          Input orientation:
 ---------------------------------------------------------------------
 Center     Atomic      Atomic             Coordinates (Angstroms)
 Number     Number       Type             X           Y           Z
 ---------------------------------------------------------------------
      1          6           0        0.601997    1.324797   -1.028613
      2          6           0       -0.713413    0.848713   -0.671901
      3          6           0       -0.978162   -0.443005   -0.171217
      4          6           0        0.108127   -1.356700    0.091015
      5          6           0        1.435556   -0.937586   -0.290957
      6          6           0        1.652548    0.363845   -0.789533
      7          8           0        0.818742    2.493613   -1.487671
      8          8           0       -0.105970   -2.523930    0.597395
      9         16           0        3.292025    0.977843   -1.175522
     10          6           0        3.525034    2.518991   -0.222263
     11          6           0        3.214095    3.757804   -0.780405
     12          6           0        4.076347    2.426736    1.053922
     13          6           0        4.321469    3.588782    1.785206
     14          6           0        3.472397    4.915489   -0.046607
     15          6           0        4.021566    4.836356    1.233735
     16          8           0        3.457777    1.338336   -2.599318
     17          8           0        4.320229    0.070002   -0.605459
     18          1           0        2.766604    3.786122   -1.762926
     19          1           0        4.318868    1.449370    1.452595
     20          1           0        3.227250    5.884092   -0.471630
     21          1           0        4.746910    3.519472    2.781980
     22          1           0        4.206155    5.742290    1.804065
     23         16           0       -2.009178    2.064338   -0.911628
     24          6           0       -1.525800    3.555399    0.027123
     25          6           0       -0.809903    4.583224   -0.584328
     26          6           0       -1.943005    3.663178    1.352019
     27          6           0       -1.641376    4.814728    2.078805
     28          6           0       -0.521899    5.735908    0.146256
     29          6           0       -0.931640    5.854893    1.474827
     30          8           0       -2.156302    2.487326   -2.320225
     31          8           0       -3.251137    1.622799   -0.226814
     32          1           0       -0.484337    4.451901   -1.605678
     33          1           0       -2.509256    2.851887    1.792669
     34          1           0       -1.961427    4.899403    3.113094
     35          1           0        0.040690    6.538645   -0.320706
     36          1           0       -0.690513    6.750107    2.040967
     37          6           0       -2.351971   -1.013571    0.083821
     38          6           0        2.492787   -2.006269   -0.156277
     39          1           0       -2.775834   -0.659512    1.031568
     40          1           0       -2.233741   -2.096997    0.155281
     41          1           0       -3.068542   -0.743075   -0.692510
     42          1           0        1.966268   -2.957484   -0.052093
     43          1           0        3.109846   -1.864902    0.739556
     44          1           0        3.180460   -2.024108   -1.002505
 ---------------------------------------------------------------------

 SCF Done:  E(UB3LYP) =  -2019.75649873     A.U. after    2 cycles

 Alpha  occ. eigenvalues --  -88.82217 -88.82215 -18.88465 -18.88462 -18.88382
 Alpha  occ. eigenvalues --  -18.88380 -18.82221 -18.79500 -10.00708 -10.00706
 Alpha  occ. eigenvalues --  -10.00663 -10.00660 -10.00372 -10.00370 -10.00093
 Alpha  occ. eigenvalues --  -10.00091  -9.99955  -9.99954  -9.99414  -9.99229
 Alpha  occ. eigenvalues --   -9.99225  -9.96260  -9.95743  -9.95741  -9.94546
 Alpha  occ. eigenvalues --   -9.94545  -9.92651  -9.92649  -7.88525  -7.88523
 Alpha  occ. eigenvalues --   -5.84814  -5.84812  -5.84730  -5.84728  -5.84596
 Alpha  occ. eigenvalues --   -5.84594  -0.87480  -0.87449  -0.76904  -0.76851
 Alpha  occ. eigenvalues --   -0.75069  -0.71642  -0.68208  -0.68206  -0.59705
 Alpha  occ. eigenvalues --   -0.58327  -0.57971  -0.57232  -0.57184  -0.55525
 Alpha  occ. eigenvalues --   -0.50283  -0.49906  -0.46548  -0.43905  -0.43158
 Alpha  occ. eigenvalues --   -0.43110  -0.42766  -0.39780  -0.38875  -0.35362
 Alpha  occ. eigenvalues --   -0.35169  -0.32705  -0.32283  -0.28336  -0.28134
 Alpha  occ. eigenvalues --   -0.28010  -0.27805  -0.26907  -0.26540  -0.25926
 Alpha  occ. eigenvalues --   -0.25583  -0.25001  -0.24757  -0.23309  -0.22447
 Alpha  occ. eigenvalues --   -0.21900  -0.20482  -0.19628  -0.19288  -0.19286
 Alpha  occ. eigenvalues --   -0.19055  -0.18632  -0.17717  -0.17504  -0.16943
 Alpha  occ. eigenvalues --   -0.16818  -0.15069  -0.14915  -0.14696  -0.12317
 Alpha  occ. eigenvalues --   -0.12263  -0.11021  -0.10742  -0.09757  -0.09500
 Alpha  occ. eigenvalues --   -0.09437  -0.08608  -0.08459  -0.07805  -0.07645
 Alpha  occ. eigenvalues --   -0.07620  -0.07257  -0.06703  -0.05765  -0.02060
 Alpha  occ. eigenvalues --   -0.01632   0.00026   0.02396   0.08542
 Alpha virt. eigenvalues --    0.12415   0.13601   0.14479   0.15014   0.15139
 Alpha virt. eigenvalues --    0.15801   0.15928   0.16275   0.16856   0.17649
 Alpha virt. eigenvalues --    0.17838   0.18575   0.19395   0.19654   0.19744

  Beta  occ. eigenvalues --  -88.82217 -88.82215 -18.88465 -18.88462 -18.88382
  Beta  occ. eigenvalues --  -18.88380 -18.82221 -18.79500 -10.00708 -10.00706
  Beta  occ. eigenvalues --  -10.00663 -10.00660 -10.00372 -10.00370 -10.00093
  Beta  occ. eigenvalues --  -10.00091  -9.99955  -9.99954  -9.99414  -9.99229
  Beta  occ. eigenvalues --   -9.99225  -9.96260  -9.95743  -9.95741  -9.94546
  Beta  occ. eigenvalues --   -9.94545  -9.92651  -9.92649  -7.88525  -7.88523
  Beta  occ. eigenvalues --   -5.84814  -5.84812  -5.84730  -5.84728  -5.84596
  Beta  occ. eigenvalues --   -5.84594  -0.87480  -0.87449  -0.76904  -0.76851
  Beta  occ. eigenvalues --   -0.75069  -0.71642  -0.68208  -0.68206  -0.59705
  Beta  occ. eigenvalues --   -0.58327  -0.57971  -0.57232  -0.57184  -0.55525
  Beta  occ. eigenvalues --   -0.50283  -0.49906  -0.46548  -0.43905  -0.43158
  Beta  occ. eigenvalues --   -0.43110  -0.42766  -0.39780  -0.38875  -0.35362
  Beta  occ. eigenvalues --   -0.35169  -0.32705  -0.32283  -0.28336  -0.28134
  Beta  occ. eigenvalues --   -0.28010  -0.27805  -0.26907  -0.26540  -0.25926
  Beta  occ. eigenvalues --   -0.25583  -0.25001  -0.24757  -0.23309  -0.22447
  Beta  occ. eigenvalues --   -0.21900  -0.20482  -0.19628  -0.19288  -0.19286
  Beta  occ. eigenvalues --   -0.19055  -0.18632  -0.17717  -0.17504  -0.16943
  Beta  occ. eigenvalues --   -0.16818  -0.15069  -0.14915  -0.14696  -0.12317
  Beta  occ. eigenvalues --   -0.12263  -0.11021  -0.10742  -0.09757  -0.09500
  Beta  occ. eigenvalues --   -0.09437  -0.08608  -0.08459  -0.07805  -0.07645
  Beta  occ. eigenvalues --   -0.07620  -0.07257  -0.06703  -0.05765  -0.02060
  Beta  occ. eigenvalues --   -0.01632   0.00026   0.02396   0.08542
  Beta virt. eigenvalues --    0.12415   0.13601   0.14479   0.15014   0.15139
  Beta virt. eigenvalues --    0.15801   0.15928   0.16275   0.16856   0.17649
  Beta virt. eigenvalues --    0.17838   0.18575   0.19395   0.19654   0.19744

 Mulliken charges and spin densities:
               1          2
     1  C   -0.392925   0.000000
     2  C    0.190623   0.000000
     3  C    0.898616   0.000000
     4  C   -1.902685  -0.000000
     5  C    0.898397  -0.000000
     6  C    0.191470   0.000000
     7  O   -0.309703  -0.000000
     8  O   -0.491798   0.000000
     9  S    0.059116  -0.000000
    10  C   -0.075176   0.000000
    11  C   -0.061786   0.000000
    12  C    0.211659  -0.000000
    13  C   -0.540460  -0.000000
    14  C   -0.232457  -0.000000
    15  C   -0.415306   0.000000
    16  O   -0.124954   0.000000
    17  O   -0.173669  -0.000000
    18  H    0.283891   0.000000
    19  H    0.231103  -0.000000
    20  H    0.149765  -0.000000
    21  H    0.132155  -0.000000
    22  H    0.111565   0.000000
    23  S    0.059682  -0.000000
    24  C   -0.077294  -0.000000
    25  C   -0.064815   0.000000
    26  C    0.214799   0.000000
    27  C   -0.541075   0.000000
    28  C   -0.232716   0.000000
    29  C   -0.414058  -0.000000
    30  O   -0.124633   0.000000
    31  O   -0.173925   0.000000
    32  H    0.283845   0.000000
    33  H    0.231215  -0.000000
    34  H    0.132171  -0.000000
    35  H    0.149934   0.000000
    36  H    0.111498   0.000000
    37  C   -0.550340  -0.000000
    38  C   -0.550440   0.000000
    39  H    0.137234   0.000000
    40  H    0.168739   0.000000
    41  H    0.148440   0.000000
    42  H    0.168836  -0.000000
    43  H    0.137090   0.000000
    44  H    0.148373   0.000000
 Sum of Mulliken charges =  -2.00000   0.00000

 Dipole moment (field-independent basis, Debye):
    X=             -4.5321    Y=             -6.0283    Z=              7.4573  Tot=             10.6062
 Quadrupole moment (field-independent basis, Debye-Ang):
   XX=           -270.1122   YY=           -247.9774   ZZ=           -211.2056
   XY=              3.0312   XZ=              9.6004   YZ=             18.8006

  Exact polarizability: 392.872  15.946 460.769  -0.637  26.875 264.042
 Approx polarizability: 610.100  30.457 752.234  -5.668   0.260 486.266

                      1                      2                      3
                      A                      A                      A
 Frequencies --     11.2239                18.5045                34.3470
 Red. masses --      5.6335                 6.0559                 4.6628
 Frc consts  --      0.0004                 0.0012                 0.0032
 IR Inten    --      0.1832                 0.5870                 0.8562

                      4                      5                      6
                      A                      A                      A
 Frequencies --     34.6983                62.8170                65.9127
 Red. masses --      6.1081                 3.7481                 4.1194
 Frc consts  --      0.0043                 0.0087                 0.0105
 IR Inten    --      1.4415                 1.1167                 0.4590

                      7                      8                      9
                      A                      A                      A
 Frequencies --     71.8239                93.4428               106.0000
 Red. masses --      5.0369                 7.8547                 4.6233
 Frc consts  --      0.0153                 0.0404                 0.0306
 IR Inten    --      2.9324                 3.4549                 4.8911

                     10                     11                     12
                      A                      A                      A
 Frequencies --    129.9173               147.8653               155.3832
 Red. masses --      4.6070                 1.1070                 1.1972
 Frc consts  --      0.0458                 0.0143                 0.0170
 IR Inten    --      0.4676                 0.0302                 0.1781

                     13                     14                     15
                      A                      A                      A
 Frequencies --    172.7155               178.6102               195.1333
 Red. masses --      6.6146                 6.5308                 5.3988
 Frc consts  --      0.1163                 0.1228                 0.1211
 IR Inten    --      0.1214                 0.8512                 1.0825

                     16                     17                     18
                      A                      A                      A
 Frequencies --    202.8135               217.8010               233.2456
 Red. masses --      7.6172                 7.3058                 7.8141
 Frc consts  --      0.1846                 0.2042                 0.2505
 IR Inten    --      2.6880                 6.0089                 2.4951

                     19                     20                     21
                      A                      A                      A
 Frequencies --    234.7555               257.9550               276.3269
 Red. masses --      5.8854                13.0701                10.7399
 Frc consts  --      0.1911                 0.5124                 0.4832
 IR Inten    --      6.0373                 0.0207                 8.8382

                     22                     23                     24
                      A                      A                      A
 Frequencies --    279.4250               302.4802               303.6395
 Red. masses --      8.4604                 7.1314                 8.1208
 Frc consts  --      0.3892                 0.3844                 0.4411
 IR Inten    --      0.0059                 1.7302                 0.6927

                     25                     26                     27
                      A                      A                      A
 Frequencies --    354.2934               356.8119               366.7966
 Red. masses --      5.6608                 6.8983                 5.8438
 Frc consts  --      0.4187                 0.5175                 0.4632
 IR Inten    --      0.6694                 0.1279                 0.0281

                     28                     29                     30
                      A                      A                      A
 Frequencies --    369.7317               412.7845               413.4931
 Red. masses --      3.0977                 2.9767                 3.3605
 Frc consts  --      0.2495                 0.2988                 0.3385
 IR Inten    --      5.2496                 0.5403                 0.0344

                     31                     32                     33
                      A                      A                      A
 Frequencies --    417.1576               419.7579               422.3222
 Red. masses --      4.2526                 6.6149                 7.1952
 Frc consts  --      0.4360                 0.6867                 0.7561
 IR Inten    --      0.0291                 1.3902                 2.4800

                     34                     35                     36
                      A                      A                      A
 Frequencies --    457.0597               459.5198               483.6914
 Red. masses --      5.3824                 5.1199                 7.5900
 Frc consts  --      0.6625                 0.6370                 1.0462
 IR Inten    --      0.1330                14.0472                 4.4171

                     37                     38                     39
                      A                      A                      A
 Frequencies --    502.2308               533.9015               548.2294
 Red. masses --      6.3686                12.4560                 6.1718
 Frc consts  --      0.9465                 2.0919                 1.0929
 IR Inten    --      2.0828                75.1669               188.8955

                     40                     41                     42
                      A                      A                      A
 Frequencies --    571.1703               572.2339               599.4944
 Red. masses --      5.6385                10.6775                 7.3984
 Frc consts  --      1.0838                 2.0600                 1.5666
 IR Inten    --      7.3853                 5.7863               126.5571

                     43                     44                     45
                      A                      A                      A
 Frequencies --    627.4944               628.1983               682.5203
 Red. masses --      6.3968                 6.3999                 7.3036
 Frc consts  --      1.4840                 1.4880                 2.0045
 IR Inten    --      0.2017                 1.3507                45.9055

                     46                     47                     48
                      A                      A                      A
 Frequencies --    690.1224               692.2410               702.8443
 Red. masses --      1.6152                 1.7134                 6.2841
 Frc consts  --      0.4533                 0.4838                 1.8290
 IR Inten    --    135.4246                26.3079                23.7652

                     49                     50                     51
                      A                      A                      A
 Frequencies --    703.0151               716.3573               726.9379
 Red. masses --      7.1456                 6.2988                 5.0171
 Frc consts  --      2.0808                 1.9044                 1.5621
 IR Inten    --     18.9560                13.1179                18.4460

                     52                     53                     54
                      A                      A                      A
 Frequencies --    746.2043               747.9118               752.1390
 Red. masses --      2.2007                 2.3078                 5.5205
 Frc consts  --      0.7220                 0.7606                 1.8400
 IR Inten    --      1.1912                 7.1478                 3.0117

                     55                     56                     57
                      A                      A                      A
 Frequencies --    825.0940               830.1249               870.8935
 Red. masses --      1.2487                 1.2479                 5.2777
 Frc consts  --      0.5009                 0.5066                 2.3585
 IR Inten    --      2.3317                 2.1158                16.4116

                     58                     59                     60
                      A                      A                      A
 Frequencies --    905.0539               907.9489               960.1853
 Red. masses --      1.3966                 1.3921                 1.3691
 Frc consts  --      0.6740                 0.6762                 0.7437
 IR Inten    --      7.1711                 7.2654                 1.8464

                     61                     62                     63
                      A                      A                      A
 Frequencies --    962.6260               962.9919               965.9127
 Red. masses --      1.3679                 1.2835                 1.2940
 Frc consts  --      0.7468                 0.7013                 0.7113
 IR Inten    --      1.3579                 0.2910                 2.3742

                     64                     65                     66
                      A                      A                      A
 Frequencies --    976.8874               987.2027              1010.9373
 Red. masses --      2.2560                 6.2697                 5.9823
 Frc consts  --      1.2684                 3.6001                 3.6022
 IR Inten    --      9.2463                24.4134                50.1854

                     67                     68                     69
                      A                      A                      A
 Frequencies --   1012.2625              1033.5629              1035.1996
 Red. masses --      6.0670                 3.9214                 3.8028
 Frc consts  --      3.6628                 2.4681                 2.4010
 IR Inten    --     12.6055               235.0702                78.0448

                     70                     71                     72
                      A                      A                      A
 Frequencies --   1039.4194              1040.3975              1051.3713
 Red. masses --      2.4347                 1.6820                 1.7490
 Frc consts  --      1.5498                 1.0727                 1.1391
 IR Inten    --     62.2039                12.9319                33.9029

                     73                     74                     75
                      A                      A                      A
 Frequencies --   1052.0142              1053.1255              1087.3407
 Red. masses --      3.4417                 2.2624                 1.5844
 Frc consts  --      2.2442                 1.4784                 1.1037
 IR Inten    --     34.2540                98.2913                 0.5395

                     76                     77                     78
                      A                      A                      A
 Frequencies --   1087.7738              1091.3429              1093.5477
 Red. masses --      1.6678                 3.2762                 3.2664
 Frc consts  --      1.1627                 2.2990                 2.3014
 IR Inten    --     12.0408                36.6087               149.7401

                     79                     80                     81
                      A                      A                      A
 Frequencies --   1095.5266              1168.1370              1169.0633
 Red. masses --      3.8457                 1.1477                 1.1084
 Frc consts  --      2.7194                 0.9227                 0.8926
 IR Inten    --     54.5817                 8.9455                 2.0703

                     82                     83                     84
                      A                      A                      A
 Frequencies --   1173.9492              1187.6381              1189.4223
 Red. masses --      5.3192                 1.1586                 1.1811
 Frc consts  --      4.3192                 0.9628                 0.9845
 IR Inten    --     91.7077                 0.6255                 9.6406

                     85                     86                     87
                      A                      A                      A
 Frequencies --   1196.1460              1200.2332              1249.4815
 Red. masses --     12.0951                14.2925                 4.5954
 Frc consts  --     10.1960                12.1308                 4.2270
 IR Inten    --    262.3052                52.8225                 5.6178

                     88                     89                     90
                      A                      A                      A
 Frequencies --   1328.8658              1329.2589              1340.0547
 Red. masses --      1.6522                 1.6137                 3.6108
 Frc consts  --      1.7190                 1.6800                 3.8203
 IR Inten    --      0.0242                 3.3995                38.1419

                     91                     92                     93
                      A                      A                      A
 Frequencies --   1341.2222              1352.9854              1365.3241
 Red. masses --      3.7628                 4.9514                 2.0768
 Frc consts  --      3.9881                 5.3403                 2.2809
 IR Inten    --      1.9332               203.2073               354.0786

                     94                     95                     96
                      A                      A                      A
 Frequencies --   1392.1351              1411.8558              1435.1078
 Red. masses --      1.2567                 2.9300                 3.3715
 Frc consts  --      1.4350                 3.4411                 4.0911
 IR Inten    --     22.4572                68.2764                 0.0153

                     97                     98                     99
                      A                      A                      A
 Frequencies --   1455.6557              1464.1110              1464.2871
 Red. masses --      1.4549                 1.9766                 2.1255
 Frc consts  --      1.8163                 2.4964                 2.6851
 IR Inten    --    237.6589               114.8052                 5.6617

                    100                    101                    102
                      A                      A                      A
 Frequencies --   1465.4337              1467.6684              1493.7053
 Red. masses --      2.0394                 1.3950                 1.3650
 Frc consts  --      2.5804                 1.7704                 1.7943
 IR Inten    --    169.9296                25.4228                91.1498

                    103                    104                    105
                      A                      A                      A
 Frequencies --   1498.1115              1500.3904              1500.7807
 Red. masses --      1.0705                 2.0318                 2.0475
 Frc consts  --      1.4155                 2.6949                 2.7171
 IR Inten    --      5.5102                 3.9480                10.6372

                    106                    107                    108
                      A                      A                      A
 Frequencies --   1549.6910              1607.7888              1610.2805
 Red. masses --      4.8882                 5.2872                 5.3634
 Frc consts  --      6.9166                 8.0525                 8.1939
 IR Inten    --     58.5011                21.5430                18.2914

                    109                    110                    111
                      A                      A                      A
 Frequencies --   1612.6553              1613.5117              2999.3795
 Red. masses --      5.8624                 5.8377                 1.0488
 Frc consts  --      8.9828                 8.9543                 5.5592
 IR Inten    --     19.7938                30.0526               165.8746

                    112                    113                    114
                      A                      A                      A
 Frequencies --   3000.5691              3057.6919              3057.7592
 Red. masses --      1.0492                 1.0818                 1.0820
 Frc consts  --      5.5659                 5.9592                 5.9607
 IR Inten    --     66.5849                82.7472                24.8846

                    115                    116                    117
                      A                      A                      A
 Frequencies --   3104.9299              3105.3676              3129.7489
 Red. masses --      1.1027                 1.1026                 1.0836
 Frc consts  --      6.2635                 6.2645                 6.2538
 IR Inten    --     11.6608                15.1157                 1.2924

                    118                    119                    120
                      A                      A                      A
 Frequencies --   3130.1844              3145.9724              3146.9896
 Red. masses --      1.0837                 1.0894                 1.0894
 Frc consts  --      6.2559                 6.3523                 6.3565
 IR Inten    --      1.8751                14.9966                75.5580

                    121                    122                    123
                      A                      A                      A
 Frequencies --   3159.4154              3160.2467              3194.0970
 Red. masses --      1.0955                 1.0953                 1.0919
 Frc consts  --      6.4426                 6.4448                 6.5632
 IR Inten    --      2.7349               125.0722                 5.0366

                    124                    125                    126
                      A                      A                      A
 Frequencies --   3194.1957              3230.4071              3231.0661
 Red. masses --      1.0919                 1.0923                 1.0921
 Frc consts  --      6.5637                 6.7158                 6.7174
 IR Inten    --     12.0290                 0.3306                 4.6711

 - Thermochemistry -
 -------------------
 Temperature   298.150 Kelvin.  Pressure   1.00000 Atm.
 Atom     1 has atomic number  6 and mass  12.00000

 Molecular mass:   416.03883 amu.
 Principal axes and moments of inertia in atomic units:
                           1         2         3
     Eigenvalues --  9470.28255********************
           X            0.97833   0.20656   0.01390
           Y           -0.20129   0.96478  -0.16937
           Z           -0.04840   0.16290   0.98545
 This molecule is an asymmetric top.
 Rotational symmetry number  1.
 Warning -- assumption of classical behavior for rotation
           may cause significant error
 Rotational temperatures (Kelvin)      0.00915     0.00809     0.00518
 Rotational constants (GHZ):           0.19057     0.16853     0.10792
 Zero-point vibrational energy     828923.7 (Joules/Mol)
                                  198.11752 (Kcal/Mol)
 Warning -- explicit consideration of  42 degrees of freedom as
           vibrations may cause significant error
 Vibrational temperatures:     16.15    26.62    49.42    49.92    90.38
          (Kelvin)             94.83   103.34   134.44   152.51   186.92
                              212.75   223.56   248.50   256.98   280.75
                              291.80   313.37   335.59   337.76   371.14
                              397.57   402.03   435.20   436.87   509.75
                              513.37   527.74   531.96   593.90   594.92
                              600.20   603.94   607.63   657.61   661.15
                              695.92   722.60   768.17   788.78   821.79
                              823.32   862.54   902.82   903.84   981.99
                              992.93   995.98  1011.24  1011.48  1030.68
                             1045.90  1073.62  1076.08  1082.16  1187.13
                             1194.36  1253.02  1302.17  1306.34  1381.49
                             1385.00  1385.53  1389.73  1405.52  1420.36
                             1454.51  1456.42  1487.07  1489.42  1495.49
                             1496.90  1512.69  1513.61  1515.21  1564.44
                             1565.06  1570.20  1573.37  1576.22  1680.69
                             1682.02  1689.05  1708.75  1711.31  1720.99
                             1726.87  1797.73  1911.94  1912.51  1928.04
                             1929.72  1946.64  1964.40  2002.97  2031.35
                             2064.80  2094.36  2106.53  2106.78  2108.43
                             2111.65  2149.11  2155.45  2158.73  2159.29
                             2229.66  2313.25  2316.83  2320.25  2321.48
                             4315.44  4317.15  4399.34  4399.43  4467.30
                             4467.93  4503.01  4503.64  4526.35  4527.82
                             4545.69  4546.89  4595.59  4595.74  4647.84
                             4648.78

 Zero-point correction=                           0.315720 (Hartree/Particle)
 Thermal correction to Energy=                    0.341371
 Thermal correction to Enthalpy=                  0.342315
 Thermal correction to Gibbs Free Energy=         0.258249
 Sum of electronic and zero-point Energies=          -2019.440778
 Sum of electronic and thermal Energies=             -2019.415128
 Sum of electronic and thermal Enthalpies=           -2019.414184
 Sum of electronic and thermal Free Energies=        -2019.498250

                     E (Thermal)             CV                S
                      KCal/Mol        Cal/Mol-Kelvin    Cal/Mol-Kelvin
 Total                  214.213             98.285            176.932
 Electronic               0.000              0.000              0.000
 Translational            0.889              2.981             43.967
 Rotational               0.889              2.981             35.782
 Vibrational            212.436             92.324             97.183
 Vibration     1          0.593              1.987              7.782
 Vibration     2          0.593              1.986              6.789
 Vibration     3          0.594              1.983              5.561
 Vibration     4          0.594              1.983              5.541
 Vibration     5          0.597              1.972              4.367
 Vibration     6          0.597              1.971              4.272
 Vibration     7          0.598              1.967              4.103
 Vibration     8          0.602              1.954              3.587
 Vibration     9          0.605              1.944              3.341
 Vibration    10          0.612              1.923              2.947
 Vibration    11          0.617              1.905              2.700
 Vibration    12          0.620              1.897              2.605
 Vibration    13          0.626              1.876              2.406
 Vibration    14          0.629              1.869              2.343
 Vibration    15          0.636              1.847              2.179
 Vibration    16          0.639              1.836              2.107
 Vibration    17          0.646              1.814              1.977
 Vibration    18          0.654              1.790              1.854
 Vibration    19          0.655              1.788              1.842
 Vibration    20          0.667              1.749              1.676
 Vibration    21          0.678              1.717              1.556
 Vibration    22          0.680              1.712              1.537
 Vibration    23          0.694              1.669              1.403
 Vibration    24          0.695              1.667              1.397
 Vibration    25          0.730              1.566              1.147
 Vibration    26          0.732              1.561              1.136
 Vibration    27          0.740              1.541              1.093
 Vibration    28          0.742              1.534              1.081
 Vibration    29          0.777              1.442              0.917
 Vibration    30          0.777              1.441              0.914
 Vibration    31          0.780              1.433              0.902
 Vibration    32          0.782              1.427              0.893
 Vibration    33          0.785              1.422              0.884
 Vibration    34          0.815              1.345              0.775
 Vibration    35          0.817              1.340              0.768
 Vibration    36          0.840              1.286              0.700
 Vibration    37          0.858              1.245              0.653
 Vibration    38          0.889              1.175              0.579
 Vibration    39          0.903              1.144              0.548
 Vibration    40          0.927              1.094              0.502
 Vibration    41          0.928              1.091              0.500
 Vibration    42          0.958              1.033              0.451

                           ! Non-Optimized Parameters !
 Normal termination of Gaussian 16 at Wed Dec 20 21:30:24 2023.
