 Q-Chem 5.4, Q-Chem, Inc., Pleasanton, CA (2021)
 Q-Chem 5.4.0 for Intel X86 EM64T Linux

User input:
--------------------------------------------------------------
$molecule
-1 2
N                 -2.0460950000      2.8994570000     -0.2060540000
C                 -2.0583260000      1.5179530000     -0.0002210000
C                 -3.2815240000      0.8560320000      0.0928510000
C                 -3.3519780000     -0.5311790000      0.2057620000
C                 -2.2023120000     -1.3191130000      0.2304300000
N                 -2.3304180000     -2.7095050000      0.2500400000
C                 -0.9198640000     -0.6840690000      0.1878620000
C                  0.2914540000     -1.4876450000      0.3125560000
O                  0.2791380000     -2.7509880000      0.4524280000
C                  1.5709650000     -0.7863260000      0.2886490000
C                  2.7698740000     -1.5274040000      0.3896790000
C                  3.9992760000     -0.9002140000      0.3757380000
C                  4.0707040000      0.5062180000      0.2616120000
C                  2.9108320000      1.2479960000      0.1644430000
C                  1.6426060000      0.6248020000      0.1741300000
C                  0.4403780000      1.4459510000      0.0743560000
O                  0.5563350000      2.7100650000      0.0092740000
C                 -0.8466730000      0.7587270000      0.0706150000
H                 -1.1187170000      3.3019370000     -0.0579210000
H                 -2.8228240000      3.3932460000      0.2081910000
H                 -4.1976950000      1.4390160000      0.0427630000
H                 -4.3225580000     -1.0193560000      0.2430210000
H                 -3.1510110000     -3.0504590000      0.7284830000
H                 -1.4472730000     -3.1749000000      0.4676050000
H                  2.6834610000     -2.6038200000      0.4775700000
H                  4.9110000000     -1.4856200000      0.4519920000
H                  5.0372980000      1.0014980000      0.2501120000
H                  2.9339460000      2.3277000000      0.0773620000
$end

$rem
BASIS  =  6-311++G(d,p)
GUI  =  2
JOB_TYPE  =  SP
METHOD  =  B3LYP
SCF_CONVERGENCE  = 8
SOLVENT_METHOD = sm12
$end

$smx
solvent dimethylformamide
charges CM5
$end

--------------------------------------------------------------

             Standard Nuclear Orientation (Angstroms)
    I     Atom           X                Y                Z
 ----------------------------------------------------------------
    1      N      -2.0460950000     2.8994570000    -0.2060540000
    2      C      -2.0583260000     1.5179530000    -0.0002210000
    3      C      -3.2815240000     0.8560320000     0.0928510000
    4      C      -3.3519780000    -0.5311790000     0.2057620000
    5      C      -2.2023120000    -1.3191130000     0.2304300000
    6      N      -2.3304180000    -2.7095050000     0.2500400000
    7      C      -0.9198640000    -0.6840690000     0.1878620000
    8      C       0.2914540000    -1.4876450000     0.3125560000
    9      O       0.2791380000    -2.7509880000     0.4524280000
   10      C       1.5709650000    -0.7863260000     0.2886490000
   11      C       2.7698740000    -1.5274040000     0.3896790000
   12      C       3.9992760000    -0.9002140000     0.3757380000
   13      C       4.0707040000     0.5062180000     0.2616120000
   14      C       2.9108320000     1.2479960000     0.1644430000
   15      C       1.6426060000     0.6248020000     0.1741300000
   16      C       0.4403780000     1.4459510000     0.0743560000
   17      O       0.5563350000     2.7100650000     0.0092740000
   18      C      -0.8466730000     0.7587270000     0.0706150000
   19      H      -1.1187170000     3.3019370000    -0.0579210000
   20      H      -2.8228240000     3.3932460000     0.2081910000
   21      H      -4.1976950000     1.4390160000     0.0427630000
   22      H      -4.3225580000    -1.0193560000     0.2430210000
   23      H      -3.1510110000    -3.0504590000     0.7284830000
   24      H      -1.4472730000    -3.1749000000     0.4676050000
   25      H       2.6834610000    -2.6038200000     0.4775700000
   26      H       4.9110000000    -1.4856200000     0.4519920000
   27      H       5.0372980000     1.0014980000     0.2501120000
   28      H       2.9339460000     2.3277000000     0.0773620000
 ----------------------------------------------------------------

   16    -799.7702722498      9.81e-09  Convergence criterion met
 Total energy in the final basis set =     -799.8607584538

                    Orbital Energies (a.u.)
 --------------------------------------------------------------

 Alpha MOs
 -- Occupied --
-19.0780 -19.0779 -14.3056 -14.3055 -10.2295 -10.2295 -10.2146 -10.2145
-10.1815 -10.1810 -10.1799 -10.1795 -10.1781 -10.1778 -10.1774 -10.1773
-10.1742 -10.1737  -1.0054  -1.0031  -0.9166  -0.9061  -0.8639  -0.8273
 -0.7882  -0.7571  -0.7457  -0.7204  -0.6705  -0.6431  -0.6329  -0.5890
 -0.5659  -0.5525  -0.5373  -0.5157  -0.4922  -0.4788  -0.4782  -0.4676
 -0.4532  -0.4440  -0.4303  -0.4291  -0.4182  -0.4105  -0.3978  -0.3918
 -0.3852  -0.3808  -0.3779  -0.3551  -0.3485  -0.3430  -0.3408  -0.2790
 -0.2660  -0.2625  -0.2555  -0.2476  -0.2407  -0.1989  -0.1391

 Beta MOs
 -- Occupied --
-19.0730 -19.0729 -14.3049 -14.3049 -10.2279 -10.2279 -10.2142 -10.2141
-10.1811 -10.1806 -10.1798 -10.1795 -10.1776 -10.1776 -10.1771 -10.1767
-10.1730 -10.1725  -0.9969  -0.9945  -0.9148  -0.9046  -0.8619  -0.8255
 -0.7843  -0.7551  -0.7440  -0.7175  -0.6641  -0.6414  -0.6303  -0.5881
 -0.5640  -0.5501  -0.5363  -0.5149  -0.4909  -0.4772  -0.4758  -0.4666
 -0.4519  -0.4426  -0.4300  -0.4202  -0.4167  -0.4052  -0.3961  -0.3876
 -0.3796  -0.3752  -0.3688  -0.3537  -0.3420  -0.3371  -0.3314  -0.2693
 -0.2562  -0.2511  -0.2502  -0.2431  -0.2361  -0.1877

          Ground-State Mulliken Net Atomic Charges

     Atom                 Charge (a.u.)    Spin (a.u.)
  --------------------------------------------------------
      1 N                    -0.280474       0.026462
      2 C                    -0.649416       0.047032
      3 C                     1.712598       0.097761
      4 C                     1.712036       0.098651
      5 C                    -0.650393       0.047328
      6 N                    -0.279799       0.026488
      7 C                    -0.971313      -0.009983
      8 C                    -1.793417       0.072685
      9 O                    -0.273329       0.184539
     10 C                    -0.993904       0.031079
     11 C                     0.203200       0.027790
     12 C                     1.052334       0.036510
     13 C                     1.052216       0.036337
     14 C                     0.201434       0.027910
     15 C                    -0.989709       0.031510
     16 C                    -1.792496       0.073496
     17 O                    -0.273105       0.184666
     18 C                    -0.974653      -0.009363
     19 H                     0.272590      -0.003165
     20 H                     0.369807      -0.001538
     21 H                     0.320521      -0.006853
     22 H                     0.320289      -0.006891
     23 H                     0.370262      -0.001513
     24 H                     0.272639      -0.003203
     25 H                     0.169305      -0.000931
     26 H                     0.361779      -0.002934
     27 H                     0.361693      -0.002929
     28 H                     0.169305      -0.000942
  --------------------------------------------------------
  Sum of atomic charges =    -1.000000

                    Cartesian Multipole Moments
 -----------------------------------------------------------------
    Charge (ESU x 10^10)
                -4.8032
    Dipole Moment (Debye)
         X      -1.8459      Y       0.2294      Z       0.7235
       Tot       1.9958
    Quadrupole Moments (Debye-Ang)
        XX    -109.0149     XY      -1.5441     YY    -131.8011
        XZ      -5.4758     YZ       1.6775     ZZ    -114.7173

 Total job time:  722.40s(wall), 5432.77s(cpu)
        *  Thank you very much for using Q-Chem.  Have a nice day.  *
