 Q-Chem 5.4, Q-Chem, Inc., Pleasanton, CA (2021)
 Q-Chem 5.4.0 for Intel X86 EM64T Linux

User input:
--------------------------------------------------------------
$molecule
0 1
C                 -4.9829600000     -1.4364650000     -0.5850250000
C                 -3.5433410000     -1.7298350000     -0.2879670000
O                 -3.0962410000     -2.2596890000      0.6874190000
O                 -2.7484600000     -1.3077540000     -1.3406740000
C                 -1.3767260000     -1.3093160000     -1.1740020000
C                 -0.6773360000     -2.3148660000     -1.8312710000
C                  0.7043780000     -2.3458290000     -1.7810210000
C                  1.3985700000     -1.3714190000     -1.0732590000
O                  2.7774210000     -1.4318630000     -1.1399330000
C                  3.4740860000     -1.8854480000     -0.0321340000
C                  4.9432200000     -1.6581810000     -0.2238800000
O                  2.9339910000     -2.3909490000      0.9084980000
C                  0.7194300000     -0.3329490000     -0.4140920000
C                  1.4794020000      0.7440770000      0.2972170000
O                  2.6887770000      0.6940550000      0.4531350000
C                  0.7142610000      1.9153070000      0.8070080000
C                  1.4143070000      2.9899700000      1.3663860000
C                  0.7235610000      4.0890960000      1.8596920000
C                 -0.6736510000      4.1198550000      1.8097650000
C                 -1.3750620000      3.0513680000      1.2666900000
C                 -0.6847680000      1.9461220000      0.7569750000
C                 -1.4622420000      0.8089380000      0.1918090000
O                 -2.6806820000      0.8122380000      0.2608960000
C                 -0.7014300000     -0.3013570000     -0.4654330000
H                 -5.1356960000     -0.3597410000     -0.4788850000
H                 -5.6161060000     -1.9689750000      0.1216180000
H                 -5.2322970000     -1.7129690000     -1.6106360000
H                 -1.2361320000     -3.0657360000     -2.3756230000
H                  1.2670800000     -3.1219020000     -2.2844670000
H                  5.1366350000     -0.5895400000     -0.1031760000
H                  5.2531060000     -1.9455250000     -1.2297860000
H                  5.4988930000     -2.2189620000      0.5248240000
H                  2.4949940000      2.9398380000      1.4048920000
H                  1.2689770000      4.9224990000      2.2875810000
H                 -1.2110600000      4.9770850000      2.1989670000
H                 -2.4569000000      3.0488230000      1.2278930000
$end

$rem
BASIS  =  6-311++G(d,p)
GUI  =  2
JOB_TYPE  =  SP
METHOD  =  B3LYP
SCF_CONVERGENCE  = 8
SOLVENT_METHOD = sm12
$end

$smx
solvent dimethylformamide
charges CM5
$end

--------------------------------------------------------------

             Standard Nuclear Orientation (Angstroms)
    I     Atom           X                Y                Z
 ----------------------------------------------------------------
    1      C      -4.9829600000    -1.4364650000    -0.5850250000
    2      C      -3.5433410000    -1.7298350000    -0.2879670000
    3      O      -3.0962410000    -2.2596890000     0.6874190000
    4      O      -2.7484600000    -1.3077540000    -1.3406740000
    5      C      -1.3767260000    -1.3093160000    -1.1740020000
    6      C      -0.6773360000    -2.3148660000    -1.8312710000
    7      C       0.7043780000    -2.3458290000    -1.7810210000
    8      C       1.3985700000    -1.3714190000    -1.0732590000
    9      O       2.7774210000    -1.4318630000    -1.1399330000
   10      C       3.4740860000    -1.8854480000    -0.0321340000
   11      C       4.9432200000    -1.6581810000    -0.2238800000
   12      O       2.9339910000    -2.3909490000     0.9084980000
   13      C       0.7194300000    -0.3329490000    -0.4140920000
   14      C       1.4794020000     0.7440770000     0.2972170000
   15      O       2.6887770000     0.6940550000     0.4531350000
   16      C       0.7142610000     1.9153070000     0.8070080000
   17      C       1.4143070000     2.9899700000     1.3663860000
   18      C       0.7235610000     4.0890960000     1.8596920000
   19      C      -0.6736510000     4.1198550000     1.8097650000
   20      C      -1.3750620000     3.0513680000     1.2666900000
   21      C      -0.6847680000     1.9461220000     0.7569750000
   22      C      -1.4622420000     0.8089380000     0.1918090000
   23      O      -2.6806820000     0.8122380000     0.2608960000
   24      C      -0.7014300000    -0.3013570000    -0.4654330000
   25      H      -5.1356960000    -0.3597410000    -0.4788850000
   26      H      -5.6161060000    -1.9689750000     0.1216180000
   27      H      -5.2322970000    -1.7129690000    -1.6106360000
   28      H      -1.2361320000    -3.0657360000    -2.3756230000
   29      H       1.2670800000    -3.1219020000    -2.2844670000
   30      H       5.1366350000    -0.5895400000    -0.1031760000
   31      H       5.2531060000    -1.9455250000    -1.2297860000
   32      H       5.4988930000    -2.2189620000     0.5248240000
   33      H       2.4949940000     2.9398380000     1.4048920000
   34      H       1.2689770000     4.9224990000     2.2875810000
   35      H      -1.2110600000     4.9770850000     2.1989670000
   36      H      -2.4569000000     3.0488230000     1.2278930000
 ----------------------------------------------------------------

   15   -1144.8269987050      5.25e-09  Convergence criterion met
 Total energy in the final basis set =    -1144.8569899467

                    Orbital Energies (a.u.)
 --------------------------------------------------------------

 Alpha MOs
 -- Occupied --
-19.1837 -19.1836 -19.1323 -19.1323 -19.1254 -19.1253 -10.3174 -10.3174
-10.2884 -10.2884 -10.2694 -10.2694 -10.2257 -10.2253 -10.2099 -10.2094
-10.2083 -10.2077 -10.1986 -10.1981 -10.1977 -10.1976 -10.1764 -10.1764
 -1.1272  -1.1268  -1.0692  -1.0676  -1.0456  -1.0450  -0.9006  -0.8864
 -0.8217  -0.8031  -0.7790  -0.7789  -0.7651  -0.7417  -0.7007  -0.6800
 -0.6576  -0.6548  -0.6137  -0.6061  -0.5714  -0.5703  -0.5406  -0.5197
 -0.5057  -0.5022  -0.5020  -0.4972  -0.4952  -0.4889  -0.4784  -0.4700
 -0.4599  -0.4571  -0.4551  -0.4505  -0.4499  -0.4358  -0.4263  -0.4190
 -0.4172  -0.4128  -0.4041  -0.3994  -0.3864  -0.3862  -0.3827  -0.3826
 -0.3701  -0.3672  -0.3398  -0.3332  -0.2993  -0.2983  -0.2944  -0.2879
 -0.2806  -0.2793  -0.2753  -0.2673

          Ground-State Mulliken Net Atomic Charges

     Atom                 Charge (a.u.)
  ----------------------------------------
      1 C                    -0.131169
      2 C                    -0.309714
      3 O                    -0.295388
      4 O                     0.042270
      5 C                    -0.670963
      6 C                     1.197007
      7 C                     1.194789
      8 C                    -0.667521
      9 O                     0.042686
     10 C                    -0.310233
     11 C                    -0.130874
     12 O                    -0.295454
     13 C                    -0.126725
     14 C                    -1.313064
     15 O                    -0.207320
     16 C                    -0.383909
     17 C                     0.139547
     18 C                     0.560366
     19 C                     0.561010
     20 C                     0.139221
     21 C                    -0.383729
     22 C                    -1.315754
     23 O                    -0.207477
     24 C                    -0.123147
     25 H                     0.212425
     26 H                     0.193550
     27 H                     0.230678
     28 H                     0.332091
     29 H                     0.332195
     30 H                     0.212414
     31 H                     0.230602
     32 H                     0.193576
     33 H                     0.198609
     34 H                     0.330413
     35 H                     0.330362
     36 H                     0.198629
  ----------------------------------------
  Sum of atomic charges =     0.000000

                    Cartesian Multipole Moments
 -----------------------------------------------------------------
    Charge (ESU x 10^10)
                 0.0000
    Dipole Moment (Debye)
         X       0.1782      Y       2.8764      Z      -3.0863
       Tot       4.2226
    Quadrupole Moments (Debye-Ang)
        XX    -120.9126     XY      -0.8332     YY    -119.6658
        XZ       1.0483     YZ      23.1663     ZZ    -135.3876

 Total job time:  1297.07s(wall), 10133.04s(cpu)
        *  Thank you very much for using Q-Chem.  Have a nice day.  *
