 Gaussian 16, Revision A.03,
 Gaussian 16:  ES64L-G16RevA.03 25-Dec-2016

 ----------------------------------------------------------------
 #P UB3LYP/6-311++G(d,p) SCRF=(PCM,Solvent=n,n-DiMethylFormamide)
 ----------------------------------------------------------------

 ------------------
 Quinone PCM in DMF
 ------------------
 Symbolic Z-matrix:
 Charge =  0 Multiplicity = 1

                         Standard orientation:
 ---------------------------------------------------------------------
 Center     Atomic      Atomic             Coordinates (Angstroms)
 Number     Number       Type             X           Y           Z
 ---------------------------------------------------------------------
      1          6           0        0.000083   -1.612034   -0.064210
      2          6           0       -1.313772   -0.879048   -0.008978
      3          6           0       -1.308872    0.475223   -0.010989
      4          6           0        0.000011    1.206286   -0.047705
      5          6           0        1.308964    0.475327   -0.009501
      6          6           0        1.313987   -0.878982   -0.010644
      7          8           0       -0.000047   -2.832661   -0.155767
      8          8           0       -0.000038    2.429445   -0.100399
      9          6           0        2.537243   -1.794528    0.023461
     10          6           0        3.427817   -1.689480   -1.230953
     11          6           0        3.340190   -1.698301    1.336653
     12          6           0        2.569738    1.330991    0.021658
     13          6           0        2.762699    2.162233   -1.264445
     14          6           0        2.664458    2.210894    1.285883
     15          6           0       -2.536910   -1.794590    0.028736
     16          6           0       -3.424848   -1.697222   -1.228216
     17          6           0       -3.342677   -1.690508    1.339560
     18          6           0       -2.569881    1.330669    0.015734
     19          6           0       -2.669378    2.210992    1.279262
     20          6           0       -2.758537    2.161346   -1.271432
     21          1           0        2.121813   -2.801988    0.003307
     22          1           0        4.179537   -2.484183   -1.210872
     23          1           0        3.956994   -0.737663   -1.308208
     24          1           0        2.835116   -1.818266   -2.140376
     25          1           0        3.859371   -0.745524    1.458312
     26          1           0        4.094515   -2.490379    1.360724
     27          1           0        2.688254   -1.836591    2.203309
     28          1           0        3.408022    0.640198    0.067564
     29          1           0        2.717136    1.529127   -2.155034
     30          1           0        3.747581    2.638804   -1.245020
     31          1           0        2.006167    2.940623   -1.354601
     32          1           0        1.906279    2.993145    1.287457
     33          1           0        3.649115    2.686490    1.325177
     34          1           0        2.548077    1.612583    2.194100
     35          1           0       -2.121282   -2.802083    0.015397
     36          1           0       -4.177889   -2.490554   -1.204066
     37          1           0       -2.830438   -1.833353   -2.135446
     38          1           0       -3.952217   -0.745022   -1.313197
     39          1           0       -4.095383   -2.483990    1.367693
     40          1           0       -3.864202   -0.738081    1.453368
     41          1           0       -2.692300   -1.821221    2.208566
     42          1           0       -3.408275    0.639819    0.058454
     43          1           0       -3.653797    2.687431    1.314202
     44          1           0       -1.910588    2.992664    1.283805
     45          1           0       -2.557393    1.612810    2.188120
     46          1           0       -3.744012    2.636834   -1.256008
     47          1           0       -2.708870    1.527960   -2.161614
     48          1           0       -2.002535    2.940523   -1.359032
 ---------------------------------------------------------------------

 SCF Done:  E(UB3LYP) =  -853.455988237     A.U. after   14 cycles

 The electronic state is 1-A.
 Alpha  occ. eigenvalues --  -19.13290 -19.12768 -10.27798 -10.27559 -10.20581
 Alpha  occ. eigenvalues --  -10.20579 -10.20499 -10.20498 -10.18599 -10.18599
 Alpha  occ. eigenvalues --  -10.18338 -10.18337 -10.16274 -10.16271 -10.16256
 Alpha  occ. eigenvalues --  -10.16253 -10.15850 -10.15849 -10.15829 -10.15828
 Alpha  occ. eigenvalues --   -1.06662  -1.06237  -0.86478  -0.84137  -0.79860
 Alpha  occ. eigenvalues --   -0.79620  -0.77944  -0.73832  -0.69092  -0.69074
 Alpha  occ. eigenvalues --   -0.68815  -0.68523  -0.68488  -0.65187  -0.62332
 Alpha  occ. eigenvalues --   -0.59118  -0.57951  -0.56247  -0.55576  -0.51813
 Alpha  occ. eigenvalues --   -0.48641  -0.48181  -0.46039  -0.45706  -0.45436
 Alpha  occ. eigenvalues --   -0.44286  -0.44247  -0.43771  -0.43352  -0.42730
 Alpha  occ. eigenvalues --   -0.42579  -0.42569  -0.42068  -0.41341  -0.41116
 Alpha  occ. eigenvalues --   -0.40038  -0.38919  -0.38727  -0.38469  -0.37490
 Alpha  occ. eigenvalues --   -0.36346  -0.35929  -0.35570  -0.35436  -0.35282
 Alpha  occ. eigenvalues --   -0.35110  -0.34632  -0.34466  -0.34307  -0.34305
 Alpha  occ. eigenvalues --   -0.32381  -0.32370  -0.28790  -0.28009  -0.26591
 Alpha  occ. eigenvalues --   -0.25555
 Alpha virt. eigenvalues --   -0.12216  -0.01780  -0.01123  -0.00199  -0.00138
 Alpha virt. eigenvalues --    0.00308   0.01047   0.01452   0.01647   0.01858
 Alpha virt. eigenvalues --    0.02511   0.02532   0.03419   0.03921   0.03973

  Beta  occ. eigenvalues --  -19.13290 -19.12768 -10.27798 -10.27559 -10.20581
  Beta  occ. eigenvalues --  -10.20579 -10.20499 -10.20498 -10.18599 -10.18599
  Beta  occ. eigenvalues --  -10.18338 -10.18337 -10.16274 -10.16271 -10.16256
  Beta  occ. eigenvalues --  -10.16253 -10.15850 -10.15849 -10.15829 -10.15828
  Beta  occ. eigenvalues --   -1.06662  -1.06237  -0.86478  -0.84137  -0.79860
  Beta  occ. eigenvalues --   -0.79620  -0.77944  -0.73832  -0.69092  -0.69074
  Beta  occ. eigenvalues --   -0.68815  -0.68523  -0.68488  -0.65187  -0.62332
  Beta  occ. eigenvalues --   -0.59118  -0.57951  -0.56247  -0.55576  -0.51813
  Beta  occ. eigenvalues --   -0.48641  -0.48181  -0.46039  -0.45706  -0.45436
  Beta  occ. eigenvalues --   -0.44286  -0.44247  -0.43771  -0.43352  -0.42730
  Beta  occ. eigenvalues --   -0.42579  -0.42569  -0.42068  -0.41341  -0.41116
  Beta  occ. eigenvalues --   -0.40038  -0.38919  -0.38727  -0.38469  -0.37490
  Beta  occ. eigenvalues --   -0.36346  -0.35929  -0.35570  -0.35436  -0.35282
  Beta  occ. eigenvalues --   -0.35110  -0.34632  -0.34466  -0.34307  -0.34305
  Beta  occ. eigenvalues --   -0.32381  -0.32370  -0.28790  -0.28009  -0.26591
  Beta  occ. eigenvalues --   -0.25555
  Beta virt. eigenvalues --   -0.12216  -0.01780  -0.01123  -0.00199  -0.00138
  Beta virt. eigenvalues --    0.00308   0.01047   0.01452   0.01647   0.01858
  Beta virt. eigenvalues --    0.02511   0.02532   0.03419   0.03921   0.03973

 Mulliken charges and spin densities:
               1          2
     1  C   -1.321506  -0.000000
     2  C    0.633847   0.000000
     3  C    0.360843  -0.000000
     4  C   -0.622327  -0.000000
     5  C    0.360615   0.000000
     6  C    0.632579   0.000000
     7  O   -0.205198   0.000000
     8  O   -0.188199   0.000000
     9  C    0.156760  -0.000000
    10  C   -0.725404   0.000000
    11  C   -0.729437  -0.000000
    12  C    0.683647  -0.000000
    13  C   -0.754824  -0.000000
    14  C   -0.763643   0.000000
    15  C    0.156754  -0.000000
    16  C   -0.724246   0.000000
    17  C   -0.730632   0.000000
    18  C    0.684480   0.000000
    19  C   -0.763547   0.000000
    20  C   -0.754871  -0.000000
    21  H    0.218502   0.000000
    22  H    0.163154  -0.000000
    23  H    0.155274   0.000000
    24  H    0.166606  -0.000000
    25  H    0.156183  -0.000000
    26  H    0.163024  -0.000000
    27  H    0.160079  -0.000000
    28  H    0.154295  -0.000000
    29  H    0.140064   0.000000
    30  H    0.169821  -0.000000
    31  H    0.175038   0.000000
    32  H    0.174070   0.000000
    33  H    0.170228  -0.000000
    34  H    0.140845   0.000000
    35  H    0.218435   0.000000
    36  H    0.163157  -0.000000
    37  H    0.166807   0.000000
    38  H    0.155249   0.000000
    39  H    0.163077  -0.000000
    40  H    0.156160   0.000000
    41  H    0.159949   0.000000
    42  H    0.154235  -0.000000
    43  H    0.170236   0.000000
    44  H    0.174113  -0.000000
    45  H    0.140872  -0.000000
    46  H    0.169774   0.000000
    47  H    0.140073  -0.000000
    48  H    0.174990   0.000000
 Sum of Mulliken charges =  -0.00000   0.00000

 Dipole moment (field-independent basis, Debye):
    X=              0.0001    Y=             -0.1345    Z=              0.4346  Tot=              0.4549
 Quadrupole moment (field-independent basis, Debye-Ang):
   XX=           -112.6279   YY=           -141.3493   ZZ=           -126.0796
   XY=              0.0001   XZ=              0.0029   YZ=             -0.4867

 Normal termination of Gaussian 16 at Sun Jan 21 07:09:16 2024.
