 Q-Chem 5.4, Q-Chem, Inc., Pleasanton, CA (2021)
 Q-Chem 5.4.0 for Intel X86 EM64T Linux

User input:
--------------------------------------------------------------
$molecule
-2 1
O                  2.8016790000     -2.8120950000     -1.3374630000
C                  2.2305430000     -1.7929550000     -0.8004790000
C                  0.8204110000     -1.6144500000     -0.7406710000
C                  0.1572640000     -0.5124690000     -0.1705910000
C                 -1.3645180000     -0.4936300000     -0.1870460000
C                 -1.9479890000      0.7241570000     -0.9381300000
C                 -3.4847390000      0.7169840000     -0.9521810000
C                 -4.0623560000      0.6472900000      0.4674750000
C                 -3.5065100000     -0.5653640000      1.2278520000
C                 -1.9695430000     -0.5772310000      1.2361650000
C                  0.8765190000      0.5692590000      0.4350530000
O                  0.3083720000      1.5921590000      0.9799810000
C                  2.3308950000      0.4386460000      0.3936520000
C                  3.1343370000      1.4561420000      0.9599810000
C                  4.5159690000      1.3887640000      0.9547920000
C                  5.1629380000      0.2717030000      0.3687230000
C                  4.4018650000     -0.7400400000     -0.1901730000
C                  2.9901440000     -0.6975720000     -0.1985850000
H                  0.2228320000     -2.4069520000     -1.1920380000
H                 -1.6926800000     -1.3946810000     -0.7296470000
H                 -1.5703710000      1.6258510000     -0.4452180000
H                 -1.5597400000      0.7306520000     -1.9642320000
H                 -3.8672120000      1.6066930000     -1.4708880000
H                 -3.8470030000     -0.1521830000     -1.5239610000
H                 -3.7784000000      1.5609520000      1.0072430000
H                 -5.1607930000      0.6226800000      0.4463300000
H                 -3.8788880000     -1.4829260000      0.7475800000
H                 -3.9015290000     -0.5776340000      2.2548520000
H                 -1.6050060000     -1.4907400000      1.7211120000
H                 -1.5837740000      0.2713430000      1.8099940000
H                  2.6091810000      2.2974630000      1.4017510000
H                  5.1051970000      2.1898810000      1.3982670000
H                  6.2500140000      0.2112550000      0.3607450000
H                  4.8628890000     -1.6109530000     -0.6468400000
$end
$rem
MAX_SCF_CYCLES=200
BASIS  =  6-311++G(d,p)
GUI  =  2
JOB_TYPE  =  SP
METHOD  =  B3LYP
SOLVENT_METHOD = PCM
$end
$pcm
theory = CPCM
$end
$solvent
dielectric 37.219
opticaldielectric 1.43
$end

--------------------------------------------------------------

             Standard Nuclear Orientation (Angstroms)
    I     Atom           X                Y                Z
 ----------------------------------------------------------------
    1      O       2.8016790000    -2.8120950000    -1.3374630000
    2      C       2.2305430000    -1.7929550000    -0.8004790000
    3      C       0.8204110000    -1.6144500000    -0.7406710000
    4      C       0.1572640000    -0.5124690000    -0.1705910000
    5      C      -1.3645180000    -0.4936300000    -0.1870460000
    6      C      -1.9479890000     0.7241570000    -0.9381300000
    7      C      -3.4847390000     0.7169840000    -0.9521810000
    8      C      -4.0623560000     0.6472900000     0.4674750000
    9      C      -3.5065100000    -0.5653640000     1.2278520000
   10      C      -1.9695430000    -0.5772310000     1.2361650000
   11      C       0.8765190000     0.5692590000     0.4350530000
   12      O       0.3083720000     1.5921590000     0.9799810000
   13      C       2.3308950000     0.4386460000     0.3936520000
   14      C       3.1343370000     1.4561420000     0.9599810000
   15      C       4.5159690000     1.3887640000     0.9547920000
   16      C       5.1629380000     0.2717030000     0.3687230000
   17      C       4.4018650000    -0.7400400000    -0.1901730000
   18      C       2.9901440000    -0.6975720000    -0.1985850000
   19      H       0.2228320000    -2.4069520000    -1.1920380000
   20      H      -1.6926800000    -1.3946810000    -0.7296470000
   21      H      -1.5703710000     1.6258510000    -0.4452180000
   22      H      -1.5597400000     0.7306520000    -1.9642320000
   23      H      -3.8672120000     1.6066930000    -1.4708880000
   24      H      -3.8470030000    -0.1521830000    -1.5239610000
   25      H      -3.7784000000     1.5609520000     1.0072430000
   26      H      -5.1607930000     0.6226800000     0.4463300000
   27      H      -3.8788880000    -1.4829260000     0.7475800000
   28      H      -3.9015290000    -0.5776340000     2.2548520000
   29      H      -1.6050060000    -1.4907400000     1.7211120000
   30      H      -1.5837740000     0.2713430000     1.8099940000
   31      H       2.6091810000     2.2974630000     1.4017510000
   32      H       5.1051970000     2.1898810000     1.3982670000
   33      H       6.2500140000     0.2112550000     0.3607450000
   34      H       4.8628890000    -1.6109530000    -0.6468400000
 ----------------------------------------------------------------

    9    -770.2489898123      9.06e-06  Convergence criterion met
 Total energy in the final basis set =     -770.2489898123

                    Orbital Energies (a.u.)
 --------------------------------------------------------------

 Alpha MOs
 -- Occupied --
-19.0172 -19.0103 -10.1678 -10.1640 -10.1483 -10.1479 -10.1473 -10.1472
-10.1469 -10.1445 -10.1445 -10.1433 -10.1377 -10.1361 -10.1342 -10.1338
-10.1221 -10.1145  -0.9348  -0.9282  -0.8231  -0.8120  -0.7655  -0.7290
 -0.7204  -0.7193  -0.6885  -0.6332  -0.5982  -0.5890  -0.5793  -0.5564
 -0.5348  -0.5162  -0.4716  -0.4680  -0.4471  -0.4287  -0.4233  -0.4180
 -0.4162  -0.3994  -0.3876  -0.3763  -0.3708  -0.3683  -0.3589  -0.3561
 -0.3519  -0.3410  -0.3277  -0.3204  -0.3163  -0.3141  -0.3080  -0.3025
 -0.2965  -0.2808  -0.2792  -0.2283  -0.2215  -0.2079  -0.1975  -0.1876
 -0.1080

          Ground-State Mulliken Net Atomic Charges

     Atom                 Charge (a.u.)
  ----------------------------------------
      1 O                    -0.734175
      2 C                    -0.510642
      3 C                    -0.289302
      4 C                     0.429297
      5 C                     0.684961
      6 C                    -0.501312
      7 C                    -0.367036
      8 C                    -0.414612
      9 C                    -0.366639
     10 C                    -0.499304
     11 C                    -0.701658
     12 O                    -0.684426
     13 C                    -0.115690
     14 C                     0.012887
     15 C                    -0.535121
     16 C                    -0.425673
     17 C                    -0.029000
     18 C                     0.633738
     19 H                     0.131249
     20 H                     0.161539
     21 H                     0.172701
     22 H                     0.149464
     23 H                     0.164671
     24 H                     0.120139
     25 H                     0.111111
     26 H                     0.173296
     27 H                     0.121878
     28 H                     0.164361
     29 H                     0.153043
     30 H                     0.167345
     31 H                     0.142602
     32 H                     0.171311
     33 H                     0.171805
     34 H                     0.137191
  ----------------------------------------
  Sum of atomic charges =    -2.000000

                    Cartesian Multipole Moments
 -----------------------------------------------------------------
    Charge (ESU x 10^10)
                -9.6064
    Dipole Moment (Debye)
         X     -16.7319      Y       5.3503      Z       1.4241
       Tot      17.6241
    Quadrupole Moments (Debye-Ang)
        XX    -169.1267     XY      27.3900     YY    -159.4309
        XZ      11.7900     YZ     -19.2674     ZZ    -131.2830

 Total job time:  71.06s(wall), 479.73s(cpu)
        *  Thank you very much for using Q-Chem.  Have a nice day.  *
