 Q-Chem 5.4, Q-Chem, Inc., Pleasanton, CA (2021)
 Q-Chem 5.4.0 for Intel X86 EM64T Linux

User input:
--------------------------------------------------------------
$molecule
-1 2
C                 -0.2610560000      1.0566330000      0.1557060000
C                 -1.4173420000      0.2742460000     -0.2199470000
C                 -1.3309530000     -1.0481460000     -0.5440810000
C                 -0.0848620000     -1.7898590000     -0.5417660000
C                  1.0781290000     -0.9865690000     -0.1810350000
C                  1.0176660000      0.3479920000      0.1413630000
O                 -0.3409970000      2.2776630000      0.4661050000
O                 -0.0282280000     -3.0113350000     -0.8219830000
C                  2.2383550000      1.1556070000      0.5045960000
C                  2.3144150000      1.6247670000      1.9426760000
O                  3.1086410000      1.4156060000     -0.3008840000
H                  2.3514520000      0.7528570000      2.6049260000
H                  1.4086380000      2.1895720000      2.1746150000
H                  3.2032780000      2.2409250000      2.0879270000
H                 -2.2125850000     -1.6193090000     -0.8194210000
Cl                 2.6208700000     -1.8514290000     -0.1176880000
H                 -2.3689910000      0.7974010000     -0.2287090000
$end

$rem
BASIS  =  6-311++G(d,p)
GUI  =  2
JOB_TYPE  =  SP
METHOD  =  B3LYP
SCF_CONVERGENCE  = 8
SOLVENT_METHOD = sm12
$end

$smx
solvent dimethylformamide
charges CM5
$end

--------------------------------------------------------------

             Standard Nuclear Orientation (Angstroms)
    I     Atom           X                Y                Z
 ----------------------------------------------------------------
    1      C      -0.2610560000     1.0566330000     0.1557060000
    2      C      -1.4173420000     0.2742460000    -0.2199470000
    3      C      -1.3309530000    -1.0481460000    -0.5440810000
    4      C      -0.0848620000    -1.7898590000    -0.5417660000
    5      C       1.0781290000    -0.9865690000    -0.1810350000
    6      C       1.0176660000     0.3479920000     0.1413630000
    7      O      -0.3409970000     2.2776630000     0.4661050000
    8      O      -0.0282280000    -3.0113350000    -0.8219830000
    9      C       2.2383550000     1.1556070000     0.5045960000
   10      C       2.3144150000     1.6247670000     1.9426760000
   11      O       3.1086410000     1.4156060000    -0.3008840000
   12      H       2.3514520000     0.7528570000     2.6049260000
   13      H       1.4086380000     2.1895720000     2.1746150000
   14      H       3.2032780000     2.2409250000     2.0879270000
   15      H      -2.2125850000    -1.6193090000    -0.8194210000
   16      Cl      2.6208700000    -1.8514290000    -0.1176880000
   17      H      -2.3689910000     0.7974010000    -0.2287090000
 ----------------------------------------------------------------

   18    -993.9595169261      7.74e-09  Convergence criterion met
 Total energy in the final basis set =     -994.0390345324

                    Orbital Energies (a.u.)
 --------------------------------------------------------------

 Alpha MOs
 -- Occupied --
******** -19.1219 -19.0867 -19.0864 -10.2729 -10.2367 -10.2362 -10.2355
-10.1899 -10.1802 -10.1782 -10.1718  -9.4635  -7.2279  -7.2189  -7.2178
 -1.0547  -1.0123  -1.0092  -0.8756  -0.8220  -0.7724  -0.7329  -0.6937
 -0.6310  -0.5838  -0.5422  -0.4994  -0.4809  -0.4682  -0.4513  -0.4431
 -0.4344  -0.4219  -0.4156  -0.4039  -0.3929  -0.3830  -0.3814  -0.3644
 -0.3457  -0.3100  -0.2902  -0.2693  -0.2612  -0.2527  -0.2443  -0.1738

 Beta MOs
 -- Occupied --
******** -19.1217 -19.0794 -19.0788 -10.2730 -10.2356 -10.2348 -10.2344
-10.1888 -10.1792 -10.1771 -10.1718  -9.4635  -7.2280  -7.2187  -7.2178
 -1.0544  -0.9997  -0.9965  -0.8723  -0.8176  -0.7705  -0.7316  -0.6840
 -0.6276  -0.5798  -0.5400  -0.4974  -0.4784  -0.4658  -0.4485  -0.4417
 -0.4333  -0.4099  -0.4079  -0.3995  -0.3857  -0.3794  -0.3686  -0.3554
 -0.3352  -0.3095  -0.2670  -0.2603  -0.2509  -0.2457  -0.2387

          Ground-State Mulliken Net Atomic Charges

     Atom                 Charge (a.u.)    Spin (a.u.)
  --------------------------------------------------------
      1 C                    -1.573420       0.043155
      2 C                     0.308554       0.096319
      3 C                     0.163708       0.083620
      4 C                    -1.319618       0.090413
      5 C                     0.196626       0.074189
      6 C                     0.619977       0.072599
      7 O                    -0.332735       0.261614
      8 O                    -0.329860       0.275664
      9 C                    -0.137383       0.002553
     10 C                    -0.081421       0.003316
     11 O                    -0.226952       0.001638
     12 H                     0.175168       0.000420
     13 H                     0.183072      -0.001411
     14 H                     0.231939       0.000583
     15 H                     0.246235      -0.006421
     16 Cl                    0.628279       0.009074
     17 H                     0.247829      -0.007326
  --------------------------------------------------------
  Sum of atomic charges =    -1.000000

                    Cartesian Multipole Moments
 -----------------------------------------------------------------
    Charge (ESU x 10^10)
                -4.8032
    Dipole Moment (Debye)
         X      -3.9100      Y       1.6717      Z       2.5736
       Tot       4.9705
    Quadrupole Moments (Debye-Ang)
        XX     -94.1270     XY       0.2909     YY    -115.0537
        XZ       6.1290     YZ      -5.0534     ZZ     -79.9800

 Total job time:  259.35s(wall), 1731.36s(cpu)
        *  Thank you very much for using Q-Chem.  Have a nice day.  *
