 Q-Chem 5.4, Q-Chem, Inc., Pleasanton, CA (2021)
 Q-Chem 5.4.0 for Intel X86 EM64T Linux

User input:
--------------------------------------------------------------
$molecule
0 1
C                  0.5972800000      1.2533850000     -0.8500760000
C                 -0.7811660000      0.8076960000     -0.5117760000
C                 -1.0811800000     -0.4882630000     -0.2853360000
C                  0.0661250000     -1.4742520000     -0.2363310000
C                  1.4987170000     -1.0196000000     -0.4141040000
C                  1.7137770000      0.2940540000     -0.6349180000
O                  0.8021550000      2.3590060000     -1.3133890000
O                 -0.1646580000     -2.6467620000     -0.0238670000
S                  3.4170160000      0.9468200000     -0.9103840000
C                  3.5089500000      2.5483390000     -0.0910990000
C                  3.4641830000      3.7082080000     -0.8588330000
C                  3.7249270000      2.5811980000      1.2852090000
C                  3.8798810000      3.8166910000      1.9093220000
C                  3.6375780000      4.9348460000     -0.2241070000
C                  3.8390750000      4.9889550000      1.1551180000
O                  3.5793280000      1.1366100000     -2.3519330000
O                  4.3177590000      0.0559910000     -0.1698440000
H                  3.3006530000      3.6396470000     -1.9258530000
H                  3.7968980000      1.6599010000      1.8495340000
H                  3.6165980000      5.8477200000     -0.8077060000
H                  4.0507170000      3.8610430000      2.9785530000
H                  3.9725380000      5.9478000000      1.6432140000
S                 -2.1071900000      2.0836580000     -0.6403430000
C                 -1.4847930000      3.5765200000      0.1524900000
C                 -1.0577510000      4.6388990000     -0.6385430000
C                 -1.5429360000      3.6666350000      1.5419090000
C                 -1.1412270000      4.8518270000      2.1534100000
C                 -0.6754800000      5.8230330000     -0.0146200000
C                 -0.7119500000      5.9269810000      1.3759390000
O                 -2.3146550000      2.3487320000     -2.0641040000
O                 -3.2130550000      1.6061080000      0.1976820000
H                 -1.0330940000      4.5310000000     -1.7145150000
H                 -1.9194240000      2.8378620000      2.1282700000
H                 -1.1818730000      4.9403660000      3.2327260000
H                 -0.3506550000      6.6644510000     -0.6153490000
H                 -0.4120850000      6.8519760000      1.8554210000
C                 -2.4422090000     -1.0856400000     -0.0749960000
C                  2.5272840000     -2.1092380000     -0.3237930000
H                 -2.8365030000     -0.7963070000      0.9021530000
H                 -2.3738170000     -2.1698330000     -0.1235280000
H                 -3.1561870000     -0.7201650000     -0.8118510000
H                  2.0331160000     -3.0775170000     -0.3520970000
H                  3.0895250000     -2.0234730000      0.6093190000
H                  3.2581500000     -2.0356560000     -1.1278540000
$end
$rem
MAX_SCF_CYCLES=200
BASIS  =  6-311++G(d,p)
GUI  =  2
JOB_TYPE  =  SP
METHOD  =  B3LYP
SOLVENT_METHOD = COSMO
$end
$solvent
dielectric 37.219
opticaldielectric 1.43
$end

--------------------------------------------------------------

             Standard Nuclear Orientation (Angstroms)
    I     Atom           X                Y                Z
 ----------------------------------------------------------------
    1      C       0.0090460817    -0.7635698165    -0.5517135817
    2      C      -1.2587474676    -1.4291398426    -0.1480862707
    3      C      -1.2881602558    -2.6957076646     0.3163855192
    4      C       0.0381644724    -3.3824958231     0.5614759144
    5      C       1.3488749939    -2.6672574576     0.3142846350
    6      C       1.2913408758    -1.4011833000    -0.1487947434
    7      O      -0.0021995073     0.2565708490    -1.2136932313
    8      O       0.0508502474    -4.5181823174     0.9895374781
    9      S       2.8290897600    -0.4549189568    -0.5268426516
   10      C       2.5383399068     1.2501641709    -0.0241509676
   11      C       2.2871721320     2.2124466899    -0.9976204221
   12      C       2.6733274014     1.5798068741     1.3230919778
   13      C       2.5314386272     2.9120343543     1.7038914642
   14      C       2.1646279281     3.5421332481    -0.6045551869
   15      C       2.2808324693     3.8895323396     0.7414020194
   16      O       3.0193741556    -0.5006654446    -1.9767143895
   17      O       3.8600109399    -0.9779330331     0.3770221324
   18      H       2.1954711546     1.9164213442    -2.0339284253
   19      H       2.9106461897     0.8150770781     2.0519944571
   20      H       1.9798255304     4.3063659396    -1.3503187957
   21      H       2.6352915687     3.1868407359     2.7470132161
   22      H       2.1834171292     4.9270061112     1.0407216420
   23      S      -2.8169911042    -0.5177261944    -0.5277572845
   24      C      -2.5656565367     1.1937800754    -0.0255856344
   25      C      -2.3345106734     2.1610046935    -0.9991334476
   26      C      -2.7110011931     1.5210629784     1.3211687276
   27      C      -2.6007651558     2.8564551032     1.7013786165
   28      C      -2.2436429998     3.4934191772    -0.6067062991
   29      C      -2.3708243929     3.8388897891     0.7387544137
   30      O      -3.0044549339    -0.5685090867    -1.9778192650
   31      O      -3.8369884108    -1.0633434983     0.3751184287
   32      H      -2.2337558001     1.8665785765    -2.0350521817
   33      H      -2.9320907374     0.7514802401     2.0500644295
   34      H      -2.7131883863     3.1294491635     2.7440912039
   35      H      -2.0749380450     4.2612622223    -1.3525793171
   36      H      -2.2982261509     4.8785459108     1.0375560207
   37      C      -2.5003991486    -3.5262794107     0.6231909559
   38      C       2.5792184466    -3.4717283292     0.6184206675
   39      H      -2.9954353285    -3.1563579657     1.5243562108
   40      H      -2.2013886362    -4.5598066726     0.7810560704
   41      H      -3.2378561272    -3.4656752049    -0.1760437944
   42      H       2.3035910487    -4.5128408076     0.7690251007
   43      H       3.0631088694    -3.0968789374     1.5236866914
   44      H       3.3171562299    -3.3888521616    -0.1782429261
 ----------------------------------------------------------------

    9   -2019.6864440505      9.22e-06  Convergence criterion met
 Total energy in the final basis set =    -2019.6864440505
    5   -2019.7178308031      3.60e-06  Convergence criterion met
 Total energy in the final basis set =    -2019.7178308031

                    Orbital Energies (a.u.)
 --------------------------------------------------------------

 Alpha MOs
 -- Occupied --
-89.0770 -89.0770 -19.1668 -19.1573 -19.1435 -19.1435 -19.1389 -19.1388
-10.3162 -10.3122 -10.2546 -10.2546 -10.2517 -10.2516 -10.2245 -10.2245
-10.2029 -10.2029 -10.2007 -10.2007 -10.1941 -10.1941 -10.1924 -10.1923
-10.1917 -10.1917 -10.1809 -10.1809  -8.1406  -8.1405  -6.1032  -6.1032
 -6.1025  -6.1025  -6.1015  -6.1015  -1.1380  -1.1372  -1.1008  -1.0958
 -1.0341  -1.0340  -0.8953  -0.8859  -0.8856  -0.8497  -0.7938  -0.7936
 -0.7714  -0.7710  -0.7647  -0.7495  -0.7183  -0.6841  -0.6819  -0.6354
 -0.6320  -0.6304  -0.6303  -0.5976  -0.5935  -0.5696  -0.5584  -0.5499
 -0.5323  -0.5129  -0.4993  -0.4971  -0.4961  -0.4903  -0.4885  -0.4833
 -0.4807  -0.4688  -0.4683  -0.4615  -0.4611  -0.4507  -0.4458  -0.4447
 -0.4434  -0.4361  -0.4337  -0.4146  -0.4084  -0.4013  -0.3941  -0.3935
 -0.3867  -0.3862  -0.3692  -0.3680  -0.3674  -0.3655  -0.3560  -0.3557
 -0.3389  -0.3380  -0.3276  -0.3244  -0.3219  -0.3182  -0.3087  -0.2907
 -0.2850  -0.2783  -0.2775  -0.2727

          Ground-State Mulliken Net Atomic Charges

     Atom                 Charge (a.u.)
  ----------------------------------------
      1 C                    -0.313663
      2 C                    -0.265224
      3 C                     0.796752
      4 C                    -1.761740
      5 C                     0.797274
      6 C                    -0.263062
      7 O                    -0.113373
      8 O                    -0.186793
      9 S                     0.907845
     10 C                     0.006815
     11 C                    -0.244251
     12 C                     0.095120
     13 C                    -0.522729
     14 C                    -0.343129
     15 C                    -0.363091
     16 O                    -0.110209
     17 O                    -0.135034
     18 H                     0.272320
     19 H                     0.277461
     20 H                     0.245441
     21 H                     0.243936
     22 H                     0.221027
     23 S                     0.907534
     24 C                     0.008237
     25 C                    -0.243577
     26 C                     0.095794
     27 C                    -0.522503
     28 C                    -0.342951
     29 C                    -0.364380
     30 O                    -0.110963
     31 O                    -0.134813
     32 H                     0.272408
     33 H                     0.277311
     34 H                     0.243987
     35 H                     0.245254
     36 H                     0.220909
     37 C                    -0.577585
     38 C                    -0.575996
     39 H                     0.245051
     40 H                     0.193353
     41 H                     0.241311
     42 H                     0.193353
     43 H                     0.245674
     44 H                     0.240898
  ----------------------------------------
  Sum of atomic charges =     0.000001

                    Cartesian Multipole Moments
 -----------------------------------------------------------------
    Charge (ESU x 10^10)
                -0.0000
    Dipole Moment (Debye)
         X      -0.0731      Y       5.9874      Z       6.7932
       Tot       9.0555
    Quadrupole Moments (Debye-Ang)
        XX    -216.6841     XY      -0.8316     YY    -143.7814
        XZ      -0.0634     YZ       2.8191     ZZ    -177.2051

 Total job time:  254.30s(wall), 1851.73s(cpu)
        *  Thank you very much for using Q-Chem.  Have a nice day.  *
