 Gaussian 16, Revision A.03,
 Gaussian 16:  ES64L-G16RevA.03 25-Dec-2016

 ----------------------------------------------------------------
 #P UB3LYP/6-311++G(d,p) SCRF=(PCM,Solvent=n,n-DiMethylFormamide)
 ----------------------------------------------------------------

 ------------------
 Quinone PCM in DMF
 ------------------
 Symbolic Z-matrix:
 Charge =  0 Multiplicity = 1

                         Standard orientation:
 ---------------------------------------------------------------------
 Center     Atomic      Atomic             Coordinates (Angstroms)
 Number     Number       Type             X           Y           Z
 ---------------------------------------------------------------------
      1         35           0       -2.881774   -0.741726   -0.000132
      2          6           0       -1.270338    0.254577    0.000194
      3          6           0       -1.269592    1.593760    0.000261
      4          6           0       -0.000029    2.357356    0.000239
      5          8           0       -0.000031    3.576259   -0.000100
      6          6           0        1.269545    1.593788   -0.000111
      7          6           0        1.270391    0.254601   -0.000030
      8         35           0        2.881776   -0.741708   -0.000074
      9          6           0        0.000029   -0.551700    0.000119
     10          8           0        0.000027   -1.757814    0.000503
     11          1           0       -2.180416    2.179143    0.000273
     12          1           0        2.180346    2.179212   -0.000312
 ---------------------------------------------------------------------

 SCF Done:  E(UB3LYP) =  -5528.64872106     A.U. after   15 cycles

 The electronic state is 1-A.
 Alpha  occ. eigenvalues -- -482.85723-482.85723 -62.50990 -62.50990 -56.33040
 Alpha  occ. eigenvalues --  -56.33040 -56.32647 -56.32646 -56.32607 -56.32607
 Alpha  occ. eigenvalues --  -19.16670 -19.15634 -10.31987 -10.30453 -10.27847
 Alpha  occ. eigenvalues --  -10.27846 -10.22966 -10.22966  -8.71956  -8.71955
 Alpha  occ. eigenvalues --   -6.55140  -6.55139  -6.53823  -6.53823  -6.53709
 Alpha  occ. eigenvalues --   -6.53709  -2.66228  -2.66227  -2.65868  -2.65868
 Alpha  occ. eigenvalues --   -2.65782  -2.65782  -2.64735  -2.64734  -2.64734
 Alpha  occ. eigenvalues --   -2.64733  -1.10417  -1.08694  -0.90142  -0.86508
 Alpha  occ. eigenvalues --   -0.80964  -0.76988  -0.72355  -0.64025  -0.62170
 Alpha  occ. eigenvalues --   -0.55385  -0.52864  -0.49136  -0.47697  -0.46849
 Alpha  occ. eigenvalues --   -0.46703  -0.44382  -0.44078  -0.41986  -0.37363
 Alpha  occ. eigenvalues --   -0.35952  -0.31930  -0.31657  -0.31576  -0.30112
 Alpha  occ. eigenvalues --   -0.29628  -0.28514
 Alpha virt. eigenvalues --   -0.15352  -0.05211  -0.04580  -0.01961  -0.01739
 Alpha virt. eigenvalues --   -0.00356   0.01127   0.01652   0.03448   0.03651
 Alpha virt. eigenvalues --    0.04594   0.04926   0.05564   0.06694   0.07049

  Beta  occ. eigenvalues -- -482.85723-482.85723 -62.50990 -62.50990 -56.33040
  Beta  occ. eigenvalues --  -56.33040 -56.32647 -56.32646 -56.32607 -56.32607
  Beta  occ. eigenvalues --  -19.16670 -19.15634 -10.31987 -10.30453 -10.27847
  Beta  occ. eigenvalues --  -10.27846 -10.22966 -10.22966  -8.71956  -8.71955
  Beta  occ. eigenvalues --   -6.55140  -6.55139  -6.53823  -6.53823  -6.53709
  Beta  occ. eigenvalues --   -6.53709  -2.66228  -2.66227  -2.65868  -2.65868
  Beta  occ. eigenvalues --   -2.65782  -2.65782  -2.64735  -2.64734  -2.64734
  Beta  occ. eigenvalues --   -2.64733  -1.10417  -1.08694  -0.90142  -0.86508
  Beta  occ. eigenvalues --   -0.80964  -0.76988  -0.72355  -0.64025  -0.62170
  Beta  occ. eigenvalues --   -0.55385  -0.52864  -0.49136  -0.47697  -0.46849
  Beta  occ. eigenvalues --   -0.46703  -0.44382  -0.44078  -0.41986  -0.37363
  Beta  occ. eigenvalues --   -0.35952  -0.31930  -0.31657  -0.31576  -0.30112
  Beta  occ. eigenvalues --   -0.29628  -0.28514
  Beta virt. eigenvalues --   -0.15352  -0.05211  -0.04580  -0.01961  -0.01739
  Beta virt. eigenvalues --   -0.00356   0.01127   0.01652   0.03448   0.03651
  Beta virt. eigenvalues --    0.04594   0.04926   0.05564   0.06694   0.07049

 Mulliken charges and spin densities:
               1          2
     1  Br  -0.045800  -0.000000
     2  C    1.080122  -0.000000
     3  C   -0.201483   0.000000
     4  C   -0.260717  -0.000000
     5  O   -0.277970  -0.000000
     6  C   -0.201395   0.000000
     7  C    1.079962  -0.000000
     8  Br  -0.045780  -0.000000
     9  C   -1.552773   0.000000
    10  O   -0.153444  -0.000000
    11  H    0.289639  -0.000000
    12  H    0.289638  -0.000000
 Sum of Mulliken charges =  -0.00000  -0.00000

 Dipole moment (field-independent basis, Debye):
    X=              0.0002    Y=              0.9022    Z=             -0.0002  Tot=              0.9022
 Quadrupole moment (field-independent basis, Debye-Ang):
   XX=            -74.6326   YY=            -98.5297   ZZ=            -80.7953
   XY=             -0.0004   XZ=             -0.0002   YZ=              0.0034

 Normal termination of Gaussian 16 at Sun Jan 21 06:46:35 2024.
