 Gaussian 16, Revision A.03,
 Gaussian 16:  ES64L-G16RevA.03 25-Dec-2016

 --------------------------------------
 #P UB3LYP/6-311++G(d,p) nosym opt freq
 --------------------------------------

 --------
 Oxidized
 --------
 Symbolic Z-matrix:
 Charge =  0 Multiplicity = 1

 SCF Done:  E(UB3LYP) =  -5528.63955369     A.U. after   15 cycles
 SCF Done:  E(UB3LYP) =  -5528.63954970     A.U. after   10 cycles
 SCF Done:  E(UB3LYP) =  -5528.63955393     A.U. after   10 cycles
 Optimization completed.
    -- Stationary point found.
 Normal termination of Gaussian 16 at Sat Jan  6 05:40:39 2024.

 ----------------------------------------------------------------------
 #P Geom=AllCheck Guess=TCheck SCRF=Check GenChk UB3LYP/6-311++G(d,p) F
 req
 ----------------------------------------------------------------------

 Structure from the checkpoint file:  "012.chk"
 --------
 Oxidized
 --------
 Charge =  0 Multiplicity = 1

                          Input orientation:
 ---------------------------------------------------------------------
 Center     Atomic      Atomic             Coordinates (Angstroms)
 Number     Number       Type             X           Y           Z
 ---------------------------------------------------------------------
      1         35           0       -2.703353   -1.876085   -0.096143
      2          6           0       -1.202541   -0.721135   -0.041352
      3          6           0       -1.338337    0.611105   -0.030999
      4          6           0       -0.153746    1.499805    0.011725
      5          8           0       -0.278011    2.712324    0.020728
      6          6           0        1.186566    0.869349    0.042417
      7          6           0        1.323941   -0.462735    0.032258
      8         35           0        3.027868   -1.289957    0.071405
      9          6           0        0.142906   -1.393999   -0.010690
     10          8           0        0.265862   -2.593797   -0.019550
     11          1           0       -2.303735    1.100796   -0.052970
     12          1           0        2.032578    1.544329    0.073171
 ---------------------------------------------------------------------

 SCF Done:  E(UB3LYP) =  -5528.63955393     A.U. after    1 cycles

 Alpha  occ. eigenvalues -- -482.86252-482.86251 -62.51519 -62.51519 -56.33572
 Alpha  occ. eigenvalues --  -56.33571 -56.33176 -56.33175 -56.33133 -56.33133
 Alpha  occ. eigenvalues --  -19.16925 -19.15890 -10.32279 -10.30819 -10.28630
 Alpha  occ. eigenvalues --  -10.28630 -10.23807 -10.23807  -8.72485  -8.72484
 Alpha  occ. eigenvalues --   -6.55679  -6.55678  -6.54353  -6.54352  -6.54227
 Alpha  occ. eigenvalues --   -6.54227  -2.66765  -2.66765  -2.66406  -2.66405
 Alpha  occ. eigenvalues --   -2.66311  -2.66310  -2.65255  -2.65255  -2.65254
 Alpha  occ. eigenvalues --   -2.65253  -1.10611  -1.08935  -0.90913  -0.87217
 Alpha  occ. eigenvalues --   -0.81567  -0.77732  -0.72989  -0.64717  -0.62864
 Alpha  occ. eigenvalues --   -0.55978  -0.53354  -0.49169  -0.48307  -0.47753
 Alpha  occ. eigenvalues --   -0.47130  -0.44785  -0.44414  -0.42549  -0.38157
 Alpha  occ. eigenvalues --   -0.36412  -0.32356  -0.32052  -0.31714  -0.30643
 Alpha  occ. eigenvalues --   -0.29884  -0.29248
 Alpha virt. eigenvalues --   -0.15886  -0.06190  -0.05310  -0.02500  -0.02490
 Alpha virt. eigenvalues --   -0.01081   0.00401   0.01698   0.02781   0.02793
 Alpha virt. eigenvalues --    0.04310   0.05040   0.05166   0.06541   0.06562

  Beta  occ. eigenvalues -- -482.86252-482.86251 -62.51519 -62.51519 -56.33572
  Beta  occ. eigenvalues --  -56.33571 -56.33176 -56.33175 -56.33133 -56.33133
  Beta  occ. eigenvalues --  -19.16925 -19.15890 -10.32279 -10.30819 -10.28630
  Beta  occ. eigenvalues --  -10.28630 -10.23807 -10.23807  -8.72485  -8.72484
  Beta  occ. eigenvalues --   -6.55679  -6.55678  -6.54353  -6.54352  -6.54227
  Beta  occ. eigenvalues --   -6.54227  -2.66765  -2.66765  -2.66406  -2.66405
  Beta  occ. eigenvalues --   -2.66311  -2.66310  -2.65255  -2.65255  -2.65254
  Beta  occ. eigenvalues --   -2.65253  -1.10611  -1.08935  -0.90913  -0.87217
  Beta  occ. eigenvalues --   -0.81567  -0.77732  -0.72989  -0.64717  -0.62864
  Beta  occ. eigenvalues --   -0.55978  -0.53354  -0.49169  -0.48307  -0.47753
  Beta  occ. eigenvalues --   -0.47130  -0.44785  -0.44414  -0.42549  -0.38157
  Beta  occ. eigenvalues --   -0.36412  -0.32356  -0.32052  -0.31714  -0.30643
  Beta  occ. eigenvalues --   -0.29884  -0.29248
  Beta virt. eigenvalues --   -0.15886  -0.06190  -0.05310  -0.02500  -0.02490
  Beta virt. eigenvalues --   -0.01081   0.00401   0.01698   0.02781   0.02793
  Beta virt. eigenvalues --    0.04310   0.05040   0.05166   0.06541   0.06562

 Mulliken charges and spin densities:
               1          2
     1  Br  -0.034468   0.000000
     2  C    1.068214  -0.000000
     3  C   -0.214334  -0.000000
     4  C   -0.334963   0.000000
     5  O   -0.221994  -0.000000
     6  C   -0.214178   0.000000
     7  C    1.067943   0.000000
     8  Br  -0.034442  -0.000000
     9  C   -1.532855   0.000000
    10  O   -0.089239  -0.000000
    11  H    0.270160  -0.000000
    12  H    0.270157  -0.000000
 Sum of Mulliken charges =  -0.00000  -0.00000

 Dipole moment (field-independent basis, Debye):
    X=             -0.0437    Y=              0.4279    Z=              0.0032  Tot=              0.4302
 Quadrupole moment (field-independent basis, Debye-Ang):
   XX=            -75.4459   YY=            -96.2185   ZZ=            -80.9005
   XY=              2.1497   XZ=              0.1760   YZ=             -0.0988

  Exact polarizability: 138.589  -1.570 153.588   2.161   0.932  61.285
 Approx polarizability: 185.813 -14.130 322.008   2.405   1.991  95.251

                      1                      2                      3
                      A                      A                      A
 Frequencies --     48.7079               122.6512               127.5322
 Red. masses --     17.6629                10.0380                31.5995
 Frc consts  --      0.0247                 0.0890                 0.3028
 IR Inten    --      2.0867                 7.8280                 0.0711

                      4                      5                      6
                      A                      A                      A
 Frequencies --    160.6159               221.9308               265.6129
 Red. masses --      4.7854                14.2911                21.0261
 Frc consts  --      0.0727                 0.4147                 0.8740
 IR Inten    --      0.0000                 0.0168                 0.8339

                      7                      8                      9
                      A                      A                      A
 Frequencies --    274.0657               288.6309               429.7024
 Red. masses --     16.4955                 5.9014                 5.5837
 Frc consts  --      0.7300                 0.2897                 0.6074
 IR Inten    --      0.1059                 0.6115                 0.0012

                     10                     11                     12
                      A                      A                      A
 Frequencies --    438.4633               469.5099               617.4506
 Red. masses --      8.5352                13.0226                 5.9453
 Frc consts  --      0.9668                 1.6914                 1.3355
 IR Inten    --     34.2549                 0.0404                 3.6032

                     13                     14                     15
                      A                      A                      A
 Frequencies --    662.7158               705.5279               771.6203
 Red. masses --      3.9030                11.1950                11.4285
 Frc consts  --      1.0099                 3.2832                 4.0091
 IR Inten    --      1.2265                93.9677                 1.7673

                     16                     17                     18
                      A                      A                      A
 Frequencies --    780.0064               860.5650               883.6088
 Red. masses --      6.6884                 5.2348                 1.3154
 Frc consts  --      2.3975                 2.2841                 0.6051
 IR Inten    --      0.0396                 0.8072                 0.0001

                     19                     20                     21
                      A                      A                      A
 Frequencies --    920.6004               996.9184              1124.6591
 Red. masses --      1.4980                 4.6356                 2.8108
 Frc consts  --      0.7480                 2.7144                 2.0947
 IR Inten    --     45.4095               126.6247                 1.2711

                     22                     23                     24
                      A                      A                      A
 Frequencies --   1271.2405              1290.9850              1310.6930
 Red. masses --      6.6477                 1.4643                 1.9435
 Frc consts  --      6.3296                 1.4379                 1.9672
 IR Inten    --    234.5826                23.6135                 3.7906

                     25                     26                     27
                      A                      A                      A
 Frequencies --   1617.5438              1656.7950              1714.6729
 Red. masses --      9.0395                 8.7032                11.1457
 Frc consts  --     13.9350                14.0757                19.3072
 IR Inten    --    146.0005                23.9931               284.5763

                     28                     29                     30
                      A                      A                      A
 Frequencies --   1758.8228              3204.5271              3205.2711
 Red. masses --     13.2379                 1.0933                 1.0940
 Frc consts  --     24.1276                 6.6146                 6.6223
 IR Inten    --    179.1486                 0.5846                 0.7643

 - Thermochemistry -
 -------------------
 Temperature   298.150 Kelvin.  Pressure   1.00000 Atm.
 Atom     1 has atomic number 35 and mass  78.91834

 Molecular mass:   263.84215 amu.
 Principal axes and moments of inertia in atomic units:
                           1         2         3
     Eigenvalues --  1721.553404991.535686713.08903
           X            0.99439  -0.10195  -0.02813
           Y            0.10169   0.99476  -0.01059
           Z            0.02906   0.00767   0.99955
 This molecule is an asymmetric top.
 Rotational symmetry number  1.
 Warning -- assumption of classical behavior for rotation
           may cause significant error
 Rotational temperatures (Kelvin)      0.05031     0.01735     0.01290
 Rotational constants (GHZ):           1.04832     0.36156     0.26884
 Zero-point vibrational energy     168683.3 (Joules/Mol)
                                   40.31628 (Kcal/Mol)
 Warning -- explicit consideration of  12 degrees of freedom as
           vibrations may cause significant error
 Vibrational temperatures:     70.08   176.47   183.49   231.09   319.31
          (Kelvin)            382.16   394.32   415.28   618.25   630.85
                              675.52   888.37   953.50  1015.10  1110.19
                             1122.26  1238.16  1271.32  1324.54  1434.34
                             1618.13  1829.03  1857.44  1885.79  2327.28
                             2383.76  2467.03  2530.55  4610.60  4611.67

 Zero-point correction=                           0.064248 (Hartree/Particle)
 Thermal correction to Energy=                    0.073437
 Thermal correction to Enthalpy=                  0.074381
 Thermal correction to Gibbs Free Energy=         0.026980
 Sum of electronic and zero-point Energies=          -5528.575306
 Sum of electronic and thermal Energies=             -5528.566117
 Sum of electronic and thermal Enthalpies=           -5528.565173
 Sum of electronic and thermal Free Energies=        -5528.612574

                     E (Thermal)             CV                S
                      KCal/Mol        Cal/Mol-Kelvin    Cal/Mol-Kelvin
 Total                   46.082             31.661             99.764
 Electronic               0.000              0.000              0.000
 Translational            0.889              2.981             42.610
 Rotational               0.889              2.981             32.423
 Vibrational             44.305             25.699             24.732
 Vibration     1          0.595              1.978              4.869
 Vibration     2          0.610              1.930              3.058
 Vibration     3          0.611              1.926              2.983
 Vibration     4          0.622              1.891              2.543
 Vibration     5          0.648              1.808              1.943
 Vibration     6          0.671              1.736              1.625
 Vibration     7          0.676              1.721              1.570
 Vibration     8          0.685              1.695              1.482
 Vibration     9          0.791              1.406              0.860
 Vibration    10          0.799              1.386              0.831
 Vibration    11          0.827              1.318              0.739
 Vibration    12          0.977              0.995              0.421

 Optimization completed.
    -- Stationary point found.
 Normal termination of Gaussian 16 at Sat Jan  6 05:44:55 2024.
