 Q-Chem 5.4, Q-Chem, Inc., Pleasanton, CA (2021)
 Q-Chem 5.4.0 for Intel X86 EM64T Linux

User input:
--------------------------------------------------------------
$molecule
0 1
C                 -0.9243570000      3.9444170000     -0.6070760000
C                 -2.0604330000      3.1581490000     -0.1315310000
C                 -1.9096050000      1.8716350000      0.2549790000
C                  0.4711450000      3.2360180000     -0.6406880000
C                  0.5482870000      1.8207520000     -0.1841060000
C                 -0.5906390000      1.2214570000      0.2220900000
O                  1.4426490000      3.8465720000     -1.0288450000
O                 -1.0125940000      5.0995470000     -0.9701580000
C                  1.9103450000      1.1786870000     -0.2150470000
C                  1.9931740000     -0.2735940000      0.2578620000
C                  3.4192970000     -0.8340030000      0.1911080000
C                  3.5165430000     -2.2872850000      0.6629820000
C                 -3.0753130000      1.0372650000      0.7186760000
C                 -3.4998520000     -0.0319890000     -0.3094350000
C                 -4.6653590000     -0.8982820000      0.1814720000
C                 -5.1005940000     -1.9507800000     -0.8419540000
H                 -3.0235860000      3.6565390000     -0.1065260000
H                 -0.5576150000      0.1914360000      0.5618200000
H                  2.5894590000      1.8033130000      0.3784170000
H                  2.2962620000      1.2602150000     -1.2387760000
H                  1.3340370000     -0.9031300000     -0.3529630000
H                  1.6279290000     -0.3513410000      1.2895700000
H                  4.0818010000     -0.2066740000      0.7989770000
H                  3.7888580000     -0.7578240000     -0.8382550000
H                  3.1872280000     -2.3898430000      1.7018460000
H                  4.5437760000     -2.6565470000      0.6034700000
H                  2.8918200000     -2.9456480000      0.0510180000
H                 -3.9258370000      1.6892340000      0.9356340000
H                 -2.8064440000      0.5390300000      1.6589770000
H                 -2.6457740000     -0.6760530000     -0.5501620000
H                 -3.7792350000      0.4676520000     -1.2440610000
H                 -5.5165700000     -0.2519960000      0.4263870000
H                 -4.3788500000     -1.3929480000      1.1173880000
H                 -5.4253540000     -1.4835840000     -1.7766720000
H                 -5.9328540000     -2.5506160000     -0.4643210000
H                 -4.2802480000     -2.6346090000     -1.0811850000
$end

$rem
BASIS  =  6-311++G(d,p)
GUI  =  2
JOB_TYPE  =  SP
METHOD  =  B3LYP
SCF_CONVERGENCE  = 8
SOLVENT_METHOD = sm12
$end

$smx
solvent dimethylformamide
charges CM5
$end

--------------------------------------------------------------

             Standard Nuclear Orientation (Angstroms)
    I     Atom           X                Y                Z
 ----------------------------------------------------------------
    1      C      -0.9243570000     3.9444170000    -0.6070760000
    2      C      -2.0604330000     3.1581490000    -0.1315310000
    3      C      -1.9096050000     1.8716350000     0.2549790000
    4      C       0.4711450000     3.2360180000    -0.6406880000
    5      C       0.5482870000     1.8207520000    -0.1841060000
    6      C      -0.5906390000     1.2214570000     0.2220900000
    7      O       1.4426490000     3.8465720000    -1.0288450000
    8      O      -1.0125940000     5.0995470000    -0.9701580000
    9      C       1.9103450000     1.1786870000    -0.2150470000
   10      C       1.9931740000    -0.2735940000     0.2578620000
   11      C       3.4192970000    -0.8340030000     0.1911080000
   12      C       3.5165430000    -2.2872850000     0.6629820000
   13      C      -3.0753130000     1.0372650000     0.7186760000
   14      C      -3.4998520000    -0.0319890000    -0.3094350000
   15      C      -4.6653590000    -0.8982820000     0.1814720000
   16      C      -5.1005940000    -1.9507800000    -0.8419540000
   17      H      -3.0235860000     3.6565390000    -0.1065260000
   18      H      -0.5576150000     0.1914360000     0.5618200000
   19      H       2.5894590000     1.8033130000     0.3784170000
   20      H       2.2962620000     1.2602150000    -1.2387760000
   21      H       1.3340370000    -0.9031300000    -0.3529630000
   22      H       1.6279290000    -0.3513410000     1.2895700000
   23      H       4.0818010000    -0.2066740000     0.7989770000
   24      H       3.7888580000    -0.7578240000    -0.8382550000
   25      H       3.1872280000    -2.3898430000     1.7018460000
   26      H       4.5437760000    -2.6565470000     0.6034700000
   27      H       2.8918200000    -2.9456480000     0.0510180000
   28      H      -3.9258370000     1.6892340000     0.9356340000
   29      H      -2.8064440000     0.5390300000     1.6589770000
   30      H      -2.6457740000    -0.6760530000    -0.5501620000
   31      H      -3.7792350000     0.4676520000    -1.2440610000
   32      H      -5.5165700000    -0.2519960000     0.4263870000
   33      H      -4.3788500000    -1.3929480000     1.1173880000
   34      H      -5.4253540000    -1.4835840000    -1.7766720000
   35      H      -5.9328540000    -2.5506160000    -0.4643210000
   36      H      -4.2802480000    -2.6346090000    -1.0811850000
 ----------------------------------------------------------------

   15    -696.1553382510      4.39e-09  Convergence criterion met
 Total energy in the final basis set =     -696.1765161963

                    Orbital Energies (a.u.)
 --------------------------------------------------------------

 Alpha MOs
 -- Occupied --
-19.1410 -19.1329 -10.2771 -10.2730 -10.2195 -10.2064 -10.2049 -10.1863
-10.1818 -10.1791 -10.1739 -10.1706 -10.1684 -10.1670 -10.1581 -10.1578
 -1.0796  -1.0531  -0.8728  -0.8223  -0.8003  -0.7780  -0.7457  -0.7235
 -0.6981  -0.6565  -0.6408  -0.5987  -0.5888  -0.5823  -0.5726  -0.5217
 -0.5009  -0.4818  -0.4739  -0.4666  -0.4548  -0.4462  -0.4449  -0.4359
 -0.4280  -0.4238  -0.4180  -0.4137  -0.3965  -0.3921  -0.3857  -0.3740
 -0.3623  -0.3560  -0.3518  -0.3412  -0.3384  -0.3357  -0.3320  -0.3308
 -0.3200  -0.3078  -0.2556  -0.2545

          Ground-State Mulliken Net Atomic Charges

     Atom                 Charge (a.u.)
  ----------------------------------------
      1 C                    -1.422434
      2 C                    -0.581863
      3 C                     1.424112
      4 C                    -1.781185
      5 C                     0.923796
      6 C                     0.046013
      7 O                    -0.282823
      8 O                    -0.349430
      9 C                    -0.408609
     10 C                     0.699492
     11 C                    -0.523175
     12 C                    -0.569670
     13 C                     0.783149
     14 C                    -0.379728
     15 C                    -0.098948
     16 C                    -0.749768
     17 H                     0.222744
     18 H                     0.411602
     19 H                     0.175170
     20 H                     0.172191
     21 H                     0.131248
     22 H                     0.108943
     23 H                     0.125451
     24 H                     0.122214
     25 H                     0.140888
     26 H                     0.147680
     27 H                     0.138695
     28 H                     0.265771
     29 H                     0.238076
     30 H                     0.077038
     31 H                     0.122655
     32 H                     0.121535
     33 H                     0.136572
     34 H                     0.135207
     35 H                     0.138162
     36 H                     0.139227
  ----------------------------------------
  Sum of atomic charges =     0.000000

                    Cartesian Multipole Moments
 -----------------------------------------------------------------
    Charge (ESU x 10^10)
                 0.0000
    Dipole Moment (Debye)
         X      -2.5365      Y      -7.1491      Z       2.5870
       Tot       8.0147
    Quadrupole Moments (Debye-Ang)
        XX     -89.6978     XY      -4.3590     YY    -142.2867
        XZ      -0.1537     YZ      11.4193     ZZ    -101.0249

 Total job time:  914.53s(wall), 7118.23s(cpu)
        *  Thank you very much for using Q-Chem.  Have a nice day.  *
