 Q-Chem 5.4, Q-Chem, Inc., Pleasanton, CA (2021)
 Q-Chem 5.4.0 for Intel X86 EM64T Linux

User input:
--------------------------------------------------------------
$molecule
-2 1
Cl                 5.2114690000     -1.4937050000     -0.0034660000
C                  3.6144340000     -0.6473760000     -0.1482370000
C                  3.6348560000      0.7326830000     -0.4826670000
C                  2.4193130000      1.3776100000     -0.5930320000
C                  1.1774270000      0.7275400000     -0.3893350000
C                 -0.0447410000      1.4850550000     -0.5266860000
O                 -0.0631020000      2.7370110000     -0.8286050000
C                 -1.2484390000      0.7143720000     -0.2954380000
C                 -2.5100540000      1.3551020000     -0.4031390000
C                 -3.6997950000      0.6877210000     -0.1974880000
C                 -3.6785380000     -0.6974830000      0.1365030000
C                 -2.4701920000     -1.3524510000      0.2497070000
C                 -1.2263780000     -0.6982240000      0.0451350000
C                 -0.0021370000     -1.4584250000      0.1831550000
O                  0.0143130000     -2.7116330000      0.4854670000
C                  1.1944540000     -0.6890610000     -0.0475500000
C                  2.4563400000     -1.3400040000      0.0625520000
H                  4.5748420000      1.2491480000     -0.6428090000
H                  2.3736100000      2.4326780000     -0.8464850000
H                 -2.4903310000      2.4104190000     -0.6588790000
H                 -4.6490810000      1.2136010000     -0.2891190000
H                 -4.6120600000     -1.2339180000      0.3010400000
H                 -2.4192590000     -2.4072750000      0.5028360000
H                  2.4430500000     -2.3933840000      0.3176770000
$end
$rem
MAX_SCF_CYCLES=200
BASIS  =  6-311++G(d,p)
GUI  =  2
JOB_TYPE  =  SP
METHOD  =  B3LYP
SOLVENT_METHOD = COSMO
$end
$solvent
dielectric 37.219
opticaldielectric 1.43
$end

--------------------------------------------------------------

             Standard Nuclear Orientation (Angstroms)
    I     Atom           X                Y                Z
 ----------------------------------------------------------------
    1      Cl      4.7017698979    -0.6325797150    -0.0000559595
    2      C       2.9963025744    -0.0168416087    -0.0000023674
    3      C       2.8105115098     1.3911019260    -0.0001012177
    4      C       1.5123237889     1.8605321043    -0.0000519752
    5      C       0.3813763244     1.0077002757     0.0000672447
    6      C      -0.9401667934     1.5907205838     0.0000961475
    7      O      -1.1451861665     2.8622759666     0.0000920219
    8      C      -2.0153514476     0.6210326153     0.0000471527
    9      C      -3.3584686058     1.0791190102     0.0000248406
   10      C      -4.4352711214     0.2167561519    -0.0001276655
   11      C      -4.2074998779    -1.1899820007    -0.0001489129
   12      C      -2.9149299675    -1.6707743688    -0.0000593759
   13      C      -1.7826967362    -0.8134623828     0.0000174969
   14      C      -0.4587030160    -1.3989209478     0.0000831300
   15      O      -0.2553863828    -2.6720492937     0.0001056247
   16      C       0.6096511522    -0.4316592696     0.0000916866
   17      C       1.9545606928    -0.9000862578     0.0000582650
   18      H       3.6628822356     2.0614893963    -0.0002493144
   19      H       1.3096558506     2.9275004065    -0.0001970412
   20      H      -3.4964807525     2.1563555476     0.0000937866
   21      H      -5.4524155112     0.6059954275    -0.0001572744
   22      H      -5.0504981701    -1.8796573852    -0.0001854102
   23      H      -2.7071269713    -2.7366730698     0.0000182711
   24      H       2.0986445891    -1.9743835372     0.0000804265
 ----------------------------------------------------------------

   11   -1148.5635059188      9.03e-06  Convergence criterion met
 Total energy in the final basis set =    -1148.5635059188
    6   -1148.8294897174      3.25e-06  Convergence criterion met
 Total energy in the final basis set =    -1148.8294897174

                    Orbital Energies (a.u.)
 --------------------------------------------------------------

 Alpha MOs
 -- Occupied --
******** -19.0311 -19.0297 -10.2163 -10.1838 -10.1820 -10.1627 -10.1604
-10.1587 -10.1534 -10.1528 -10.1503 -10.1499 -10.1482 -10.1452 -10.1445
-10.1439  -9.4575  -7.2215  -7.2126  -7.2124  -0.9490  -0.9453  -0.8659
 -0.8298  -0.8132  -0.7552  -0.7345  -0.7278  -0.7068  -0.6448  -0.6162
 -0.5911  -0.5672  -0.5331  -0.5132  -0.4995  -0.4497  -0.4491  -0.4385
 -0.4291  -0.4133  -0.4024  -0.3929  -0.3836  -0.3804  -0.3776  -0.3663
 -0.3647  -0.3361  -0.3300  -0.3296  -0.3250  -0.3102  -0.3067  -0.2995
 -0.2436  -0.2336  -0.2325  -0.2209  -0.2137  -0.2062  -0.1162

          Ground-State Mulliken Net Atomic Charges

     Atom                 Charge (a.u.)
  ----------------------------------------
      1 Cl                    0.401394
      2 C                     0.675098
      3 C                    -0.595863
      4 C                    -0.133251
      5 C                     0.213642
      6 C                    -0.393093
      7 O                    -0.690835
      8 C                     0.190871
      9 C                     0.011275
     10 C                    -0.521670
     11 C                    -0.528446
     12 C                     0.035663
     13 C                     0.212085
     14 C                    -0.608234
     15 O                    -0.696610
     16 C                    -0.435521
     17 C                    -0.373471
     18 H                     0.204449
     19 H                     0.165050
     20 H                     0.157395
     21 H                     0.183323
     22 H                     0.183258
     23 H                     0.159578
     24 H                     0.183911
  ----------------------------------------
  Sum of atomic charges =    -2.000000

                    Cartesian Multipole Moments
 -----------------------------------------------------------------
    Charge (ESU x 10^10)
                -9.6064
    Dipole Moment (Debye)
         X       2.9265      Y       0.1666      Z      -0.0026
       Tot       2.9313
    Quadrupole Moments (Debye-Ang)
        XX    -148.6646     XY      11.3707     YY    -165.0370
        XZ       0.0035     YZ      -0.0020     ZZ    -117.2335

 Total job time:  56.74s(wall), 411.13s(cpu)
        *  Thank you very much for using Q-Chem.  Have a nice day.  *
