 Q-Chem 5.4, Q-Chem, Inc., Pleasanton, CA (2021)
 Q-Chem 5.4.0 for Intel X86 EM64T Linux

User input:
--------------------------------------------------------------
$molecule
-2 1
O                 -0.1802510000     -2.5566180000     -0.0677100000
C                 -0.1029380000     -1.2877360000     -0.1695800000
C                 -1.3009190000     -0.4655310000     -0.0176480000
C                 -2.5154350000     -1.0890800000      0.3940980000
C                 -3.6859880000     -0.3685690000      0.5832290000
C                 -3.7077860000      1.0223240000      0.4204470000
C                 -2.5135250000      1.6720150000      0.0628540000
C                 -1.3510570000      0.9467960000     -0.1738900000
S                  0.0497090000      1.8302400000     -0.8358350000
C                  1.4137840000      0.7583830000     -0.4221090000
C                  2.6866280000      1.3177320000     -0.4038750000
C                  3.8268990000      0.5090190000     -0.2556430000
C                  3.6473580000     -0.8681140000     -0.0744950000
C                  2.3756920000     -1.4222510000     -0.0443780000
C                  1.2025820000     -0.6361250000     -0.2423080000
H                 -2.4802930000     -2.1623190000      0.5393820000
H                 -4.6002470000     -0.8887110000      0.8655030000
H                 -4.6238560000      1.5906800000      0.5616600000
H                 -2.5018570000      2.7521440000     -0.0618220000
H                  2.7984570000      2.3910360000     -0.5375920000
H                  4.8214970000      0.9471940000     -0.2859410000
H                  4.5187610000     -1.5098680000      0.0476010000
H                  2.2227820000     -2.4826410000      0.1180540000
$end
$rem
MAX_SCF_CYCLES=200
BASIS  =  6-311++G(d,p)
GUI  =  2
JOB_TYPE  =  SP
METHOD  =  B3LYP
SOLVENT_METHOD = COSMO
$end
$solvent
dielectric 37.219
opticaldielectric 1.43
$end

--------------------------------------------------------------

             Standard Nuclear Orientation (Angstroms)
    I     Atom           X                Y                Z
 ----------------------------------------------------------------
    1      O      -0.0000189002     2.6301208742     0.3560171114
    2      C      -0.0000050081     1.3588181189     0.2549941886
    3      C      -1.2596593463     0.6356454044     0.0982936968
    4      C      -2.4610389548     1.3799454296    -0.0917109005
    5      C      -3.6898699003     0.7614751111    -0.2721823234
    6      C      -3.7911732464    -0.6345183287    -0.3221464897
    7      C      -2.6165186323    -1.3949499626    -0.1873846519
    8      C      -1.3911585532    -0.7789452199     0.0414231371
    9      S       0.0000122339    -1.8289594196     0.4194494490
   10      C       1.3911889897    -0.7789063164     0.0416095999
   11      C       2.6165439109    -1.3949427062    -0.1871700196
   12      C       3.7911784825    -0.6345086260    -0.3220070639
   13      C       3.6898394161     0.7614889552    -0.2723480751
   14      C       2.4609918606     1.3799766377    -0.0920263189
   15      C       1.2596841552     0.6356863598     0.0983659708
   16      H      -2.3664185899     2.4592640734    -0.0743153903
   17      H      -4.5883372582     1.3674230816    -0.3802531068
   18      H      -4.7525488483    -1.1240310422    -0.4573801930
   19      H      -2.6669267585    -2.4802796950    -0.2307124320
   20      H       2.6669353044    -2.4802793296    -0.2304430948
   21      H       4.7525652974    -1.1240139748    -0.4571380618
   22      H       4.5883237124     1.3674103669    -0.3804407688
   23      H       2.3663435602     2.4593010975    -0.0749095289
 ----------------------------------------------------------------

   15    -973.7239380088      3.88e-06  Convergence criterion met
 Total energy in the final basis set =     -973.7239380088
    6    -973.9806766794      8.68e-06  Convergence criterion met
 Total energy in the final basis set =     -973.9806766794

                    Orbital Energies (a.u.)
 --------------------------------------------------------------

 Alpha MOs
 -- Occupied --
-88.8332 -19.0101 -10.1735 -10.1735 -10.1529 -10.1466 -10.1466 -10.1457
-10.1457 -10.1399 -10.1398 -10.1320 -10.1320 -10.1276 -10.1276  -7.9198
 -5.8832  -5.8799  -5.8744  -0.9345  -0.8403  -0.8214  -0.7695  -0.7244
 -0.7197  -0.7094  -0.6683  -0.6095  -0.5803  -0.5630  -0.5485  -0.5100
 -0.4927  -0.4501  -0.4308  -0.4285  -0.4244  -0.4004  -0.3932  -0.3778
 -0.3776  -0.3639  -0.3549  -0.3414  -0.3316  -0.3220  -0.3096  -0.3029
 -0.2951  -0.2777  -0.2360  -0.2218  -0.2187  -0.1942  -0.1900  -0.0764

          Ground-State Mulliken Net Atomic Charges

     Atom                 Charge (a.u.)
  ----------------------------------------
      1 O                    -0.746113
      2 C                    -0.896307
      3 C                     1.527555
      4 C                    -0.118090
      5 C                    -0.526200
      6 C                    -0.406643
      7 C                    -0.336473
      8 C                    -0.510626
      9 S                    -0.913048
     10 C                    -0.510566
     11 C                    -0.335979
     12 C                    -0.407876
     13 C                    -0.525532
     14 C                    -0.119962
     15 C                     1.528245
     16 H                     0.146965
     17 H                     0.172011
     18 H                     0.159432
     19 H                     0.170429
     20 H                     0.170292
     21 H                     0.159392
     22 H                     0.172071
     23 H                     0.147022
  ----------------------------------------
  Sum of atomic charges =    -2.000000

                    Cartesian Multipole Moments
 -----------------------------------------------------------------
    Charge (ESU x 10^10)
                -9.6064
    Dipole Moment (Debye)
         X       0.0040      Y      -8.9559      Z      -1.5830
       Tot       9.0947
    Quadrupole Moments (Debye-Ang)
        XX    -137.1856     XY      -0.0135     YY    -136.4569
        XZ      -0.0005     YZ      -2.8162     ZZ    -113.2615

 Total job time:  70.71s(wall), 477.96s(cpu)
        *  Thank you very much for using Q-Chem.  Have a nice day.  *
