 Q-Chem 5.4, Q-Chem, Inc., Pleasanton, CA (2021)
 Q-Chem 5.4.0 for Intel X86 EM64T Linux

User input:
--------------------------------------------------------------
$molecule
-1 2
C                  3.7294880000     -1.0402640000     -0.3238240000
C                  2.4381860000     -0.2932630000     -0.0802800000
C                  2.4544790000      1.1052460000      0.1314150000
C                  1.2800440000      1.7985620000      0.3550850000
C                  0.0367140000      1.1380230000      0.3792230000
C                 -1.2021750000      1.8985670000      0.6197130000
O                 -1.1925290000      3.1454950000      0.8091340000
C                 -2.4112490000      1.1215540000      0.6225970000
C                 -2.4608190000     -0.2437380000      0.4192570000
C                 -3.7669940000     -0.9931390000      0.4361350000
C                 -1.2603980000     -1.0156510000      0.1809130000
O                 -1.2942530000     -2.2646390000     -0.0063680000
C                  0.0055020000     -0.2647280000      0.1683570000
C                  1.2183940000     -0.9488310000     -0.0578180000
H                  4.2496490000     -0.6656750000     -1.2138120000
H                  4.4221030000     -0.9327780000      0.5198060000
H                  3.5448370000     -2.1074040000     -0.4698410000
H                  3.4031730000      1.6371670000      0.1172500000
H                  1.2793980000      2.8706610000      0.5186480000
H                 -3.3292210000      1.6774920000      0.7996290000
H                 -3.7615940000     -1.7737760000      1.2048110000
H                 -4.6059790000     -0.3170440000      0.6239550000
H                 -3.9346990000     -1.5109420000     -0.5146730000
H                  1.1579450000     -2.0208950000     -0.2153760000
$end

$rem
BASIS  =  6-311++G(d,p)
GUI  =  2
JOB_TYPE  =  SP
METHOD  =  B3LYP
SCF_CONVERGENCE  = 8
SOLVENT_METHOD = sm12
$end

$smx
solvent dimethylformamide
charges CM5
$end

--------------------------------------------------------------

             Standard Nuclear Orientation (Angstroms)
    I     Atom           X                Y                Z
 ----------------------------------------------------------------
    1      C       3.7294880000    -1.0402640000    -0.3238240000
    2      C       2.4381860000    -0.2932630000    -0.0802800000
    3      C       2.4544790000     1.1052460000     0.1314150000
    4      C       1.2800440000     1.7985620000     0.3550850000
    5      C       0.0367140000     1.1380230000     0.3792230000
    6      C      -1.2021750000     1.8985670000     0.6197130000
    7      O      -1.1925290000     3.1454950000     0.8091340000
    8      C      -2.4112490000     1.1215540000     0.6225970000
    9      C      -2.4608190000    -0.2437380000     0.4192570000
   10      C      -3.7669940000    -0.9931390000     0.4361350000
   11      C      -1.2603980000    -1.0156510000     0.1809130000
   12      O      -1.2942530000    -2.2646390000    -0.0063680000
   13      C       0.0055020000    -0.2647280000     0.1683570000
   14      C       1.2183940000    -0.9488310000    -0.0578180000
   15      H       4.2496490000    -0.6656750000    -1.2138120000
   16      H       4.4221030000    -0.9327780000     0.5198060000
   17      H       3.5448370000    -2.1074040000    -0.4698410000
   18      H       3.4031730000     1.6371670000     0.1172500000
   19      H       1.2793980000     2.8706610000     0.5186480000
   20      H      -3.3292210000     1.6774920000     0.7996290000
   21      H      -3.7615940000    -1.7737760000     1.2048110000
   22      H      -4.6059790000    -0.3170440000     0.6239550000
   23      H      -3.9346990000    -1.5109420000    -0.5146730000
   24      H       1.1579450000    -2.0208950000    -0.2153760000
 ----------------------------------------------------------------

   17    -613.9836147240      7.59e-09  Convergence criterion met
 Total energy in the final basis set =     -614.0726158383

                    Orbital Energies (a.u.)
 --------------------------------------------------------------

 Alpha MOs
 -- Occupied --
-19.0765 -19.0756 -10.2231 -10.2206 -10.1895 -10.1798 -10.1791 -10.1790
-10.1777 -10.1767 -10.1742 -10.1724 -10.1676 -10.1647  -0.9994  -0.9970
 -0.8663  -0.8194  -0.7780  -0.7574  -0.7187  -0.6870  -0.6640  -0.6099
 -0.5970  -0.5622  -0.5083  -0.4952  -0.4745  -0.4483  -0.4374  -0.4342
 -0.4272  -0.4229  -0.4103  -0.3983  -0.3932  -0.3884  -0.3874  -0.3732
 -0.3723  -0.3510  -0.3443  -0.3414  -0.2742  -0.2617  -0.2495  -0.2435
 -0.2364  -0.1545

 Beta MOs
 -- Occupied --
-19.0698 -19.0692 -10.2220 -10.2191 -10.1892 -10.1796 -10.1790 -10.1785
-10.1762 -10.1760 -10.1741 -10.1725 -10.1677 -10.1633  -0.9880  -0.9854
 -0.8646  -0.8144  -0.7766  -0.7560  -0.7153  -0.6857  -0.6567  -0.6088
 -0.5939  -0.5595  -0.5063  -0.4929  -0.4720  -0.4473  -0.4360  -0.4276
 -0.4253  -0.4203  -0.4047  -0.3916  -0.3900  -0.3873  -0.3857  -0.3714
 -0.3494  -0.3479  -0.3399  -0.3340  -0.2556  -0.2446  -0.2440  -0.2373
 -0.2304

          Ground-State Mulliken Net Atomic Charges

     Atom                 Charge (a.u.)    Spin (a.u.)
  --------------------------------------------------------
      1 C                     1.720092      -0.000221
      2 C                     2.408621       0.018151
      3 C                     0.978772       0.030530
      4 C                    -0.369212       0.013611
      5 C                    -1.168466       0.039700
      6 C                    -1.718676       0.061406
      7 O                    -0.359599       0.233787
      8 C                    -0.711567       0.112077
      9 C                     0.585283       0.106124
     10 C                     0.782982       0.009833
     11 C                    -2.021087       0.085344
     12 O                    -0.311967       0.254618
     13 C                    -1.910761       0.013530
     14 C                    -0.995193       0.025308
     15 H                     0.243681       0.001546
     16 H                     0.243384       0.001534
     17 H                     0.334135       0.000110
     18 H                     0.321455      -0.002227
     19 H                     0.160067      -0.002496
     20 H                     0.115341      -0.010409
     21 H                     0.190027       0.005641
     22 H                     0.268506      -0.000042
     23 H                     0.190051       0.005695
     24 H                     0.024132      -0.003149
  --------------------------------------------------------
  Sum of atomic charges =    -1.000000

                    Cartesian Multipole Moments
 -----------------------------------------------------------------
    Charge (ESU x 10^10)
                -4.8032
    Dipole Moment (Debye)
         X       5.7334      Y      -2.7605      Z      -2.0023
       Tot       6.6710
    Quadrupole Moments (Debye-Ang)
        XX     -90.5250     XY       2.0811     YY    -121.8739
        XZ       1.7251     YZ      -5.8740     ZZ     -89.9834

 Total job time:  493.27s(wall), 3146.52s(cpu)
        *  Thank you very much for using Q-Chem.  Have a nice day.  *
