 Gaussian 16, Revision A.03,
 Gaussian 16:  ES64L-G16RevA.03 25-Dec-2016

 ----------------------------------------------------------------
 #P UB3LYP/6-311++G(d,p) SCRF=(PCM,Solvent=n,n-DiMethylFormamide)
 ----------------------------------------------------------------

 ------------------
 Radical PCM in DMF
 ------------------
 Symbolic Z-matrix:
 Charge = -1 Multiplicity = 2

                         Standard orientation:
 ---------------------------------------------------------------------
 Center     Atomic      Atomic             Coordinates (Angstroms)
 Number     Number       Type             X           Y           Z
 ---------------------------------------------------------------------
      1          6           0        0.805023    1.207222   -0.000024
      2          6           0       -0.642733    1.217873    0.000136
      3          6           0       -1.449183    0.106147    0.000091
      4          6           0       -0.804962   -1.207269   -0.000090
      5          6           0        0.642634   -1.217879   -0.000122
      6          6           0        1.449168   -0.106087   -0.000044
      7          8           0        1.447939    2.301275   -0.000154
      8          8           0       -1.448058   -2.301224   -0.000137
      9          6           0        2.984762   -0.199987    0.000025
     10          6           0        3.550021    0.495171    1.262560
     11          6           0        3.485313   -1.656808   -0.000079
     12          6           0        3.550201    0.495470   -1.262297
     13          6           0       -2.984710    0.199968    0.000071
     14          6           0       -3.485186    1.656769    0.000069
     15          6           0       -3.550174   -0.495452    1.262421
     16          6           0       -3.550063   -0.495219   -1.262455
     17          1           0       -1.063143    2.217026    0.000137
     18          1           0        1.063239   -2.216966   -0.000078
     19          1           0        3.237080    1.538657    1.291806
     20          1           0        4.646638    0.448562    1.263916
     21          1           0        3.188610   -0.004536    2.167541
     22          1           0        3.146368   -2.203848    0.884560
     23          1           0        4.580972   -1.664434    0.000396
     24          1           0        3.147091   -2.203388   -0.885290
     25          1           0        4.646807    0.448329   -1.263670
     26          1           0        3.188518   -0.003715   -2.167433
     27          1           0        3.237861    1.539166   -1.290966
     28          1           0       -3.145923    2.203739   -0.884507
     29          1           0       -3.147194    2.203475    0.885302
     30          1           0       -4.580849    1.664534   -0.000681
     31          1           0       -3.188243    0.003516    2.167588
     32          1           0       -3.238062   -1.539213    1.290991
     33          1           0       -4.646759   -0.448029    1.263984
     34          1           0       -3.188558    0.004330   -2.167479
     35          1           0       -4.646670   -0.448289   -1.263839
     36          1           0       -3.237490   -1.538841   -1.291518
 ---------------------------------------------------------------------

 SCF Done:  E(UB3LYP) =  -696.308492686     A.U. after   17 cycles

 The electronic state is 2-A.
 Alpha  occ. eigenvalues --  -19.06729 -19.06728 -10.21074 -10.21073 -10.17898
 Alpha  occ. eigenvalues --  -10.17897 -10.16357 -10.16356 -10.15041 -10.15040
 Alpha  occ. eigenvalues --  -10.14910 -10.14909 -10.14406 -10.14406 -10.14406
 Alpha  occ. eigenvalues --  -10.14406  -0.99002  -0.98749  -0.83092  -0.81600
 Alpha  occ. eigenvalues --   -0.78104  -0.72040  -0.68027  -0.67774  -0.67340
 Alpha  occ. eigenvalues --   -0.67335  -0.66505  -0.60608  -0.56683  -0.54033
 Alpha  occ. eigenvalues --   -0.50960  -0.47458  -0.46402  -0.45228  -0.43097
 Alpha  occ. eigenvalues --   -0.42842  -0.42716  -0.42562  -0.41134  -0.40730
 Alpha  occ. eigenvalues --   -0.40481  -0.39152  -0.39072  -0.37440  -0.36760
 Alpha  occ. eigenvalues --   -0.36473  -0.36228  -0.35408  -0.35119  -0.34780
 Alpha  occ. eigenvalues --   -0.33113  -0.32538  -0.32444  -0.32270  -0.31967
 Alpha  occ. eigenvalues --   -0.31374  -0.26857  -0.24123  -0.23068  -0.22461
 Alpha  occ. eigenvalues --   -0.15306
 Alpha virt. eigenvalues --   -0.00476   0.00165   0.00304   0.01368   0.01396
 Alpha virt. eigenvalues --    0.02179   0.02522   0.02726   0.03543   0.03688
 Alpha virt. eigenvalues --    0.03815   0.03874   0.04475   0.05174   0.05192

  Beta  occ. eigenvalues --  -19.06044 -19.06044 -10.20918 -10.20917 -10.17904
  Beta  occ. eigenvalues --  -10.17904 -10.16241 -10.16240 -10.14949 -10.14948
  Beta  occ. eigenvalues --  -10.14910 -10.14910 -10.14399 -10.14399 -10.14399
  Beta  occ. eigenvalues --  -10.14399  -0.97807  -0.97523  -0.82719  -0.81509
  Beta  occ. eigenvalues --   -0.77805  -0.71818  -0.67798  -0.67752  -0.67316
  Beta  occ. eigenvalues --   -0.67311  -0.65679  -0.60320  -0.56329  -0.53913
  Beta  occ. eigenvalues --   -0.50691  -0.47289  -0.46151  -0.45168  -0.42950
  Beta  occ. eigenvalues --   -0.42803  -0.42519  -0.42407  -0.41070  -0.40186
  Beta  occ. eigenvalues --   -0.39644  -0.38594  -0.38510  -0.37428  -0.36423
  Beta  occ. eigenvalues --   -0.36165  -0.35777  -0.35158  -0.34830  -0.33040
  Beta  occ. eigenvalues --   -0.32945  -0.32349  -0.32179  -0.32058  -0.31918
  Beta  occ. eigenvalues --   -0.31315  -0.23694  -0.23379  -0.22456  -0.21884
  Beta virt. eigenvalues --   -0.08103  -0.00462   0.00306   0.01383   0.01389
  Beta virt. eigenvalues --    0.01612   0.02199   0.02526   0.02735   0.03710
  Beta virt. eigenvalues --    0.03819   0.03905   0.04489   0.05157   0.05193

 Mulliken charges and spin densities:
               1          2
     1  C   -0.950541   0.099447
     2  C   -0.396928   0.054205
     3  C    1.116890   0.108605
     4  C   -0.950199   0.099498
     5  C   -0.397075   0.054324
     6  C    1.116947   0.108763
     7  O   -0.455080   0.244854
     8  O   -0.455096   0.244864
     9  C    0.574704  -0.018465
    10  C   -0.684426   0.012067
    11  C   -0.549575  -0.002815
    12  C   -0.684325   0.012068
    13  C    0.574627  -0.018425
    14  C   -0.549562  -0.002814
    15  C   -0.684397   0.012059
    16  C   -0.684379   0.012055
    17  H    0.188266  -0.008489
    18  H    0.188251  -0.008495
    19  H    0.176647  -0.001876
    20  H    0.145609   0.000436
    21  H    0.130932   0.000970
    22  H    0.132698  -0.000324
    23  H    0.169156  -0.000069
    24  H    0.132725  -0.000323
    25  H    0.145629   0.000435
    26  H    0.130937   0.000972
    27  H    0.176617  -0.001875
    28  H    0.132680  -0.000324
    29  H    0.132744  -0.000322
    30  H    0.169157  -0.000069
    31  H    0.130951   0.000972
    32  H    0.176595  -0.001872
    33  H    0.145645   0.000432
    34  H    0.130943   0.000971
    35  H    0.145610   0.000433
    36  H    0.176623  -0.001873
 Sum of Mulliken charges =  -1.00000   1.00000

 Dipole moment (field-independent basis, Debye):
    X=              0.0002    Y=              0.0001    Z=              0.0008  Tot=              0.0008
 Quadrupole moment (field-independent basis, Debye-Ang):
   XX=           -115.6936   YY=           -133.4525   ZZ=           -106.3840
   XY=            -17.8474   XZ=              0.0010   YZ=             -0.0001

 Normal termination of Gaussian 16 at Sun Jan 21 07:30:41 2024.
