 Gaussian 16, Revision A.03,
 Gaussian 16:  ES64L-G16RevA.03 25-Dec-2016

 ----------------------------------------------------------------------
 #P UB3LYP/6-311++G(d,p) nosym opt freq SCRF=(PCM,Solvent=n,n-DiMethylF
 ormamide)
 ----------------------------------------------------------------------

 --------
 Oxidized
 --------
 Symbolic Z-matrix:
 Charge =  0 Multiplicity = 1

 SCF Done:  E(UB3LYP) =  -853.456003676     A.U. after   14 cycles
 SCF Done:  E(UB3LYP) =  -853.456023911     A.U. after   11 cycles
 SCF Done:  E(UB3LYP) =  -853.456047196     A.U. after   10 cycles
 SCF Done:  E(UB3LYP) =  -853.456066434     A.U. after   10 cycles
 SCF Done:  E(UB3LYP) =  -853.456083566     A.U. after   10 cycles
 SCF Done:  E(UB3LYP) =  -853.456096664     A.U. after   12 cycles
 SCF Done:  E(UB3LYP) =  -853.456168495     A.U. after   12 cycles
 SCF Done:  E(UB3LYP) =  -853.456167816     A.U. after   12 cycles
 SCF Done:  E(UB3LYP) =  -853.456194921     A.U. after   12 cycles
 SCF Done:  E(UB3LYP) =  -853.456214833     A.U. after   11 cycles
 SCF Done:  E(UB3LYP) =  -853.456211729     A.U. after   11 cycles
 SCF Done:  E(UB3LYP) =  -853.456217189     A.U. after   12 cycles
 SCF Done:  E(UB3LYP) =  -853.456225120     A.U. after   12 cycles
 SCF Done:  E(UB3LYP) =  -853.456225920     A.U. after    9 cycles
 SCF Done:  E(UB3LYP) =  -853.456226239     A.U. after   12 cycles
 SCF Done:  E(UB3LYP) =  -853.456227208     A.U. after   11 cycles
 SCF Done:  E(UB3LYP) =  -853.456226981     A.U. after   11 cycles
 SCF Done:  E(UB3LYP) =  -853.456227339     A.U. after   11 cycles
 Optimization completed.
    -- Stationary point found.
 Normal termination of Gaussian 16 at Sat Feb 10 15:31:20 2024.

 ----------------------------------------------------------------------
 #P Geom=AllCheck Guess=TCheck SCRF=Check GenChk UB3LYP/6-311++G(d,p) F
 req
 ----------------------------------------------------------------------

 Structure from the checkpoint file:  "054.chk"
 --------
 Oxidized
 --------
 Charge =  0 Multiplicity = 1

                          Input orientation:
 ---------------------------------------------------------------------
 Center     Atomic      Atomic             Coordinates (Angstroms)
 Number     Number       Type             X           Y           Z
 ---------------------------------------------------------------------
      1          6           0       -0.569324    2.055930    0.223434
      2          6           0       -1.850875    1.288862    0.057782
      3          6           0       -1.799041   -0.063904    0.085548
      4          6           0       -0.467910   -0.737343    0.243158
      5          6           0        0.813461    0.031109    0.109298
      6          6           0        0.766903    1.384023    0.077671
      7          8           0       -0.614508    3.253855    0.484131
      8          8           0       -0.426209   -1.942948    0.460147
      9          6           0        1.945837    2.347350   -0.051547
     10          6           0        2.927419    2.305058    1.136710
     11          6           0        2.657637    2.251033   -1.416781
     12          6           0        2.101944   -0.778869    0.039276
     13          6           0        2.429962   -1.506100    1.360757
     14          6           0        2.136109   -1.742626   -1.164753
     15          6           0       -3.094783    2.163962   -0.088072
     16          6           0       -4.095363    2.039702    1.078470
     17          6           0       -3.769401    2.027569   -1.468755
     18          6           0       -3.023630   -0.965035   -0.010865
     19          6           0       -2.962776   -1.927427   -1.214921
     20          6           0       -3.325929   -1.715637    1.303582
     21          1           0        1.494461    3.338967   -0.020054
     22          1           0        3.634789    3.135168    1.051172
     23          1           0        3.507234    1.381538    1.182479
     24          1           0        2.395744    2.415891    2.085373
     25          1           0        3.204475    1.315835   -1.551624
     26          1           0        3.376308    3.070598   -1.508494
     27          1           0        1.941456    2.341922   -2.237723
     28          1           0        2.905617   -0.064800   -0.121869
     29          1           0        2.423487   -0.811942    2.205433
     30          1           0        3.431021   -1.942653    1.294352
     31          1           0        1.717850   -2.304577    1.565639
     32          1           0        1.409764   -2.548299   -1.057692
     33          1           0        3.132256   -2.187428   -1.244635
     34          1           0        1.931269   -1.213953   -2.099969
     35          1           0       -2.718387    3.185722   -0.039880
     36          1           0       -4.856796    2.819697    0.985763
     37          1           0       -3.592662    2.176536    2.039459
     38          1           0       -4.610670    1.077881    1.102703
     39          1           0       -4.546208    2.791192   -1.568920
     40          1           0       -4.240657    1.054836   -1.622366
     41          1           0       -3.045656    2.180259   -2.273748
     42          1           0       -3.873001   -0.310651   -0.189813
     43          1           0       -3.922986   -2.441431   -1.316593
     44          1           0       -2.183873   -2.679861   -1.091335
     45          1           0       -2.775227   -1.384576   -2.145638
     46          1           0       -4.291131   -2.223463    1.216309
     47          1           0       -3.387410   -1.023906    2.148024
     48          1           0       -2.562250   -2.460779    1.523377
 ---------------------------------------------------------------------

 SCF Done:  E(UB3LYP) =  -853.456227339     A.U. after    1 cycles

 Alpha  occ. eigenvalues --  -19.13290 -19.12781 -10.27792 -10.27597 -10.20568
 Alpha  occ. eigenvalues --  -10.20564 -10.20480 -10.20477 -10.18636 -10.18630
 Alpha  occ. eigenvalues --  -10.18470 -10.18467 -10.16328 -10.16326 -10.16263
 Alpha  occ. eigenvalues --  -10.16259 -10.15905 -10.15902 -10.15826 -10.15826
 Alpha  occ. eigenvalues --   -1.06480  -1.06118  -0.86579  -0.84160  -0.79898
 Alpha  occ. eigenvalues --   -0.79696  -0.78025  -0.73889  -0.69122  -0.69103
 Alpha  occ. eigenvalues --   -0.68871  -0.68536  -0.68516  -0.65159  -0.62380
 Alpha  occ. eigenvalues --   -0.59156  -0.57993  -0.56189  -0.55608  -0.51790
 Alpha  occ. eigenvalues --   -0.48660  -0.48204  -0.46106  -0.45940  -0.45228
 Alpha  occ. eigenvalues --   -0.44293  -0.44285  -0.43802  -0.43465  -0.42697
 Alpha  occ. eigenvalues --   -0.42667  -0.42406  -0.42074  -0.41354  -0.41071
 Alpha  occ. eigenvalues --   -0.40085  -0.38949  -0.38759  -0.38502  -0.37565
 Alpha  occ. eigenvalues --   -0.36323  -0.35933  -0.35591  -0.35442  -0.35304
 Alpha  occ. eigenvalues --   -0.35170  -0.34666  -0.34516  -0.34346  -0.34322
 Alpha  occ. eigenvalues --   -0.32508  -0.32461  -0.28743  -0.28062  -0.26491
 Alpha  occ. eigenvalues --   -0.25604
 Alpha virt. eigenvalues --   -0.12073  -0.01622  -0.01134  -0.00527  -0.00152
 Alpha virt. eigenvalues --    0.00288   0.00934   0.01446   0.01649   0.01861
 Alpha virt. eigenvalues --    0.02500   0.02544   0.03426   0.03901   0.03974

  Beta  occ. eigenvalues --  -19.13290 -19.12781 -10.27792 -10.27597 -10.20568
  Beta  occ. eigenvalues --  -10.20564 -10.20480 -10.20477 -10.18636 -10.18630
  Beta  occ. eigenvalues --  -10.18470 -10.18467 -10.16328 -10.16326 -10.16263
  Beta  occ. eigenvalues --  -10.16259 -10.15905 -10.15902 -10.15826 -10.15826
  Beta  occ. eigenvalues --   -1.06480  -1.06118  -0.86579  -0.84160  -0.79898
  Beta  occ. eigenvalues --   -0.79696  -0.78025  -0.73889  -0.69122  -0.69103
  Beta  occ. eigenvalues --   -0.68871  -0.68536  -0.68516  -0.65159  -0.62380
  Beta  occ. eigenvalues --   -0.59156  -0.57993  -0.56189  -0.55608  -0.51790
  Beta  occ. eigenvalues --   -0.48660  -0.48204  -0.46106  -0.45940  -0.45228
  Beta  occ. eigenvalues --   -0.44293  -0.44285  -0.43802  -0.43465  -0.42697
  Beta  occ. eigenvalues --   -0.42667  -0.42406  -0.42074  -0.41354  -0.41071
  Beta  occ. eigenvalues --   -0.40085  -0.38949  -0.38759  -0.38502  -0.37565
  Beta  occ. eigenvalues --   -0.36323  -0.35933  -0.35591  -0.35442  -0.35304
  Beta  occ. eigenvalues --   -0.35170  -0.34666  -0.34516  -0.34346  -0.34322
  Beta  occ. eigenvalues --   -0.32508  -0.32461  -0.28743  -0.28062  -0.26491
  Beta  occ. eigenvalues --   -0.25604
  Beta virt. eigenvalues --   -0.12073  -0.01622  -0.01134  -0.00527  -0.00152
  Beta virt. eigenvalues --    0.00288   0.00934   0.01446   0.01649   0.01861
  Beta virt. eigenvalues --    0.02500   0.02544   0.03426   0.03901   0.03974

 Mulliken charges and spin densities:
               1          2
     1  C   -1.496056  -0.000000
     2  C    0.835943   0.000000
     3  C    0.835097   0.000000
     4  C   -1.249547  -0.000000
     5  C    0.839546   0.000000
     6  C    0.842585   0.000000
     7  O   -0.212984   0.000000
     8  O   -0.182148   0.000000
     9  C    0.082150  -0.000000
    10  C   -0.727196  -0.000000
    11  C   -0.723495  -0.000000
    12  C    0.427237  -0.000000
    13  C   -0.719435   0.000000
    14  C   -0.777276   0.000000
    15  C    0.082286   0.000000
    16  C   -0.728413  -0.000000
    17  C   -0.722495   0.000000
    18  C    0.427795  -0.000000
    19  C   -0.777143  -0.000000
    20  C   -0.720438   0.000000
    21  H    0.228875   0.000000
    22  H    0.162034  -0.000000
    23  H    0.154471  -0.000000
    24  H    0.173773   0.000000
    25  H    0.156808  -0.000000
    26  H    0.162779   0.000000
    27  H    0.152897   0.000000
    28  H    0.158688   0.000000
    29  H    0.138455  -0.000000
    30  H    0.166429  -0.000000
    31  H    0.186211   0.000000
    32  H    0.180241   0.000000
    33  H    0.167353  -0.000000
    34  H    0.142796  -0.000000
    35  H    0.229227   0.000000
    36  H    0.162086  -0.000000
    37  H    0.173292   0.000000
    38  H    0.154614  -0.000000
    39  H    0.162568   0.000000
    40  H    0.157171  -0.000000
    41  H    0.152958  -0.000000
    42  H    0.158814   0.000000
    43  H    0.167366  -0.000000
    44  H    0.180067   0.000000
    45  H    0.142661  -0.000000
    46  H    0.166518  -0.000000
    47  H    0.138581  -0.000000
    48  H    0.186254   0.000000
 Sum of Mulliken charges =  -0.00000  -0.00000

 Dipole moment (field-independent basis, Debye):
    X=              0.0043    Y=              0.1605    Z=             -1.4773  Tot=              1.4860
 Quadrupole moment (field-independent basis, Debye-Ang):
   XX=           -112.2676   YY=           -140.7494   ZZ=           -126.7504
   XY=              0.9648   XZ=              0.9151   YZ=             -1.6940

  Exact polarizability: 297.816  -2.346 362.912   0.477  -0.776 242.083
 Approx polarizability: 298.974  -5.376 447.451   0.395  -1.638 259.557

                      1                      2                      3
                      A                      A                      A
 Frequencies --     18.2375                28.4776                48.6031
 Red. masses --      3.7468                 3.1823                 4.9383
 Frc consts  --      0.0007                 0.0015                 0.0069
 IR Inten    --      4.5590                 0.0045                 3.3008

                      4                      5                      6
                      A                      A                      A
 Frequencies --     58.7199                75.0068                83.9229
 Red. masses --      2.4562                 3.2173                 3.0572
 Frc consts  --      0.0050                 0.0107                 0.0127
 IR Inten    --      0.0142                 1.2698                 2.2742

                      7                      8                      9
                      A                      A                      A
 Frequencies --     98.3698               149.5068               154.9606
 Red. masses --      2.5713                 2.0180                 2.9677
 Frc consts  --      0.0147                 0.0266                 0.0420
 IR Inten    --      0.0293                 1.8281                 1.3762

                     10                     11                     12
                      A                      A                      A
 Frequencies --    156.6796               180.8600               183.2777
 Red. masses --      1.9723                 2.8488                 2.5540
 Frc consts  --      0.0285                 0.0549                 0.0505
 IR Inten    --      0.0076                 0.4064                 0.4927

                     13                     14                     15
                      A                      A                      A
 Frequencies --    194.7057               199.5383               207.5092
 Red. masses --      1.2302                 1.1237                 1.2300
 Frc consts  --      0.0275                 0.0264                 0.0312
 IR Inten    --      0.3437                 0.0076                 0.3899

                     16                     17                     18
                      A                      A                      A
 Frequencies --    208.8442               216.3185               218.9649
 Red. masses --      1.2426                 1.1478                 1.1133
 Frc consts  --      0.0319                 0.0316                 0.0314
 IR Inten    --      0.2520                 0.1139                 0.1449

                     19                     20                     21
                      A                      A                      A
 Frequencies --    223.9786               225.1640               226.6754
 Red. masses --      2.1176                 1.2828                 1.3673
 Frc consts  --      0.0626                 0.0383                 0.0414
 IR Inten    --      0.0355                 0.0778                 1.2532

                     22                     23                     24
                      A                      A                      A
 Frequencies --    242.1123               249.2985               256.6347
 Red. masses --      2.3512                 2.5234                 2.8797
 Frc consts  --      0.0812                 0.0924                 0.1117
 IR Inten    --      0.0586                 1.9178                 0.0310

                     25                     26                     27
                      A                      A                      A
 Frequencies --    295.5330               295.8937               320.7162
 Red. masses --      2.7951                 3.7570                 3.0464
 Frc consts  --      0.1438                 0.1938                 0.1846
 IR Inten    --      0.3002                 0.7544                 3.1237

                     28                     29                     30
                      A                      A                      A
 Frequencies --    372.1724               410.2434               435.4547
 Red. masses --      4.4916                 2.5695                 5.3576
 Frc consts  --      0.3666                 0.2548                 0.5986
 IR Inten    --      0.5477                 0.7599                31.6447

                     31                     32                     33
                      A                      A                      A
 Frequencies --    440.4028               443.1906               455.4378
 Red. masses --      2.8908                 2.7133                 3.3721
 Frc consts  --      0.3303                 0.3140                 0.4121
 IR Inten    --      0.6278                 0.9715                11.2089

                     34                     35                     36
                      A                      A                      A
 Frequencies --    501.0989               511.1420               520.8078
 Red. masses --      5.5157                 5.4253                 2.9154
 Frc consts  --      0.8160                 0.8351                 0.4659
 IR Inten    --      0.1916                 4.4230                 3.2824

                     37                     38                     39
                      A                      A                      A
 Frequencies --    527.1213               552.0278               607.4768
 Red. masses --      4.5691                 3.8523                 3.2307
 Frc consts  --      0.7480                 0.6917                 0.7024
 IR Inten    --      9.2045                 0.8531                 0.5602

                     40                     41                     42
                      A                      A                      A
 Frequencies --    681.5886               729.5049               776.2560
 Red. masses --      6.5703                 6.1243                 8.6014
 Frc consts  --      1.7984                 1.9203                 3.0537
 IR Inten    --      0.5101                18.2340                34.6904

                     43                     44                     45
                      A                      A                      A
 Frequencies --    801.4485               820.0933               848.0646
 Red. masses --      2.8485                 3.3637                 3.6200
 Frc consts  --      1.0780                 1.3329                 1.5340
 IR Inten    --     41.4869                 3.0646                 0.7482

                     46                     47                     48
                      A                      A                      A
 Frequencies --    850.7252               872.2446               915.5603
 Red. masses --      6.9693                 3.0582                 2.3857
 Frc consts  --      2.9718                 1.3709                 1.1783
 IR Inten    --      6.8206                 0.1522                38.6672

                     49                     50                     51
                      A                      A                      A
 Frequencies --    928.1904               929.7393               930.4790
 Red. masses --      2.2266                 1.1712                 1.2249
 Frc consts  --      1.1302                 0.5965                 0.6248
 IR Inten    --      1.4935                 0.1698                 5.6540

                     52                     53                     54
                      A                      A                      A
 Frequencies --    938.6213               939.0010               954.6413
 Red. masses --      1.2109                 1.2155                 2.4562
 Frc consts  --      0.6286                 0.6315                 1.3188
 IR Inten    --      0.1292                 0.0513                 2.4935

                     55                     56                     57
                      A                      A                      A
 Frequencies --    964.9329               965.1178               968.9163
 Red. masses --      1.4973                 1.5057                 1.4401
 Frc consts  --      0.8214                 0.8263                 0.7965
 IR Inten    --      0.2879                 0.1958                 0.1851

                     58                     59                     60
                      A                      A                      A
 Frequencies --    969.4265              1001.3061              1080.4703
 Red. masses --      1.4452                 2.4795                 2.0500
 Frc consts  --      0.8002                 1.4647                 1.4100
 IR Inten    --      0.0690                20.4309               182.5057

                     61                     62                     63
                      A                      A                      A
 Frequencies --   1108.9784              1113.9305              1115.0749
 Red. masses --      2.5936                 1.7047                 2.6211
 Frc consts  --      1.8793                 1.2463                 1.9202
 IR Inten    --      0.4176                16.0238                17.8512

                     64                     65                     66
                      A                      A                      A
 Frequencies --   1119.8256              1121.1038              1131.0941
 Red. masses --      2.5314                 2.5526                 1.8124
 Frc consts  --      1.8703                 1.8903                 1.3662
 IR Inten    --      1.3133                 2.8787                31.4796

                     67                     68                     69
                      A                      A                      A
 Frequencies --   1135.7765              1182.7053              1187.7396
 Red. masses --      1.8812                 1.9760                 2.1079
 Frc consts  --      1.4298                 1.6285                 1.7520
 IR Inten    --      0.5844                11.5204                14.7946

                     70                     71                     72
                      A                      A                      A
 Frequencies --   1195.6018              1197.9545              1244.1649
 Red. masses --      2.0892                 2.1038                 6.8882
 Frc consts  --      1.7596                 1.7788                 6.2822
 IR Inten    --     15.9434                 0.1203               315.9228

                     73                     74                     75
                      A                      A                      A
 Frequencies --   1253.1133              1308.3142              1348.3596
 Red. masses --      3.4189                 4.3502                 1.2674
 Frc consts  --      3.1631                 4.3872                 1.3576
 IR Inten    --     73.2649                45.1841                 0.4112

                     76                     77                     78
                      A                      A                      A
 Frequencies --   1348.9083              1363.7397              1363.8810
 Red. masses --      1.2656                 1.3118                 1.3057
 Frc consts  --      1.3568                 1.4374                 1.4311
 IR Inten    --      0.7723                 5.9154                 4.9870

                     79                     80                     81
                      A                      A                      A
 Frequencies --   1369.6480              1372.0139              1384.7154
 Red. masses --      1.2981                 1.3194                 1.2070
 Frc consts  --      1.4347                 1.4634                 1.3635
 IR Inten    --      1.9773                 2.1425                 5.0269

                     82                     83                     84
                      A                      A                      A
 Frequencies --   1385.2915              1399.3902              1400.5860
 Red. masses --      1.2069                 1.2794                 1.2147
 Frc consts  --      1.3646                 1.4761                 1.4039
 IR Inten    --      9.4870                20.7998                 1.0307

                     85                     86                     87
                      A                      A                      A
 Frequencies --   1401.2887              1401.8583              1403.0369
 Red. masses --      1.2089                 1.2370                 1.2236
 Frc consts  --      1.3986                 1.4323                 1.4192
 IR Inten    --     15.8294                 0.0886                17.4971

                     88                     89                     90
                      A                      A                      A
 Frequencies --   1404.7057              1419.8110              1423.4416
 Red. masses --      1.2846                 1.2243                 1.3048
 Frc consts  --      1.4935                 1.4541                 1.5576
 IR Inten    --      0.5100                 3.9213                 2.2827

                     91                     92                     93
                      A                      A                      A
 Frequencies --   1477.0455              1477.2458              1480.9702
 Red. masses --      1.0419                 1.0420                 1.0421
 Frc consts  --      1.3393                 1.3398                 1.3467
 IR Inten    --      0.8263                 1.9500                 0.0165

                     94                     95                     96
                      A                      A                      A
 Frequencies --   1481.0761              1487.8153              1487.8513
 Red. masses --      1.0420                 1.0480                 1.0480
 Frc consts  --      1.3468                 1.3668                 1.3669
 IR Inten    --      0.0296                 1.8133                27.4344

                     97                     98                     99
                      A                      A                      A
 Frequencies --   1488.1095              1488.6426              1492.8690
 Red. masses --      1.0481                 1.0458                 1.0475
 Frc consts  --      1.3675                 1.3654                 1.3755
 IR Inten    --     16.6423                24.3287                 1.6048

                    100                    101                    102
                      A                      A                      A
 Frequencies --   1493.4534              1494.2875              1494.4872
 Red. masses --      1.0470                 1.0439                 1.0441
 Frc consts  --      1.3759                 1.3734                 1.3739
 IR Inten    --      2.5951                15.3766                14.6270

                    103                    104                    105
                      A                      A                      A
 Frequencies --   1499.9642              1500.1360              1506.9819
 Red. masses --      1.0643                 1.0640                 1.0611
 Frc consts  --      1.4108                 1.4108                 1.4197
 IR Inten    --     19.2843                16.1928                 8.0868

                    106                    107                    108
                      A                      A                      A
 Frequencies --   1507.2919              1634.4319              1664.7457
 Red. masses --      1.0601                 8.0986                12.6575
 Frc consts  --      1.4190                12.7466                20.6678
 IR Inten    --     11.2427                66.6004               910.8030

                    109                    110                    111
                      A                      A                      A
 Frequencies --   1673.1685              1683.6075              3025.5183
 Red. masses --      9.5133                10.4124                 1.0371
 Frc consts  --     15.6914                17.3894                 5.5931
 IR Inten    --      9.8073               143.6339                 2.0702

                    112                    113                    114
                      A                      A                      A
 Frequencies --   3025.5745              3025.8336              3025.8755
 Red. masses --      1.0370                 1.0359                 1.0360
 Frc consts  --      5.5931                 5.5882                 5.5887
 IR Inten    --     38.1940                 0.8656               182.9817

                    115                    116                    117
                      A                      A                      A
 Frequencies --   3028.9918              3029.0998              3029.3039
 Red. masses --      1.0377                 1.0375                 1.0369
 Frc consts  --      5.6092                 5.6089                 5.6064
 IR Inten    --     17.9754                51.7202               130.4592

                    118                    119                    120
                      A                      A                      A
 Frequencies --   3029.9062              3074.7259              3075.3499
 Red. masses --      1.0371                 1.0874                 1.0877
 Frc consts  --      5.6097                 6.0569                 6.0612
 IR Inten    --      1.0729                 8.8703                18.7117

                    121                    122                    123
                      A                      A                      A
 Frequencies --   3082.4214              3082.5393              3083.7371
 Red. masses --      1.1020                 1.1020                 1.1011
 Frc consts  --      6.1689                 6.1693                 6.1692
 IR Inten    --     17.8533                43.4710                55.6120

                    124                    125                    126
                      A                      A                      A
 Frequencies --   3083.8391              3085.2163              3085.2639
 Red. masses --      1.1010                 1.1017                 1.1017
 Frc consts  --      6.1693                 6.1787                 6.1788
 IR Inten    --     76.3061                 1.4418                62.2663

                    127                    128                    129
                      A                      A                      A
 Frequencies --   3086.9130              3087.0416              3100.7507
 Red. masses --      1.1010                 1.1009                 1.1004
 Frc consts  --      6.1814                 6.1815                 6.2334
 IR Inten    --    133.6749                27.4930                 3.7152

                    130                    131                    132
                      A                      A                      A
 Frequencies --   3100.8303              3105.0865              3105.3297
 Red. masses --      1.1005                 1.0929                 1.0925
 Frc consts  --      6.2346                 6.2081                 6.2073
 IR Inten    --     13.8008                 3.2927                43.6310

                    133                    134                    135
                      A                      A                      A
 Frequencies --   3113.2770              3113.5806              3121.6561
 Red. masses --      1.0948                 1.0945                 1.0982
 Frc consts  --      6.2517                 6.2516                 6.3054
 IR Inten    --     10.5217               114.2531                 3.8582

                    136                    137                    138
                      A                      A                      A
 Frequencies --   3122.2405              3136.7967              3137.2339
 Red. masses --      1.0979                 1.0913                 1.0915
 Frc consts  --      6.3058                 6.3263                 6.3297
 IR Inten    --      4.3741                72.0594                28.6407

 - Thermochemistry -
 -------------------
 Temperature   298.150 Kelvin.  Pressure   1.00000 Atm.
 Atom     1 has atomic number  6 and mass  12.00000

 Molecular mass:   276.20893 amu.
 Principal axes and moments of inertia in atomic units:
                           1         2         3
     Eigenvalues --  4064.573296474.158908901.72349
           X            0.99930  -0.03610  -0.00933
           Y            0.03630   0.99909   0.02241
           Z            0.00851  -0.02273   0.99971
 This molecule is an asymmetric top.
 Rotational symmetry number  1.
 Warning -- assumption of classical behavior for rotation
           may cause significant error
 Rotational temperatures (Kelvin)      0.02131     0.01338     0.00973
 Rotational constants (GHZ):           0.44402     0.27876     0.20274
 Zero-point vibrational energy    1105263.2 (Joules/Mol)
                                  264.16425 (Kcal/Mol)
 Warning -- explicit consideration of  39 degrees of freedom as
           vibrations may cause significant error
 Vibrational temperatures:     26.24    40.97    69.93    84.48   107.92
          (Kelvin)            120.75   141.53   215.11   222.95   225.43
                              260.22   263.70   280.14   287.09   298.56
                              300.48   311.23   315.04   322.26   323.96
                              326.14   348.35   358.68   369.24   425.21
                              425.73   461.44   535.47   590.25   626.52
                              633.64   637.65   655.27   720.97   735.42
                              749.33   758.41   794.24   874.02   980.65
                             1049.59  1116.86  1153.11  1179.93  1220.18
                             1224.00  1254.97  1317.29  1335.46  1337.69
                             1338.75  1350.47  1351.01  1373.52  1388.32
                             1388.59  1394.05  1394.79  1440.66  1554.56
                             1595.57  1602.70  1604.34  1611.18  1613.02
                             1627.39  1634.13  1701.65  1708.89  1720.20
                             1723.59  1790.08  1802.95  1882.37  1939.99
                             1940.78  1962.12  1962.32  1970.62  1974.02
                             1992.30  1993.13  2013.41  2015.13  2016.14
                             2016.96  2018.66  2021.06  2042.79  2048.01
                             2125.14  2125.43  2130.79  2130.94  2140.63
                             2140.69  2141.06  2141.82  2147.91  2148.75
                             2149.95  2150.23  2158.11  2158.36  2168.21
                             2168.66  2351.58  2395.20  2407.32  2422.34
                             4353.05  4353.13  4353.50  4353.56  4358.04
                             4358.20  4358.49  4359.36  4423.84  4424.74
                             4434.92  4435.09  4436.81  4436.96  4438.94
                             4439.01  4441.38  4441.56  4461.29  4461.40
                             4467.53  4467.88  4479.31  4479.75  4491.37
                             4492.21  4513.15  4513.78

 Zero-point correction=                           0.420973 (Hartree/Particle)
 Thermal correction to Energy=                    0.444799
 Thermal correction to Enthalpy=                  0.445744
 Thermal correction to Gibbs Free Energy=         0.368249
 Sum of electronic and zero-point Energies=           -853.035255
 Sum of electronic and thermal Energies=              -853.011428
 Sum of electronic and thermal Enthalpies=            -853.010484
 Sum of electronic and thermal Free Energies=         -853.087979

                     E (Thermal)             CV                S
                      KCal/Mol        Cal/Mol-Kelvin    Cal/Mol-Kelvin
 Total                  279.116             88.510            163.102
 Electronic               0.000              0.000              0.000
 Translational            0.889              2.981             42.746
 Rotational               0.889              2.981             33.815
 Vibrational            277.338             82.548             86.540
 Vibration     1          0.593              1.986              6.817
 Vibration     2          0.593              1.984              5.933
 Vibration     3          0.595              1.978              4.873
 Vibration     4          0.596              1.974              4.500
 Vibration     5          0.599              1.966              4.017
 Vibration     6          0.601              1.960              3.797
 Vibration     7          0.604              1.950              3.486
 Vibration     8          0.618              1.903              2.678
 Vibration     9          0.620              1.897              2.610
 Vibration    10          0.620              1.895              2.589
 Vibration    11          0.630              1.866              2.320
 Vibration    12          0.631              1.863              2.295
 Vibration    13          0.635              1.847              2.183
 Vibration    14          0.638              1.841              2.137
 Vibration    15          0.641              1.829              2.065
 Vibration    16          0.642              1.827              2.054
 Vibration    17          0.645              1.816              1.990
 Vibration    18          0.647              1.812              1.968
 Vibration    19          0.649              1.805              1.927
 Vibration    20          0.650              1.803              1.917
 Vibration    21          0.650              1.800              1.905
 Vibration    22          0.658              1.776              1.787
 Vibration    23          0.662              1.764              1.736
 Vibration    24          0.666              1.752              1.685
 Vibration    25          0.690              1.682              1.442
 Vibration    26          0.690              1.681              1.440
 Vibration    27          0.706              1.634              1.306
 Vibration    28          0.744              1.529              1.071
 Vibration    29          0.774              1.448              0.926
 Vibration    30          0.796              1.393              0.841
 Vibration    31          0.800              1.382              0.825
 Vibration    32          0.803              1.376              0.817
 Vibration    33          0.814              1.349              0.779
 Vibration    34          0.856              1.248              0.655
 Vibration    35          0.866              1.225              0.631
 Vibration    36          0.876              1.204              0.608
 Vibration    37          0.882              1.190              0.594
 Vibration    38          0.907              1.135              0.540
 Vibration    39          0.966              1.016              0.437

 Optimization completed.
    -- Stationary point found.
 Normal termination of Gaussian 16 at Sat Feb 10 23:09:43 2024.
