 Q-Chem 5.4, Q-Chem, Inc., Pleasanton, CA (2021)
 Q-Chem 5.4.0 for Intel X86 EM64T Linux

User input:
--------------------------------------------------------------
$molecule
0 1
C                 -1.7950960000      2.7683770000     -0.6688170000
C                 -2.8910110000      1.9328980000     -0.4857120000
C                 -2.6811860000      0.5837730000     -0.2119870000
C                 -0.4948160000      2.2705030000     -0.5724520000
C                 -0.2708430000      0.9090750000     -0.2795430000
C                 -1.3863230000      0.0789740000     -0.1127960000
C                  0.6458080000      3.2085020000     -0.8083570000
C                  2.0770060000      2.6183500000     -0.7606070000
C                  2.1985640000      1.2255920000     -0.4127150000
C                  1.1257020000      0.4063720000     -0.1646730000
O                  0.4706260000      4.3841940000     -1.0342580000
O                  3.0279550000      3.3471060000     -0.9947410000
H                 -1.9200440000      3.8205960000     -0.8940840000
H                 -3.8979830000      2.3259090000     -0.5627420000
H                 -3.5249050000     -0.0836450000     -0.0788130000
H                 -1.2764700000     -0.9814390000      0.0800280000
H                  3.2109950000      0.8514720000     -0.3393370000
N                  1.2917190000     -0.9000220000      0.1767030000
C                  2.5868290000     -1.5367780000      0.3830690000
C                  2.4103280000     -3.0011090000      0.7676580000
H                  0.4891420000     -1.4113760000      0.5021050000
H                  3.1445880000     -1.0032880000      1.1632700000
H                  3.1716590000     -1.4581830000     -0.5394090000
H                  1.8476260000     -3.1024940000      1.7006730000
H                  3.3851930000     -3.4686670000      0.9179220000
H                  1.8884480000     -3.5566120000     -0.0162370000
$end
$rem
MAX_SCF_CYCLES=200
BASIS  =  6-311++G(d,p)
GUI  =  2
JOB_TYPE  =  SP
METHOD  =  B3LYP
SOLVENT_METHOD = COSMO
$end
$solvent
dielectric 37.219
opticaldielectric 1.43
$end

--------------------------------------------------------------

             Standard Nuclear Orientation (Angstroms)
    I     Atom           X                Y                Z
 ----------------------------------------------------------------
    1      C       2.6772477328     1.0030949694     0.0459042941
    2      C       2.5516032548     2.3870864496     0.0089809176
    3      C       1.2816116104     2.9545609268    -0.0557037997
    4      C       1.5475643904     0.1837224783     0.0275446054
    5      C       0.2559902497     0.7484180456    -0.0214547977
    6      C       0.1486371445     2.1437599033    -0.0730714000
    7      C       1.7433604772    -1.2988604587     0.0388640466
    8      C       0.4773437471    -2.1868373239    -0.0482329500
    9      C      -0.7954896107    -1.5119616080    -0.0524813828
   10      C      -0.9334904329    -0.1467793571    -0.0222769446
   11      O       2.8433821500    -1.7980668956     0.1075439300
   12      O       0.6046971615    -3.4002588963    -0.0881983556
   13      H       3.6491843137     0.5263212853     0.0852512735
   14      H       3.4330217558     3.0174015005     0.0227009220
   15      H       1.1667075577     4.0316322464    -0.0976356877
   16      H      -0.8152473582     2.6329758103    -0.1460026619
   17      H      -1.6637072787    -2.1572574359    -0.0650516053
   18      N      -2.1585912506     0.4446348133    -0.0112421678
   19      C      -3.4210836985    -0.2823756563     0.0428285052
   20      C      -4.5984096992     0.6856650478     0.0541095933
   21      H      -2.2073203160     1.4323594481     0.1718554562
   22      H      -3.4455842606    -0.9212968445     0.9347924733
   23      H      -3.4867772259    -0.9441402692    -0.8271835182
   24      H      -4.5654261482     1.3422176392     0.9289125594
   25      H      -5.5381099844     0.1315716922     0.0927806206
   26      H      -4.6105477883     1.3054170676    -0.8465533787
 ----------------------------------------------------------------

    9    -669.2746474167      7.05e-06  Convergence criterion met
 Total energy in the final basis set =     -669.2746474167
    5    -669.3018892541      9.13e-06  Convergence criterion met
 Total energy in the final basis set =     -669.3018892541

                    Orbital Energies (a.u.)
 --------------------------------------------------------------

 Alpha MOs
 -- Occupied --
-19.1412 -19.1148 -14.3618 -10.2810 -10.2635 -10.2592 -10.2202 -10.2152
-10.2062 -10.2005 -10.1975 -10.1966 -10.1935 -10.1737 -10.1683  -1.0800
 -1.0433  -0.9737  -0.8891  -0.8249  -0.7866  -0.7631  -0.7569  -0.6941
 -0.6562  -0.6371  -0.6256  -0.5966  -0.5594  -0.5294  -0.5212  -0.4924
 -0.4812  -0.4757  -0.4703  -0.4597  -0.4527  -0.4491  -0.4365  -0.4190
 -0.4051  -0.3953  -0.3944  -0.3813  -0.3767  -0.3729  -0.3663  -0.3434
 -0.3080  -0.2824  -0.2747  -0.2577  -0.2357

          Ground-State Mulliken Net Atomic Charges

     Atom                 Charge (a.u.)
  ----------------------------------------
      1 C                     0.200184
      2 C                    -0.435383
      3 C                    -0.471643
      4 C                     0.437552
      5 C                     0.394031
      6 C                    -0.156676
      7 C                    -0.561338
      8 C                     0.015387
      9 C                    -0.004376
     10 C                    -0.270738
     11 O                    -0.306116
     12 O                    -0.427141
     13 H                     0.203477
     14 H                     0.223267
     15 H                     0.229402
     16 H                     0.156597
     17 H                     0.242956
     18 N                     0.049790
     19 C                    -0.023068
     20 C                    -0.746354
     21 H                     0.356173
     22 H                     0.193351
     23 H                     0.188686
     24 H                     0.164428
     25 H                     0.176189
     26 H                     0.171366
  ----------------------------------------
  Sum of atomic charges =     0.000000

                    Cartesian Multipole Moments
 -----------------------------------------------------------------
    Charge (ESU x 10^10)
                 0.0000
    Dipole Moment (Debye)
         X      -7.6414      Y      11.7532      Z       0.3123
       Tot      14.0223
    Quadrupole Moments (Debye-Ang)
        XX     -74.9915     XY      14.7358     YY    -103.9725
        XZ      -1.1739     YZ      -0.1597     ZZ     -90.0360

 Total job time:  39.52s(wall), 290.83s(cpu)
        *  Thank you very much for using Q-Chem.  Have a nice day.  *
