 Q-Chem 5.4, Q-Chem, Inc., Pleasanton, CA (2021)
 Q-Chem 5.4.0 for Intel X86 EM64T Linux

User input:
--------------------------------------------------------------
$molecule
-1 2
O                  1.5335600000     -3.0729830000      0.0826760000
C                  1.2985810000     -1.8403530000      0.0442280000
C                  2.3843570000     -0.8593030000     -0.0063870000
C                  3.7244570000     -1.2973250000     -0.0119030000
C                  4.7665660000     -0.3909810000     -0.0593150000
C                  4.4906750000      0.9904550000     -0.1028850000
C                  3.1816520000      1.4351240000     -0.0980590000
C                  2.1037040000      0.5264840000     -0.0499300000
C                  0.7261600000      1.0593780000     -0.0469490000
O                  0.5612410000      2.3053910000     -0.0881410000
C                 -0.3647230000      0.0858420000      0.0029990000
C                 -1.7661200000      0.4879360000      0.0102980000
C                 -2.1982470000      1.8416940000     -0.0295100000
C                 -3.5411530000      2.1770970000     -0.0207370000
C                 -4.5333560000      1.1845650000      0.0281210000
C                 -4.1514960000     -0.1416410000      0.0677160000
C                 -2.7889210000     -0.5167150000      0.0600790000
C                 -2.4219880000     -1.8975780000      0.1018760000
C                 -1.1117260000     -2.2669670000      0.0949160000
C                 -0.0623070000     -1.3073680000      0.0462700000
H                  3.9010210000     -2.3661000000      0.0223490000
H                  5.7948500000     -0.7402600000     -0.0630850000
H                  5.3073680000      1.7054310000     -0.1402560000
H                  2.9417570000      2.4910760000     -0.1309310000
H                 -1.4395740000      2.6078790000     -0.0671650000
H                 -3.8260300000      3.2245340000     -0.0522650000
H                 -5.5847490000      1.4554100000      0.0346660000
H                 -4.9007200000     -0.9277510000      0.1058360000
H                 -3.2102090000     -2.6445530000      0.1392550000
H                 -0.8146280000     -3.3084200000      0.1262370000
$end
$rem
MAX_SCF_CYCLES=200
BASIS  =  6-311++G(d,p)
GUI  =  2
JOB_TYPE  =  SP
METHOD  =  B3LYP
SOLVENT_METHOD = COSMO
$end
$solvent
dielectric 37.219
opticaldielectric 1.43
$end

--------------------------------------------------------------

             Standard Nuclear Orientation (Angstroms)
    I     Atom           X                Y                Z
 ----------------------------------------------------------------
    1      O      -1.7636721158    -2.8260268932    -0.0001324489
    2      C      -1.3912513796    -1.6271220965    -0.0005565611
    3      C      -2.3596164740    -0.5288509744    -0.0002580064
    4      C      -3.7406316633    -0.8126796487    -0.0000597147
    5      C      -4.6740250467     0.2063763816     0.0002733820
    6      C      -4.2441866879     1.5486202335     0.0004690494
    7      C      -2.8933032181     1.8425740240     0.0002587219
    8      C      -1.9245546162     0.8171760981    -0.0001666077
    9      C      -0.4956375789     1.1910856385    -0.0005269617
   10      O      -0.1913403170     2.4112684132     0.0002645461
   11      C       0.4786436829     0.0997246289    -0.0003398794
   12      C       1.9165157517     0.3409098068    -0.0001509248
   13      C       2.4984901294     1.6379390710    -0.0003851497
   14      C       3.8707247251     1.8194352484    -0.0002639098
   15      C       4.7448048227     0.7203640644     0.0001648395
   16      C       4.2158852021    -0.5549598723     0.0004284859
   17      C       2.8196354703    -0.7736745498     0.0002380515
   18      C       2.2993898158    -2.1050324544     0.0004093214
   19      C       0.9557646829    -2.3240178752     0.0001425982
   20      C       0.0211173088    -1.2512126482    -0.0002351116
   21      H      -4.0365329065    -1.8553063714    -0.0001927784
   22      H      -5.7351889499    -0.0245113992     0.0004167871
   23      H      -4.9751531182     2.3519026916     0.0007834218
   24      H      -2.5359158967     2.8652856564     0.0004175546
   25      H       1.8309557577     2.4855473872    -0.0006665872
   26      H       4.2718547786     2.8285773724    -0.0004707459
   27      H       5.8200892228     0.8706655358     0.0002992051
   28      H       4.8717837301    -1.4213060277     0.0007871982
   29      H       2.9984500840    -2.9368832866     0.0007550047
   30      H       0.5431671982    -3.3258341723     0.0001644270
 ----------------------------------------------------------------

    9    -842.6985560391      8.56e-06  Convergence criterion met
 Total energy in the final basis set =     -842.6985560391
    4    -842.7772134066      8.71e-06  Convergence criterion met
 Total energy in the final basis set =     -842.7772134066

                    Orbital Energies (a.u.)
 --------------------------------------------------------------

 Alpha MOs
 -- Occupied --
-19.0829 -19.0793 -10.2309 -10.2291 -10.1870 -10.1833 -10.1809 -10.1756
-10.1754 -10.1743 -10.1742 -10.1738 -10.1724 -10.1718 -10.1717 -10.1714
-10.1703 -10.1703 -10.1681 -10.1628  -1.0108  -1.0078  -0.8738  -0.8592
 -0.8256  -0.7865  -0.7621  -0.7517  -0.7433  -0.7202  -0.6721  -0.6380
 -0.6256  -0.6054  -0.5916  -0.5586  -0.5469  -0.5187  -0.4994  -0.4919
 -0.4726  -0.4636  -0.4519  -0.4375  -0.4290  -0.4277  -0.4260  -0.4213
 -0.4068  -0.4023  -0.3984  -0.3898  -0.3840  -0.3751  -0.3551  -0.3546
 -0.3438  -0.3401  -0.3323  -0.3245  -0.2861  -0.2649  -0.2583  -0.2507
 -0.2506  -0.2375  -0.2249  -0.1495

 Beta MOs
 -- Occupied --
-19.0774 -19.0741 -10.2292 -10.2275 -10.1870 -10.1833 -10.1798 -10.1748
-10.1742 -10.1739 -10.1738 -10.1734 -10.1722 -10.1716 -10.1714 -10.1707
-10.1703 -10.1702 -10.1685 -10.1626  -1.0013  -0.9984  -0.8723  -0.8576
 -0.8236  -0.7835  -0.7605  -0.7499  -0.7418  -0.7186  -0.6649  -0.6365
 -0.6234  -0.6044  -0.5908  -0.5563  -0.5449  -0.5172  -0.4984  -0.4905
 -0.4700  -0.4626  -0.4511  -0.4364  -0.4272  -0.4255  -0.4183  -0.4154
 -0.4053  -0.4008  -0.3962  -0.3840  -0.3741  -0.3639  -0.3543  -0.3473
 -0.3430  -0.3392  -0.3313  -0.3164  -0.2782  -0.2532  -0.2512  -0.2457
 -0.2448  -0.2329  -0.2184

          Ground-State Mulliken Net Atomic Charges

     Atom                 Charge (a.u.)    Spin (a.u.)
  --------------------------------------------------------
      1 O                    -0.472716       0.201956
      2 C                    -0.687560       0.094850
      3 C                     0.127817       0.009110
      4 C                    -0.080280       0.025995
      5 C                    -0.474227       0.023146
      6 C                    -0.482656       0.027996
      7 C                     0.025187       0.021204
      8 C                     0.167716       0.001428
      9 C                    -0.539051       0.106890
     10 O                    -0.439815       0.193705
     11 C                     0.645428       0.089488
     12 C                     0.889599       0.005207
     13 C                    -0.588691       0.013046
     14 C                    -0.552071       0.009053
     15 C                    -0.341489       0.014756
     16 C                    -0.461930       0.009544
     17 C                     0.463729      -0.005007
     18 C                    -0.500838       0.088374
     19 C                    -0.227840      -0.012558
     20 C                     0.663765       0.101213
     21 H                     0.176554      -0.001739
     22 H                     0.205018      -0.002061
     23 H                     0.204849      -0.002291
     24 H                     0.174762      -0.001438
     25 H                     0.156150      -0.004026
     26 H                     0.210316      -0.000790
     27 H                     0.200823      -0.001046
     28 H                     0.171207      -0.001720
     29 H                     0.192390      -0.005065
     30 H                     0.173852       0.000782
  --------------------------------------------------------
  Sum of atomic charges =    -1.000000

                    Cartesian Multipole Moments
 -----------------------------------------------------------------
    Charge (ESU x 10^10)
                -4.8032
    Dipole Moment (Debye)
         X       3.4211      Y       1.0637      Z       0.0010
       Tot       3.5826
    Quadrupole Moments (Debye-Ang)
        XX    -115.3737     XY     -13.0494     YY    -143.9436
        XZ       0.0030     YZ      -0.0053     ZZ    -124.4838

 Total job time:  100.77s(wall), 732.59s(cpu)
        *  Thank you very much for using Q-Chem.  Have a nice day.  *
