 Gaussian 16, Revision A.03,
 Gaussian 16:  ES64L-G16RevA.03 25-Dec-2016

 ----------------------------------------------
 #P UB3LYP/6-311++G(d,p) nosym opt freq SCF=YQC
 ----------------------------------------------

 -------
 Reduced
 -------
 Symbolic Z-matrix:
 Charge = -2 Multiplicity = 1

 SCF Done:  E(UB3LYP) =  -839.355727992     a.u. after    9 cycles
 SCF Done:  E(UB3LYP) =  -839.364687386     A.U. after   33 cycles
 SCF Done:  E(UB3LYP) =  -839.372608268     a.u. after   13 cycles
 SCF Done:  E(UB3LYP) =  -839.410823442     a.u. after   33 cycles
 SCF Done:  E(UB3LYP) =  -839.411365603     A.U. after   29 cycles
 SCF Done:  E(UB3LYP) =  -839.412728852     a.u. after   31 cycles
 SCF Done:  E(UB3LYP) =  -839.414031411     A.U. after   32 cycles
 SCF Done:  E(UB3LYP) =  -839.430951197     a.u. after    8 cycles
 SCF Done:  E(UB3LYP) =  -839.431034258     A.U. after   26 cycles
 SCF Done:  E(UB3LYP) =  -839.434304916     a.u. after   18 cycles
 SCF Done:  E(UB3LYP) =  -839.442515478     a.u. after    3 cycles
 SCF Done:  E(UB3LYP) =  -839.442560909     A.U. after   15 cycles
 SCF Done:  E(UB3LYP) =  -839.442512033     a.u. after    1 cycles
 SCF Done:  E(UB3LYP) =  -839.442564005     A.U. after   15 cycles
 SCF Done:  E(UB3LYP) =  -839.442560237     a.u. after    1 cycles
 SCF Done:  E(UB3LYP) =  -839.442564924     A.U. after   15 cycles
 SCF Done:  E(UB3LYP) =  -839.442559490     a.u. after    1 cycles
 SCF Done:  E(UB3LYP) =  -839.442565049     A.U. after   14 cycles
 Optimization completed.
    -- Stationary point found.
 Normal termination of Gaussian 16 at Fri Dec 22 08:23:25 2023.

 ----------------------------------------------------------------------
 #P Geom=AllCheck Guess=TCheck SCRF=Check GenChk UB3LYP/6-311++G(d,p) F
 req
 ----------------------------------------------------------------------

 Structure from the checkpoint file:  "187-an.chk"
 -------
 Reduced
 -------
 Charge = -2 Multiplicity = 1

                          Input orientation:
 ---------------------------------------------------------------------
 Center     Atomic      Atomic             Coordinates (Angstroms)
 Number     Number       Type             X           Y           Z
 ---------------------------------------------------------------------
      1          8           0       -2.268510   -2.718202   -0.406225
      2          6           0       -2.310397   -1.345561   -0.189761
      3          6           0       -3.542198   -0.737327   -0.078277
      4          6           0       -3.651566    0.666431    0.147347
      5          6           0       -2.500468    1.407153    0.262276
      6          6           0       -1.211993    0.825931    0.157033
      7          6           0       -0.066084    1.698254    0.291969
      8          8           0       -0.187646    2.954001    0.505200
      9          6           0        1.236081    1.060816    0.169401
     10          6           0        2.402551    1.863479    0.294322
     11          6           0        3.654492    1.294356    0.182737
     12          6           0        3.812357   -0.086590   -0.056443
     13          6           0        2.705493   -0.947339   -0.192388
     14          8           0        2.850565   -2.223675   -0.412526
     15          6           0        1.362894   -0.348959   -0.074897
     16          6           0        0.209620   -1.176500   -0.203467
     17          8           0        0.373867   -2.515296   -0.441546
     18          6           0       -1.075504   -0.612184   -0.086080
     19          1           0       -3.184063   -2.991274   -0.524824
     20          1           0       -4.440713   -1.352000   -0.158753
     21          1           0       -4.632892    1.127896    0.230288
     22          1           0       -2.523669    2.477326    0.438266
     23          1           0        2.259434    2.921701    0.477704
     24          1           0        4.543370    1.919771    0.280544
     25          1           0        4.800695   -0.532568   -0.143432
     26          1           0        1.384285   -2.629637   -0.468467
 ---------------------------------------------------------------------

 SCF Done:  E(UB3LYP) =  -839.442565049     a.u. after    1 cycles
 SCF Done:  E(UB3LYP) =  -839.442565049     A.U. after    1 cycles

 Alpha  occ. eigenvalues --  -18.92129 -18.84337 -18.80275 -18.78023  -9.99688
 Alpha  occ. eigenvalues --   -9.95705  -9.95186  -9.94231  -9.93312  -9.92921
 Alpha  occ. eigenvalues --   -9.92066  -9.91668  -9.91365  -9.90584  -9.90436
 Alpha  occ. eigenvalues --   -9.89875  -9.89115  -9.89092  -0.82903  -0.76379
 Alpha  occ. eigenvalues --   -0.70986  -0.69999  -0.60022  -0.57141  -0.52831
 Alpha  occ. eigenvalues --   -0.49606  -0.47750  -0.45647  -0.41355  -0.38686
 Alpha  occ. eigenvalues --   -0.36623  -0.33530  -0.31046  -0.29732  -0.25862
 Alpha  occ. eigenvalues --   -0.24783  -0.24230  -0.21519  -0.20665  -0.19612
 Alpha  occ. eigenvalues --   -0.19206  -0.17693  -0.15698  -0.14899  -0.14221
 Alpha  occ. eigenvalues --   -0.14079  -0.13454  -0.12347  -0.11031  -0.10738
 Alpha  occ. eigenvalues --   -0.09438  -0.09388  -0.08511  -0.07596  -0.06495
 Alpha  occ. eigenvalues --   -0.04145  -0.00884   0.01200   0.01952   0.02319
 Alpha  occ. eigenvalues --    0.04653   0.06282   0.12178
 Alpha virt. eigenvalues --    0.15183   0.16847   0.17489   0.19450   0.19458
 Alpha virt. eigenvalues --    0.21143   0.21238   0.22182   0.22906   0.23573
 Alpha virt. eigenvalues --    0.25142   0.25907   0.26213   0.26410   0.26992

  Beta  occ. eigenvalues --  -18.92129 -18.84337 -18.80275 -18.78023  -9.99688
  Beta  occ. eigenvalues --   -9.95705  -9.95186  -9.94231  -9.93312  -9.92921
  Beta  occ. eigenvalues --   -9.92066  -9.91668  -9.91365  -9.90584  -9.90436
  Beta  occ. eigenvalues --   -9.89875  -9.89115  -9.89092  -0.82903  -0.76379
  Beta  occ. eigenvalues --   -0.70986  -0.69999  -0.60022  -0.57141  -0.52831
  Beta  occ. eigenvalues --   -0.49606  -0.47750  -0.45647  -0.41355  -0.38686
  Beta  occ. eigenvalues --   -0.36623  -0.33530  -0.31046  -0.29732  -0.25862
  Beta  occ. eigenvalues --   -0.24783  -0.24230  -0.21519  -0.20665  -0.19612
  Beta  occ. eigenvalues --   -0.19206  -0.17693  -0.15698  -0.14899  -0.14221
  Beta  occ. eigenvalues --   -0.14079  -0.13454  -0.12347  -0.11031  -0.10738
  Beta  occ. eigenvalues --   -0.09438  -0.09388  -0.08511  -0.07596  -0.06495
  Beta  occ. eigenvalues --   -0.04145  -0.00884   0.01200   0.01952   0.02319
  Beta  occ. eigenvalues --    0.04653   0.06282   0.12178
  Beta virt. eigenvalues --    0.15183   0.16847   0.17489   0.19450   0.19458
  Beta virt. eigenvalues --    0.21143   0.21238   0.22182   0.22906   0.23573
  Beta virt. eigenvalues --    0.25142   0.25907   0.26213   0.26410   0.26992

 Mulliken charges and spin densities:
               1          2
     1  O   -0.221012  -0.000000
     2  C   -0.081933  -0.000000
     3  C   -0.276517   0.000000
     4  C   -0.415127  -0.000000
     5  C   -0.048337  -0.000000
     6  C    0.319560   0.000000
     7  C   -0.599899   0.000000
     8  O   -0.485319  -0.000000
     9  C    0.428944  -0.000000
    10  C   -0.169297   0.000000
    11  C   -0.296827  -0.000000
    12  C   -0.155565  -0.000000
    13  C   -0.548993   0.000000
    14  O   -0.563880  -0.000000
    15  C    0.460474   0.000000
    16  C   -0.074348  -0.000000
    17  O   -0.523720  -0.000000
    18  C    0.083400   0.000000
    19  H    0.216854   0.000000
    20  H    0.017377  -0.000000
    21  H    0.082849   0.000000
    22  H    0.121644  -0.000000
    23  H    0.114326  -0.000000
    24  H    0.070407  -0.000000
    25  H    0.072043   0.000000
    26  H    0.472896   0.000000
 Sum of Mulliken charges =  -2.00000   0.00000

 Dipole moment (field-independent basis, Debye):
    X=             -6.2287    Y=             -1.2415    Z=             -0.2409  Tot=              6.3558
 Quadrupole moment (field-independent basis, Debye-Ang):
   XX=           -166.2834   YY=           -163.8722   ZZ=           -118.3728
   XY=             14.2389   XZ=              3.3186   YZ=             -7.7854

  Exact polarizability: 395.262  10.700 243.991   0.145  21.459 125.531
 Approx polarizability: 653.491   8.885 458.833  -2.121  47.435 190.618

                      1                      2                      3
                      A                      A                      A
 Frequencies --     54.3315                60.5500                97.9611
 Red. masses --      6.5683                 6.6576                11.0000
 Frc consts  --      0.0114                 0.0144                 0.0622
 IR Inten    --      2.9011                 1.3297                 0.9582

                      4                      5                      6
                      A                      A                      A
 Frequencies --    161.3680               195.2404               208.3841
 Red. masses --      7.1943                 4.7121                 5.5715
 Frc consts  --      0.1104                 0.1058                 0.1425
 IR Inten    --      0.1621                 0.6309                13.2263

                      7                      8                      9
                      A                      A                      A
 Frequencies --    214.5088               252.7527               295.5148
 Red. masses --      1.4502                 3.3290                 3.5733
 Frc consts  --      0.0393                 0.1253                 0.1839
 IR Inten    --     45.7690                 9.2015                 7.7635

                     10                     11                     12
                      A                      A                      A
 Frequencies --    318.0433               348.3838               358.3326
 Red. masses --      7.2466                 8.4062                10.0914
 Frc consts  --      0.4319                 0.6011                 0.7634
 IR Inten    --      7.2406                 3.3784                 0.5610

                     13                     14                     15
                      A                      A                      A
 Frequencies --    380.6930               408.9754               443.4955
 Red. masses --      7.7629                 6.5779                 7.9213
 Frc consts  --      0.6629                 0.6482                 0.9180
 IR Inten    --      0.2547                32.5035                 3.1869

                     16                     17                     18
                      A                      A                      A
 Frequencies --    482.6532               487.9552               500.3449
 Red. masses --      4.3735                11.0315                 6.4521
 Frc consts  --      0.6003                 1.5475                 0.9517
 IR Inten    --      3.3792                 5.5044                 5.5369

                     19                     20                     21
                      A                      A                      A
 Frequencies --    530.4860               546.8125               586.9498
 Red. masses --      4.7513                 8.1594                 4.0094
 Frc consts  --      0.7878                 1.4374                 0.8138
 IR Inten    --      9.0037                 3.5802                 1.9856

                     22                     23                     24
                      A                      A                      A
 Frequencies --    594.7285               599.3547               609.9623
 Red. masses --      5.3997                 3.4427                 7.0792
 Frc consts  --      1.1253                 0.7286                 1.5518
 IR Inten    --      2.7921                18.7227                34.5871

                     25                     26                     27
                      A                      A                      A
 Frequencies --    669.4671               692.8169               700.7267
 Red. masses --      1.4455                 6.2872                 1.5003
 Frc consts  --      0.3817                 1.7781                 0.4340
 IR Inten    --     51.1651                 4.0947                 0.9407

                     28                     29                     30
                      A                      A                      A
 Frequencies --    711.7907               736.6772               759.9464
 Red. masses --      1.6958                 3.6592                 2.4565
 Frc consts  --      0.5062                 1.1700                 0.8359
 IR Inten    --     79.7853                 0.4668                 8.5782

                     31                     32                     33
                      A                      A                      A
 Frequencies --    785.8668               800.2467               811.6131
 Red. masses --      6.4117                 2.3922                 4.8916
 Frc consts  --      2.3330                 0.9026                 1.8985
 IR Inten    --     11.1705                 6.2480                 1.1739

                     34                     35                     36
                      A                      A                      A
 Frequencies --    820.0444               903.0397               913.9521
 Red. masses --      8.4599                 1.2193                 6.2789
 Frc consts  --      3.3519                 0.5858                 3.0902
 IR Inten    --     34.2843                 1.5993                11.1969

                     37                     38                     39
                      A                      A                      A
 Frequencies --    937.2794               974.9866               980.7371
 Red. masses --      1.2711                 6.2502                 1.0541
 Frc consts  --      0.6579                 3.5006                 0.5974
 IR Inten    --      2.1159               175.6338                65.0616

                     40                     41                     42
                      A                      A                      A
 Frequencies --   1040.8402              1056.0466              1065.7051
 Red. masses --      3.7599                 2.6273                 1.7202
 Frc consts  --      2.3999                 1.7263                 1.1511
 IR Inten    --      9.1853                50.6184               163.9055

                     43                     44                     45
                      A                      A                      A
 Frequencies --   1110.7753              1135.3404              1152.6469
 Red. masses --      3.1024                 1.3746                 1.1900
 Frc consts  --      2.2553                 1.0439                 0.9315
 IR Inten    --     61.1720                81.6160                 1.2184

                     46                     47                     48
                      A                      A                      A
 Frequencies --   1192.5291              1220.0992              1240.7690
 Red. masses --      1.7585                 3.6920                 2.9498
 Frc consts  --      1.4734                 3.2382                 2.6757
 IR Inten    --     46.3736               124.0602               123.2837

                     49                     50                     51
                      A                      A                      A
 Frequencies --   1242.7277              1295.9226              1314.7728
 Red. masses --      2.1920                 2.9743                 5.0816
 Frc consts  --      1.9946                 2.9430                 5.1755
 IR Inten    --    197.7070                69.5291                28.9339

                     52                     53                     54
                      A                      A                      A
 Frequencies --   1333.3834              1362.5500              1394.7654
 Red. masses --      5.9468                 3.9857                 3.8248
 Frc consts  --      6.2294                 4.3598                 4.3839
 IR Inten    --     80.7929               172.3353                43.3735

                     55                     56                     57
                      A                      A                      A
 Frequencies --   1412.8597              1449.7386              1460.9251
 Red. masses --      2.8847                 4.2700                 3.1210
 Frc consts  --      3.3927                 5.2876                 3.9247
 IR Inten    --    128.1349               246.9209               269.1529

                     58                     59                     60
                      A                      A                      A
 Frequencies --   1487.9362              1507.2040              1526.2915
 Red. masses --      3.3720                 5.1003                 5.3607
 Frc consts  --      4.3985                 6.8264                 7.3578
 IR Inten    --    403.3464               279.0267               115.1068

                     61                     62                     63
                      A                      A                      A
 Frequencies --   1567.9861              1577.7120              1600.8373
 Red. masses --      5.5380                 5.6485                 6.3360
 Frc consts  --      8.0221                 8.2839                 9.5666
 IR Inten    --     55.4565                27.6902               100.9621

                     64                     65                     66
                      A                      A                      A
 Frequencies --   1670.3181              2757.6934              3070.2263
 Red. masses --      1.4455                 1.0806                 1.0852
 Frc consts  --      2.3761                 4.8416                 6.0269
 IR Inten    --     33.5182               751.6247               140.0008

                     67                     68                     69
                      A                      A                      A
 Frequencies --   3070.8073              3118.9240              3124.0308
 Red. masses --      1.0848                 1.0888                 1.0898
 Frc consts  --      6.0269                 6.2401                 6.2667
 IR Inten    --     53.2469                88.6278               115.6756

                     70                     71                     72
                      A                      A                      A
 Frequencies --   3167.8167              3177.4610              3809.2930
 Red. masses --      1.0911                 1.0902                 1.0651
 Frc consts  --      6.4513                 6.4853                 9.1061
 IR Inten    --     33.4975                29.6973                 2.0623

 - Thermochemistry -
 -------------------
 Temperature   298.150 Kelvin.  Pressure   1.00000 Atm.
 Atom     1 has atomic number  8 and mass  15.99491

 Molecular mass:   240.04226 amu.
 Principal axes and moments of inertia in atomic units:
                           1         2         3
     Eigenvalues --  2480.618894794.284667274.75428
           X            0.99528  -0.09635   0.01185
           Y            0.09698   0.98124  -0.16660
           Z            0.00442   0.16697   0.98595
 This molecule is an asymmetric top.
 Rotational symmetry number  1.
 Warning -- assumption of classical behavior for rotation
           may cause significant error
 Rotational temperatures (Kelvin)      0.03492     0.01807     0.01191
 Rotational constants (GHZ):           0.72754     0.37644     0.24808
 Zero-point vibrational energy     476436.2 (Joules/Mol)
                                  113.87098 (Kcal/Mol)
 Warning -- explicit consideration of  24 degrees of freedom as
           vibrations may cause significant error
 Vibrational temperatures:     78.17    87.12   140.94   232.17   280.91
          (Kelvin)            299.82   308.63   363.65   425.18   457.59
                              501.25   515.56   547.73   588.42   638.09
                              694.43   702.06   719.88   763.25   786.74
                              844.49   855.68   862.34   877.60   963.21
                              996.81  1008.19  1024.11  1059.91  1093.39
                             1130.69  1151.38  1167.73  1179.86  1299.27
                             1314.97  1348.54  1402.79  1411.06  1497.54
                             1519.42  1533.31  1598.16  1633.50  1658.40
                             1715.78  1755.45  1785.19  1788.01  1864.54
                             1891.66  1918.44  1960.41  2006.76  2032.79
                             2085.85  2101.95  2140.81  2168.53  2195.99
                             2255.98  2269.98  2303.25  2403.22  3967.71
                             4417.37  4418.21  4487.44  4494.78  4557.78
                             4571.66  5480.72

 Zero-point correction=                           0.181465 (Hartree/Particle)
 Thermal correction to Energy=                    0.195109
 Thermal correction to Enthalpy=                  0.196053
 Thermal correction to Gibbs Free Energy=         0.141405
 Sum of electronic and zero-point Energies=           -839.261100
 Sum of electronic and thermal Energies=              -839.247456
 Sum of electronic and thermal Enthalpies=            -839.246512
 Sum of electronic and thermal Free Energies=         -839.301160

                     E (Thermal)             CV                S
                      KCal/Mol        Cal/Mol-Kelvin    Cal/Mol-Kelvin
 Total                  122.433             55.584            115.016
 Electronic               0.000              0.000              0.000
 Translational            0.889              2.981             42.328
 Rotational               0.889              2.981             32.825
 Vibrational            120.655             49.622             39.863
 Vibration     1          0.596              1.976              4.653
 Vibration     2          0.597              1.973              4.439
 Vibration     3          0.603              1.951              3.494
 Vibration     4          0.622              1.890              2.534
 Vibration     5          0.636              1.847              2.177
 Vibration     6          0.642              1.828              2.058
 Vibration     7          0.644              1.819              2.005
 Vibration     8          0.664              1.758              1.711
 Vibration     9          0.690              1.682              1.442
 Vibration    10          0.704              1.639              1.320
 Vibration    11          0.726              1.579              1.173
 Vibration    12          0.733              1.558              1.129
 Vibration    13          0.750              1.511              1.036
 Vibration    14          0.773              1.451              0.930
 Vibration    15          0.803              1.375              0.816
 Vibration    16          0.839              1.289              0.703
 Vibration    17          0.844              1.277              0.689
 Vibration    18          0.856              1.249              0.657
 Vibration    19          0.885              1.183              0.586
 Vibration    20          0.902              1.147              0.551
 Vibration    21          0.944              1.060              0.473
 Vibration    22          0.952              1.043              0.459
 Vibration    23          0.957              1.033              0.451
 Vibration    24          0.969              1.011              0.433

 Optimization completed.
    -- Stationary point found.
 Normal termination of Gaussian 16 at Fri Dec 22 08:52:02 2023.
