 Gaussian 16, Revision A.03,
 Gaussian 16:  ES64L-G16RevA.03 25-Dec-2016

 ----------------------------------------------------------------
 #P UB3LYP/6-311++G(d,p) SCRF=(PCM,Solvent=n,n-DiMethylFormamide)
 ----------------------------------------------------------------

 ------------------
 Radical PCM in DMF
 ------------------
 Symbolic Z-matrix:
 Charge = -1 Multiplicity = 2

                         Standard orientation:
 ---------------------------------------------------------------------
 Center     Atomic      Atomic             Coordinates (Angstroms)
 Number     Number       Type             X           Y           Z
 ---------------------------------------------------------------------
      1          6           0       -6.306040    2.515711   -1.168321
      2          8           0       -5.136567    1.756370   -0.955491
      3          6           0       -5.232536    0.568521   -0.290052
      4          6           0       -6.446877    0.092606    0.182839
      5          6           0       -6.514789   -1.137217    0.865245
      6          6           0       -5.375324   -1.878766    1.068878
      7          6           0       -4.126572   -1.423702    0.598787
      8          6           0       -2.963645   -2.297102    0.866103
      9          8           0       -3.125691   -3.356964    1.501302
     10          6           0       -1.664264   -1.843615    0.359970
     11          6           0       -0.482926   -2.620329    0.503882
     12          8           0       -0.583792   -3.869408    1.064291
     13          6           0        0.757506   -2.159302    0.059258
     14          6           0        1.948505   -3.100013    0.139496
     15          6           0        3.321647   -2.489423   -0.209279
     16          8           0        3.919406   -1.884119    0.937654
     17          6           0        3.169384   -1.478403   -1.367865
     18          6           0        2.193638   -0.359669   -1.012968
     19          8           0        2.880768    0.421715    0.036548
     20          6           0        2.452726    1.737542    0.217510
     21          6           0        2.951198    2.250256    1.568044
     22          6           0        3.126887    3.785789    1.563952
     23          7           0        2.973171    4.304615    2.926181
     24          6           0        2.188355    4.417556    0.520523
     25          8           0        0.853920    4.152808    0.957386
     26          6           0        2.548555    3.874710   -0.883981
     27          6           0        1.437694    4.031792   -1.922975
     28          8           0        3.026055    2.524143   -0.842268
     29          6           0        0.858987   -0.887607   -0.552493
     30          6           0       -0.292184   -0.127821   -0.764005
     31          8           0       -0.193207    1.055299   -1.406804
     32          6           0       -1.569060   -0.585565   -0.311961
     33          6           0       -2.725137    0.263355   -0.559292
     34          8           0       -2.566515    1.378822   -1.181819
     35          6           0       -4.023174   -0.182270   -0.093909
     36          6           0        4.283790   -3.600619   -0.687058
     37          6           0        5.694201   -3.585213   -0.143170
     38          8           0        3.920008   -4.431674   -1.494005
     39          1           0       -5.983906    3.404366   -1.711879
     40          1           0       -6.775138    2.821081   -0.223872
     41          1           0       -7.044602    1.972182   -1.771961
     42          1           0       -7.354082    0.661375    0.032149
     43          1           0       -7.475331   -1.490784    1.227008
     44          1           0       -5.392222   -2.827240    1.589643
     45          1           0        0.296342   -4.253207    1.114487
     46          1           0        1.780635   -3.945372   -0.539526
     47          1           0        2.058645   -3.510030    1.152764
     48          1           0        3.626237   -0.958149    0.967025
     49          1           0        2.792846   -2.011619   -2.244614
     50          1           0        4.142362   -1.045650   -1.618166
     51          1           0        2.059102    0.304233   -1.866978
     52          1           0        1.366216    1.793366    0.145493
     53          1           0        2.234632    1.961290    2.340759
     54          1           0        3.905335    1.773857    1.805357
     55          1           0        4.147548    4.019381    1.242002
     56          1           0        2.008952    4.178040    3.222663
     57          1           0        3.157968    5.303747    2.948517
     58          1           0        2.345970    5.507407    0.500455
     59          1           0        0.240147    4.214361    0.218416
     60          1           0        3.416611    4.460820   -1.209679
     61          1           0        0.596704    3.366467   -1.715062
     62          1           0        1.820967    3.756887   -2.907646
     63          1           0        1.088013    5.069785   -1.971772
     64          1           0       -1.191613    1.386574   -1.436550
     65          1           0        5.673533   -3.734832    0.939344
     66          1           0        6.274960   -4.368349   -0.630085
     67          1           0        6.152620   -2.605436   -0.298847
 ---------------------------------------------------------------------

 SCF Done:  E(UB3LYP) =  -1853.99649849     A.U. after   22 cycles

 The electronic state is 2-A.
 Alpha  occ. eigenvalues --  -19.15340 -19.14873 -19.14399 -19.13105 -19.12901
 Alpha  occ. eigenvalues --  -19.12618 -19.12165 -19.11656 -19.08994 -19.07332
 Alpha  occ. eigenvalues --  -14.29787 -10.27289 -10.26718 -10.24777 -10.24182
 Alpha  occ. eigenvalues --  -10.23670 -10.23565 -10.23277 -10.23151 -10.22945
 Alpha  occ. eigenvalues --  -10.22891 -10.22569 -10.21848 -10.20601 -10.18754
 Alpha  occ. eigenvalues --  -10.18595 -10.18367 -10.18186 -10.17961 -10.17818
 Alpha  occ. eigenvalues --  -10.17639 -10.17637 -10.17524 -10.17168 -10.17034
 Alpha  occ. eigenvalues --  -10.16801 -10.16274 -10.16179  -1.07627  -1.07258
 Alpha  occ. eigenvalues --   -1.06489  -1.06287  -1.04872  -1.03828  -1.03097
 Alpha  occ. eigenvalues --   -1.01179  -1.00617  -1.00117  -0.89259  -0.86606
 Alpha  occ. eigenvalues --   -0.85582  -0.82411  -0.78806  -0.78217  -0.77338
 Alpha  occ. eigenvalues --   -0.76283  -0.75812  -0.75519  -0.74219  -0.72712
 Alpha  occ. eigenvalues --   -0.70480  -0.69927  -0.67226  -0.66909  -0.64543
 Alpha  occ. eigenvalues --   -0.63952  -0.62021  -0.61328  -0.59846  -0.59197
 Alpha  occ. eigenvalues --   -0.57231  -0.56897  -0.56640  -0.54276  -0.53838
 Alpha  occ. eigenvalues --   -0.53619  -0.53024  -0.52370  -0.50069  -0.49738
 Alpha  occ. eigenvalues --   -0.49526  -0.49160  -0.48676  -0.48234  -0.47703
 Alpha  occ. eigenvalues --   -0.47322  -0.47113  -0.46966  -0.46451  -0.46040
 Alpha  occ. eigenvalues --   -0.45284  -0.44796  -0.44458  -0.43846  -0.43381
 Alpha  occ. eigenvalues --   -0.43325  -0.42920  -0.42436  -0.42142  -0.41622
 Alpha  occ. eigenvalues --   -0.41347  -0.40962  -0.40580  -0.40057  -0.39865
 Alpha  occ. eigenvalues --   -0.39517  -0.39295  -0.38982  -0.38399  -0.37784
 Alpha  occ. eigenvalues --   -0.37666  -0.37526  -0.37187  -0.37030  -0.36788
 Alpha  occ. eigenvalues --   -0.36380  -0.36215  -0.35919  -0.35669  -0.35271
 Alpha  occ. eigenvalues --   -0.34943  -0.34579  -0.33380  -0.33046  -0.32532
 Alpha  occ. eigenvalues --   -0.32152  -0.30642  -0.29715  -0.28877  -0.28066
 Alpha  occ. eigenvalues --   -0.27097  -0.26380  -0.26155  -0.25044  -0.24982
 Alpha  occ. eigenvalues --   -0.24943  -0.23418  -0.23300  -0.21218  -0.14126
 Alpha virt. eigenvalues --   -0.04466  -0.03872  -0.02697  -0.01159  -0.00428
 Alpha virt. eigenvalues --   -0.00273   0.00549   0.00630   0.00983   0.01095
 Alpha virt. eigenvalues --    0.01544   0.01805   0.01914   0.02474   0.03002

  Beta  occ. eigenvalues --  -19.15328 -19.14850 -19.14383 -19.13105 -19.12901
  Beta  occ. eigenvalues --  -19.12618 -19.12165 -19.11619 -19.08529 -19.06814
  Beta  occ. eigenvalues --  -14.29787 -10.27289 -10.26718 -10.24777 -10.24157
  Beta  occ. eigenvalues --  -10.23570 -10.23418 -10.23249 -10.23127 -10.22891
  Beta  occ. eigenvalues --  -10.22828 -10.22569 -10.21848 -10.20600 -10.18642
  Beta  occ. eigenvalues --  -10.18598 -10.18366 -10.18174 -10.17900 -10.17823
  Beta  occ. eigenvalues --  -10.17550 -10.17519 -10.17443 -10.17168 -10.16994
  Beta  occ. eigenvalues --  -10.16800 -10.16287 -10.16179  -1.07608  -1.07220
  Beta  occ. eigenvalues --   -1.06487  -1.06227  -1.04633  -1.03822  -1.03096
  Beta  occ. eigenvalues --   -1.01159  -0.99743  -0.99429  -0.89259  -0.86386
  Beta  occ. eigenvalues --   -0.85420  -0.82297  -0.78696  -0.78018  -0.77330
  Beta  occ. eigenvalues --   -0.76142  -0.75736  -0.75407  -0.74121  -0.72506
  Beta  occ. eigenvalues --   -0.70453  -0.69870  -0.66925  -0.66607  -0.64309
  Beta  occ. eigenvalues --   -0.63920  -0.61967  -0.61265  -0.59698  -0.59095
  Beta  occ. eigenvalues --   -0.57123  -0.56860  -0.56583  -0.54256  -0.53722
  Beta  occ. eigenvalues --   -0.53582  -0.52985  -0.52243  -0.50026  -0.49700
  Beta  occ. eigenvalues --   -0.49484  -0.49031  -0.48622  -0.48161  -0.47662
  Beta  occ. eigenvalues --   -0.47286  -0.47023  -0.46851  -0.46420  -0.45976
  Beta  occ. eigenvalues --   -0.45228  -0.44602  -0.44304  -0.43655  -0.43316
  Beta  occ. eigenvalues --   -0.43224  -0.42811  -0.42155  -0.41866  -0.41470
  Beta  occ. eigenvalues --   -0.41109  -0.40906  -0.40331  -0.39795  -0.39722
  Beta  occ. eigenvalues --   -0.39102  -0.38982  -0.38976  -0.38363  -0.37740
  Beta  occ. eigenvalues --   -0.37633  -0.37398  -0.37007  -0.36741  -0.36340
  Beta  occ. eigenvalues --   -0.36239  -0.35901  -0.35673  -0.35172  -0.34923
  Beta  occ. eigenvalues --   -0.34696  -0.34472  -0.33336  -0.33008  -0.32519
  Beta  occ. eigenvalues --   -0.31677  -0.30134  -0.29504  -0.28864  -0.28039
  Beta  occ. eigenvalues --   -0.26505  -0.26228  -0.25231  -0.25001  -0.24667
  Beta  occ. eigenvalues --   -0.24416  -0.22868  -0.22694  -0.20376
  Beta virt. eigenvalues --   -0.08732  -0.03806  -0.03287  -0.01689  -0.01151
  Beta virt. eigenvalues --   -0.00419  -0.00267   0.00558   0.00636   0.01003
  Beta virt. eigenvalues --    0.01412   0.01564   0.01810   0.01923   0.02490

 Mulliken charges and spin densities:
               1          2
     1  C   -0.259565  -0.000728
     2  O   -0.164423   0.004241
     3  C    0.061984   0.030941
     4  C   -0.163742   0.032072
     5  C   -0.449484   0.065555
     6  C   -0.030863   0.015255
     7  C    0.202628   0.078858
     8  C   -0.513559   0.053683
     9  O   -0.430885   0.195198
    10  C   -0.140145   0.027904
    11  C   -0.307942   0.012933
    12  O   -0.247583   0.005901
    13  C    0.153577   0.078315
    14  C   -0.777268  -0.004679
    15  C    0.476880   0.002228
    16  O   -0.178152  -0.000865
    17  C   -1.226347   0.001585
    18  C    0.078552   0.013379
    19  O    0.102254  -0.001319
    20  C   -0.352010  -0.006112
    21  C   -0.564528   0.003279
    22  C   -0.356649  -0.002622
    23  N   -0.353313   0.000106
    24  C   -0.147553   0.001037
    25  O   -0.234230  -0.000017
    26  C   -0.082438  -0.001612
    27  C   -0.589489   0.000557
    28  O   -0.082813  -0.000491
    29  C    0.484093   0.057256
    30  C   -0.371924   0.004589
    31  O   -0.415912   0.014758
    32  C    0.697613   0.010864
    33  C   -0.467650   0.145281
    34  O   -0.483588   0.170517
    35  C    0.239580  -0.011437
    36  C    0.161598   0.000466
    37  C   -0.516683   0.000037
    38  O   -0.335294   0.000170
    39  H    0.194391  -0.000156
    40  H    0.155723   0.000623
    41  H    0.156764   0.000582
    42  H    0.180052  -0.002318
    43  H    0.196353  -0.004674
    44  H    0.159647  -0.000758
    45  H    0.325448  -0.000573
    46  H    0.273633   0.005030
    47  H    0.208125   0.002622
    48  H    0.354364   0.000818
    49  H    0.214382   0.000239
    50  H    0.219859   0.000115
    51  H    0.340090   0.001247
    52  H    0.157829   0.001792
    53  H    0.184394  -0.000255
    54  H    0.158394   0.000214
    55  H    0.221816  -0.000066
    56  H    0.260510   0.000028
    57  H    0.266454  -0.000001
    58  H    0.233574  -0.000011
    59  H    0.286795  -0.000176
    60  H    0.203486  -0.000022
    61  H    0.177922   0.000136
    62  H    0.169990  -0.000047
    63  H    0.165246   0.000002
    64  H    0.565401  -0.001472
    65  H    0.190410  -0.000003
    66  H    0.180284  -0.000001
    67  H    0.183934   0.000000
 Sum of Mulliken charges =  -1.00000   1.00000

 Dipole moment (field-independent basis, Debye):
    X=              6.4837    Y=             11.1594    Z=             -2.5872  Tot=             13.1630
 Quadrupole moment (field-independent basis, Debye-Ang):
   XX=           -247.1562   YY=           -250.1432   ZZ=           -248.3926
   XY=            -19.5066   XZ=              5.6249   YZ=             -0.9940

 Normal termination of Gaussian 16 at Tue Jan 16 06:13:54 2024.
