 Q-Chem 5.4, Q-Chem, Inc., Pleasanton, CA (2021)
 Q-Chem 5.4.0 for Intel X86 EM64T Linux

User input:
--------------------------------------------------------------
$molecule
-1 2
C                  4.6082680000      5.0515060000     -1.3404630000
O                  3.9633950000      3.8634860000     -0.9375840000
C                  4.6247990000      2.6765690000     -1.0671090000
C                  5.9097840000      2.6096300000     -1.5858380000
C                  6.5672940000      1.3703300000     -1.7065460000
C                  5.9398490000      0.2132530000     -1.3100260000
C                  4.6351970000      0.2480170000     -0.7769930000
C                  4.0516300000     -1.0506840000     -0.3776060000
O                  4.7077040000     -2.0963850000     -0.5482520000
C                  2.7041790000     -1.0219240000      0.2001160000
C                  2.0584260000     -2.1959350000      0.6736720000
O                  2.7556260000     -3.3783750000      0.6603490000
C                  0.7577460000     -2.1650060000      1.1798190000
C                  0.1853330000     -3.4394180000      1.7782100000
C                 -1.3057730000     -3.3956130000      2.1714860000
O                 -2.1387210000     -3.7273930000      1.0600520000
C                 -1.6578570000     -2.0055860000      2.7472710000
C                 -1.3659480000     -0.8918320000      1.7453030000
O                 -2.3623010000     -1.0805730000      0.6701980000
C                 -2.6417850000      0.0313040000     -0.1254070000
C                 -3.3452420000     -0.4250250000     -1.4029850000
C                 -4.2558620000      0.6835230000     -1.9779940000
N                 -4.3953280000      0.5069430000     -3.4263890000
C                 -3.7384480000      2.0655170000     -1.5408550000
O                 -2.4528020000      2.2297990000     -2.1423390000
C                 -3.7661590000      2.1547070000      0.0045690000
C                 -2.8646510000      3.2432860000      0.5880720000
O                 -3.5153270000      0.8898420000      0.6298500000
C                  0.0494920000     -0.9412160000      1.2294160000
C                  0.6782140000      0.2386510000      0.8296300000
O                  0.0162440000      1.4099600000      0.9418320000
C                  2.0088720000      0.2224290000      0.3067810000
C                  2.5983150000      1.4899160000     -0.0986670000
O                  1.9176140000      2.5739260000      0.0374800000
C                  3.9412270000      1.4858400000     -0.6433090000
C                 -1.5880340000     -4.4397860000      3.2754700000
C                 -2.8289680000     -5.2910370000      3.1313730000
O                 -0.8513920000     -4.5427290000      4.2351130000
H                  3.8963320000      5.8533300000     -1.1425780000
H                  4.8536520000      5.0431960000     -2.4105120000
H                  5.5263640000      5.2353100000     -0.7672320000
H                  6.4198660000      3.5088150000     -1.9028700000
H                  7.5725750000      1.3407920000     -2.1152760000
H                  6.4161570000     -0.7551870000     -1.3896510000
H                  2.1790480000     -4.0761350000      0.9846120000
H                  0.7570630000     -3.6979540000      2.6783020000
H                  0.2792320000     -4.2801150000      1.0772330000
H                 -2.3411730000     -2.9022250000      0.5885200000
H                 -1.0562510000     -1.8408340000      3.6448880000
H                 -2.7144320000     -1.9729750000      3.0286890000
H                 -1.5659360000      0.0797510000      2.1972220000
H                 -1.7235880000      0.5756230000     -0.3477550000
H                 -2.5891590000     -0.7035000000     -2.1411230000
H                 -3.9428130000     -1.3141180000     -1.1883360000
H                 -5.2547070000      0.5760640000     -1.5412710000
H                 -3.4980680000      0.6845200000     -3.8702700000
H                 -5.0494500000      1.1861440000     -3.8054990000
H                 -4.4131770000      2.8462430000     -1.9258580000
H                 -1.9401780000      2.8895650000     -1.6643130000
H                 -4.8062400000      2.3860630000      0.2650120000
H                 -1.8075330000      2.9948220000      0.4701000000
H                 -3.0499320000      3.3309300000      1.6604700000
H                 -3.0722710000      4.2158570000      0.1264590000
H                  0.7213410000      2.1085210000      0.5921250000
H                 -2.7507080000     -5.9076260000      2.2322950000
H                 -2.9413760000     -5.9142690000      4.0182870000
H                 -3.7092530000     -4.6605300000      2.9833720000
$end
$rem
MAX_SCF_CYCLES=200
BASIS  =  6-311++G(d,p)
GUI  =  2
JOB_TYPE  =  SP
METHOD  =  B3LYP
SCF_ALGORITHM = DIIS_GDM
THRESH = 14
SOLVENT_METHOD = PCM
$end
$pcm
theory = CPCM
$end
$solvent
dielectric 37.219
opticaldielectric 1.43
$end

--------------------------------------------------------------

             Standard Nuclear Orientation (Angstroms)
    I     Atom           X                Y                Z
 ----------------------------------------------------------------
    1      C       4.6082680000     5.0515060000    -1.3404630000
    2      O       3.9633950000     3.8634860000    -0.9375840000
    3      C       4.6247990000     2.6765690000    -1.0671090000
    4      C       5.9097840000     2.6096300000    -1.5858380000
    5      C       6.5672940000     1.3703300000    -1.7065460000
    6      C       5.9398490000     0.2132530000    -1.3100260000
    7      C       4.6351970000     0.2480170000    -0.7769930000
    8      C       4.0516300000    -1.0506840000    -0.3776060000
    9      O       4.7077040000    -2.0963850000    -0.5482520000
   10      C       2.7041790000    -1.0219240000     0.2001160000
   11      C       2.0584260000    -2.1959350000     0.6736720000
   12      O       2.7556260000    -3.3783750000     0.6603490000
   13      C       0.7577460000    -2.1650060000     1.1798190000
   14      C       0.1853330000    -3.4394180000     1.7782100000
   15      C      -1.3057730000    -3.3956130000     2.1714860000
   16      O      -2.1387210000    -3.7273930000     1.0600520000
   17      C      -1.6578570000    -2.0055860000     2.7472710000
   18      C      -1.3659480000    -0.8918320000     1.7453030000
   19      O      -2.3623010000    -1.0805730000     0.6701980000
   20      C      -2.6417850000     0.0313040000    -0.1254070000
   21      C      -3.3452420000    -0.4250250000    -1.4029850000
   22      C      -4.2558620000     0.6835230000    -1.9779940000
   23      N      -4.3953280000     0.5069430000    -3.4263890000
   24      C      -3.7384480000     2.0655170000    -1.5408550000
   25      O      -2.4528020000     2.2297990000    -2.1423390000
   26      C      -3.7661590000     2.1547070000     0.0045690000
   27      C      -2.8646510000     3.2432860000     0.5880720000
   28      O      -3.5153270000     0.8898420000     0.6298500000
   29      C       0.0494920000    -0.9412160000     1.2294160000
   30      C       0.6782140000     0.2386510000     0.8296300000
   31      O       0.0162440000     1.4099600000     0.9418320000
   32      C       2.0088720000     0.2224290000     0.3067810000
   33      C       2.5983150000     1.4899160000    -0.0986670000
   34      O       1.9176140000     2.5739260000     0.0374800000
   35      C       3.9412270000     1.4858400000    -0.6433090000
   36      C      -1.5880340000    -4.4397860000     3.2754700000
   37      C      -2.8289680000    -5.2910370000     3.1313730000
   38      O      -0.8513920000    -4.5427290000     4.2351130000
   39      H       3.8963320000     5.8533300000    -1.1425780000
   40      H       4.8536520000     5.0431960000    -2.4105120000
   41      H       5.5263640000     5.2353100000    -0.7672320000
   42      H       6.4198660000     3.5088150000    -1.9028700000
   43      H       7.5725750000     1.3407920000    -2.1152760000
   44      H       6.4161570000    -0.7551870000    -1.3896510000
   45      H       2.1790480000    -4.0761350000     0.9846120000
   46      H       0.7570630000    -3.6979540000     2.6783020000
   47      H       0.2792320000    -4.2801150000     1.0772330000
   48      H      -2.3411730000    -2.9022250000     0.5885200000
   49      H      -1.0562510000    -1.8408340000     3.6448880000
   50      H      -2.7144320000    -1.9729750000     3.0286890000
   51      H      -1.5659360000     0.0797510000     2.1972220000
   52      H      -1.7235880000     0.5756230000    -0.3477550000
   53      H      -2.5891590000    -0.7035000000    -2.1411230000
   54      H      -3.9428130000    -1.3141180000    -1.1883360000
   55      H      -5.2547070000     0.5760640000    -1.5412710000
   56      H      -3.4980680000     0.6845200000    -3.8702700000
   57      H      -5.0494500000     1.1861440000    -3.8054990000
   58      H      -4.4131770000     2.8462430000    -1.9258580000
   59      H      -1.9401780000     2.8895650000    -1.6643130000
   60      H      -4.8062400000     2.3860630000     0.2650120000
   61      H      -1.8075330000     2.9948220000     0.4701000000
   62      H      -3.0499320000     3.3309300000     1.6604700000
   63      H      -3.0722710000     4.2158570000     0.1264590000
   64      H       0.7213410000     2.1085210000     0.5921250000
   65      H      -2.7507080000    -5.9076260000     2.2322950000
   66      H      -2.9413760000    -5.9142690000     4.0182870000
   67      H      -3.7092530000    -4.6605300000     2.9833720000
 ----------------------------------------------------------------

   18   -1854.0112888031      6.31e-06  Convergence criterion met
 Total energy in the final basis set =    -1854.0112888031

                    Orbital Energies (a.u.)
 --------------------------------------------------------------

 Alpha MOs
 -- Occupied --
-19.1529 -19.1476 -19.1425 -19.1278 -19.1268 -19.1247 -19.1202 -19.1173
-19.0915 -19.0753 -14.2940 -10.2714 -10.2650 -10.2452 -10.2414 -10.2379
-10.2337 -10.2326 -10.2317 -10.2310 -10.2249 -10.2211 -10.2142 -10.2015
-10.1870 -10.1822 -10.1820 -10.1799 -10.1799 -10.1785 -10.1767 -10.1760
-10.1742 -10.1690 -10.1678 -10.1642 -10.1624 -10.1571  -1.0747  -1.0719
 -1.0638  -1.0617  -1.0496  -1.0350  -1.0286  -1.0099  -1.0084  -1.0026
 -0.8884  -0.8658  -0.8553  -0.8229  -0.7860  -0.7804  -0.7695  -0.7620
 -0.7555  -0.7536  -0.7402  -0.7263  -0.7011  -0.6969  -0.6717  -0.6672
 -0.6448  -0.6368  -0.6178  -0.6105  -0.5970  -0.5913  -0.5710  -0.5673
 -0.5630  -0.5403  -0.5372  -0.5346  -0.5277  -0.5229  -0.4988  -0.4952
 -0.4929  -0.4900  -0.4843  -0.4817  -0.4749  -0.4702  -0.4690  -0.4681
 -0.4613  -0.4587  -0.4506  -0.4465  -0.4437  -0.4379  -0.4323  -0.4305
 -0.4280  -0.4232  -0.4183  -0.4152  -0.4126  -0.4069  -0.4051  -0.4006
 -0.3966  -0.3930  -0.3916  -0.3861  -0.3807  -0.3757  -0.3745  -0.3740
 -0.3717  -0.3686  -0.3666  -0.3616  -0.3604  -0.3585  -0.3550  -0.3526
 -0.3472  -0.3423  -0.3328  -0.3289  -0.3223  -0.3209  -0.3065  -0.2955
 -0.2870  -0.2777  -0.2709  -0.2622  -0.2605  -0.2519  -0.2490  -0.2476
 -0.2354  -0.2340  -0.2125  -0.1421

 Beta MOs
 -- Occupied --
-19.1528 -19.1473 -19.1423 -19.1278 -19.1268 -19.1247 -19.1202 -19.1169
-19.0870 -19.0703 -14.2940 -10.2714 -10.2650 -10.2452 -10.2412 -10.2353
-10.2337 -10.2323 -10.2314 -10.2297 -10.2249 -10.2211 -10.2142 -10.2015
-10.1858 -10.1821 -10.1821 -10.1799 -10.1794 -10.1786 -10.1756 -10.1752
-10.1734 -10.1686 -10.1678 -10.1642 -10.1625 -10.1571  -1.0745  -1.0715
 -1.0638  -1.0611  -1.0472  -1.0350  -1.0286  -1.0097  -0.9998  -0.9960
 -0.8884  -0.8635  -0.8537  -0.8218  -0.7845  -0.7788  -0.7694  -0.7605
 -0.7547  -0.7525  -0.7394  -0.7243  -0.7007  -0.6964  -0.6675  -0.6652
 -0.6424  -0.6365  -0.6172  -0.6100  -0.5955  -0.5902  -0.5698  -0.5667
 -0.5628  -0.5400  -0.5358  -0.5344  -0.5274  -0.5216  -0.4983  -0.4947
 -0.4921  -0.4891  -0.4839  -0.4810  -0.4744  -0.4699  -0.4679  -0.4668
 -0.4611  -0.4581  -0.4499  -0.4446  -0.4420  -0.4358  -0.4310  -0.4301
 -0.4267  -0.4193  -0.4164  -0.4130  -0.4105  -0.4062  -0.4036  -0.3959
 -0.3952  -0.3899  -0.3888  -0.3860  -0.3804  -0.3753  -0.3737  -0.3726
 -0.3681  -0.3663  -0.3614  -0.3608  -0.3586  -0.3548  -0.3512  -0.3488
 -0.3457  -0.3419  -0.3324  -0.3285  -0.3222  -0.3163  -0.3008  -0.2939
 -0.2869  -0.2774  -0.2635  -0.2609  -0.2531  -0.2485  -0.2475  -0.2439
 -0.2309  -0.2269  -0.2040

          Ground-State Mulliken Net Atomic Charges

     Atom                 Charge (a.u.)    Spin (a.u.)
  --------------------------------------------------------
      1 C                    -0.283813      -0.000658
      2 O                    -0.176322       0.004432
      3 C                     0.059732       0.031239
      4 C                    -0.171354       0.033461
      5 C                    -0.446509       0.063481
      6 C                    -0.038243       0.018340
      7 C                     0.182109       0.075188
      8 C                    -0.465323       0.062449
      9 O                    -0.454308       0.189784
     10 C                    -0.156875       0.022367
     11 C                    -0.298390       0.017249
     12 O                    -0.270896       0.006722
     13 C                     0.155980       0.077568
     14 C                    -0.820220      -0.004660
     15 C                     0.538845       0.002211
     16 O                    -0.206017      -0.000845
     17 C                    -1.287814       0.001633
     18 C                     0.076493       0.012754
     19 O                     0.094743      -0.001113
     20 C                    -0.336730      -0.006028
     21 C                    -0.629314       0.003653
     22 C                    -0.314282      -0.002627
     23 N                    -0.395803       0.000107
     24 C                    -0.151259       0.001064
     25 O                    -0.261623      -0.000027
     26 C                    -0.046690      -0.001642
     27 C                    -0.630587       0.000558
     28 O                    -0.106187      -0.000514
     29 C                     0.492985       0.057582
     30 C                    -0.361023       0.006166
     31 O                    -0.430495       0.015256
     32 C                     0.694993       0.009198
     33 C                    -0.448845       0.148408
     34 O                    -0.503762       0.166153
     35 C                     0.216770      -0.012208
     36 C                     0.194360       0.000455
     37 C                    -0.547828       0.000039
     38 O                    -0.355436       0.000164
     39 H                     0.201938      -0.000150
     40 H                     0.164890       0.000579
     41 H                     0.165984       0.000544
     42 H                     0.201810      -0.002381
     43 H                     0.212798      -0.004515
     44 H                     0.164229      -0.000923
     45 H                     0.345493      -0.000573
     46 H                     0.279945       0.004979
     47 H                     0.230439       0.002586
     48 H                     0.365922       0.000802
     49 H                     0.225647       0.000242
     50 H                     0.233544       0.000125
     51 H                     0.346797       0.001266
     52 H                     0.163985       0.001702
     53 H                     0.196363      -0.000247
     54 H                     0.167825       0.000213
     55 H                     0.230811      -0.000067
     56 H                     0.270565       0.000026
     57 H                     0.280022      -0.000001
     58 H                     0.243553      -0.000010
     59 H                     0.302314      -0.000173
     60 H                     0.214679      -0.000023
     61 H                     0.184538       0.000144
     62 H                     0.174471      -0.000046
     63 H                     0.173583       0.000004
     64 H                     0.569389      -0.001459
     65 H                     0.198434      -0.000002
     66 H                     0.186351      -0.000001
     67 H                     0.192620      -0.000001
  --------------------------------------------------------
  Sum of atomic charges =    -1.000000

                    Cartesian Multipole Moments
 -----------------------------------------------------------------
    Charge (ESU x 10^10)
                -4.8032
    Dipole Moment (Debye)
         X     -12.9314      Y       7.9525      Z      -1.5471
       Tot      15.2597
    Quadrupole Moments (Debye-Ang)
        XX    -270.9228     XY      17.7350     YY    -233.4916
        XZ      -4.4995     YZ      -4.4699     ZZ    -248.1806

 Total job time:  1973.65s(wall), 14009.35s(cpu)
        *  Thank you very much for using Q-Chem.  Have a nice day.  *
