 Gaussian 16, Revision A.03,
 Gaussian 16:  ES64L-G16RevA.03 25-Dec-2016

 ----------------------------------------------------------------
 #P UB3LYP/6-311++G(d,p) SCRF=(PCM,Solvent=n,n-DiMethylFormamide)
 ----------------------------------------------------------------

 ------------------
 Quinone PCM in DMF
 ------------------
 Symbolic Z-matrix:
 Charge =  0 Multiplicity = 1

                         Standard orientation:
 ---------------------------------------------------------------------
 Center     Atomic      Atomic             Coordinates (Angstroms)
 Number     Number       Type             X           Y           Z
 ---------------------------------------------------------------------
      1          6           0       -2.714023   -0.848958    0.129311
      2          6           0       -3.147316    0.566144    0.242966
      3          6           0       -2.276068    1.569460    0.080027
      4          6           0       -0.843421    1.316836   -0.210739
      5          6           0       -0.397785   -0.105326   -0.318100
      6          6           0       -1.286331   -1.103345   -0.181756
      7          8           0       -3.501145   -1.767663    0.284382
      8          8           0       -0.063161    2.240430   -0.373693
      9          1           0       -4.197660    0.729035    0.457457
     10          1           0       -2.562617    2.613300    0.146626
     11          6           0        1.049848   -0.395742   -0.682307
     12          6           0        2.184701   -0.177537    0.340106
     13          6           0        1.675989    0.232765    1.732279
     14          6           0        2.954413   -1.514192    0.442788
     15          6           0        3.118289    0.915001   -0.229467
     16          8           0        1.270903   -0.841493   -1.785794
     17          1           0        1.185146    1.207555    1.718122
     18          1           0        2.523565    0.305943    2.418986
     19          1           0        0.982402   -0.503787    2.147908
     20          1           0        2.326504   -2.307495    0.859992
     21          1           0        3.817129   -1.388506    1.102594
     22          1           0        3.307569   -1.835484   -0.537736
     23          1           0        2.594991    1.867977   -0.327513
     24          1           0        3.496691    0.623158   -1.210892
     25          1           0        3.968985    1.053110    0.444148
     26          1           0       -1.005252   -2.145631   -0.289505
 ---------------------------------------------------------------------

 SCF Done:  E(UB3LYP) =  -652.224510804     A.U. after   15 cycles

 The electronic state is 1-A.
 Alpha  occ. eigenvalues --  -19.15447 -19.15207 -19.14386 -10.30176 -10.29642
 Alpha  occ. eigenvalues --  -10.29040 -10.23257 -10.22406 -10.22055 -10.21959
 Alpha  occ. eigenvalues --  -10.20564 -10.16696 -10.16590 -10.16583  -1.08731
 Alpha  occ. eigenvalues --   -1.08136  -1.07848  -0.87728  -0.83247  -0.80870
 Alpha  occ. eigenvalues --   -0.72684  -0.69654  -0.69525  -0.67517  -0.63495
 Alpha  occ. eigenvalues --   -0.61221  -0.54453  -0.53746  -0.51678  -0.49651
 Alpha  occ. eigenvalues --   -0.48919  -0.47764  -0.46167  -0.45792  -0.45601
 Alpha  occ. eigenvalues --   -0.44485  -0.43660  -0.43177  -0.42138  -0.41836
 Alpha  occ. eigenvalues --   -0.39283  -0.38691  -0.38068  -0.37431  -0.34294
 Alpha  occ. eigenvalues --   -0.34070  -0.32186  -0.31217  -0.30232  -0.29948
 Alpha  occ. eigenvalues --   -0.27071
 Alpha virt. eigenvalues --   -0.14692  -0.06049  -0.03797  -0.01108  -0.00619
 Alpha virt. eigenvalues --    0.00467   0.01037   0.01819   0.02437   0.02566
 Alpha virt. eigenvalues --    0.03712   0.03974   0.04418   0.04683   0.05236

  Beta  occ. eigenvalues --  -19.15447 -19.15207 -19.14386 -10.30176 -10.29642
  Beta  occ. eigenvalues --  -10.29040 -10.23257 -10.22406 -10.22055 -10.21959
  Beta  occ. eigenvalues --  -10.20564 -10.16696 -10.16590 -10.16583  -1.08731
  Beta  occ. eigenvalues --   -1.08136  -1.07848  -0.87728  -0.83247  -0.80870
  Beta  occ. eigenvalues --   -0.72684  -0.69654  -0.69525  -0.67517  -0.63495
  Beta  occ. eigenvalues --   -0.61221  -0.54453  -0.53746  -0.51678  -0.49651
  Beta  occ. eigenvalues --   -0.48919  -0.47764  -0.46167  -0.45792  -0.45601
  Beta  occ. eigenvalues --   -0.44485  -0.43660  -0.43177  -0.42138  -0.41836
  Beta  occ. eigenvalues --   -0.39283  -0.38691  -0.38068  -0.37431  -0.34294
  Beta  occ. eigenvalues --   -0.34070  -0.32186  -0.31217  -0.30232  -0.29948
  Beta  occ. eigenvalues --   -0.27071
  Beta virt. eigenvalues --   -0.14692  -0.06049  -0.03797  -0.01108  -0.00619
  Beta virt. eigenvalues --    0.00467   0.01037   0.01819   0.02437   0.02566
  Beta virt. eigenvalues --    0.03712   0.03974   0.04418   0.04683   0.05236

 Mulliken charges and spin densities:
               1          2
     1  C   -0.522484   0.000000
     2  C    0.238150  -0.000000
     3  C   -0.006540   0.000000
     4  C   -0.878542  -0.000000
     5  C    1.376241   0.000000
     6  C    0.001824  -0.000000
     7  O   -0.269332  -0.000000
     8  O   -0.219602   0.000000
     9  H    0.251888  -0.000000
    10  H    0.251802   0.000000
    11  C   -0.646482   0.000000
    12  C    0.638908  -0.000000
    13  C   -0.659943   0.000000
    14  C   -0.540532   0.000000
    15  C   -0.550107  -0.000000
    16  O   -0.224780  -0.000000
    17  H    0.148112   0.000000
    18  H    0.170717   0.000000
    19  H    0.150238  -0.000000
    20  H    0.157726   0.000000
    21  H    0.163110  -0.000000
    22  H    0.176931   0.000000
    23  H    0.177230   0.000000
    24  H    0.163927   0.000000
    25  H    0.165461  -0.000000
    26  H    0.286076  -0.000000
 Sum of Mulliken charges =  -0.00000   0.00000

 Dipole moment (field-independent basis, Debye):
    X=             -0.0623    Y=              1.3827    Z=              3.3097  Tot=              3.5874
 Quadrupole moment (field-independent basis, Debye-Ang):
   XX=            -82.6537   YY=            -90.1336   ZZ=            -88.6771
   XY=            -12.9584   XZ=              5.5802   YZ=             -0.2741

 Normal termination of Gaussian 16 at Wed Jan 24 22:49:34 2024.
