 Q-Chem 5.4, Q-Chem, Inc., Pleasanton, CA (2021)
 Q-Chem 5.4.0 for Intel X86 EM64T Linux

User input:
--------------------------------------------------------------
$molecule
-1 2
C                 -1.7755410000      2.7813910000     -0.6499010000
C                 -2.8793650000      1.9705980000     -0.4614620000
C                 -2.7006830000      0.5952630000     -0.2143270000
C                 -0.4595480000      2.2760990000     -0.5898460000
C                 -0.2755750000      0.8832000000     -0.3090330000
C                 -1.4199720000      0.0710800000     -0.1452310000
C                  0.6622130000      3.1942340000     -0.8324620000
C                  2.0361980000      2.6099440000     -0.7745310000
C                  2.1404180000      1.2028170000     -0.4388460000
C                  1.0727550000      0.3690170000     -0.2093880000
O                  0.4682310000      4.4063370000     -1.0769250000
O                  3.0599610000      3.2986980000     -0.9814940000
H                 -1.8817580000      3.8402190000     -0.8575840000
H                 -3.8805600000      2.3882510000     -0.5152990000
H                 -3.5602310000     -0.0563230000     -0.0892980000
H                 -1.3058950000     -0.9971380000      0.0084210000
H                  3.1581330000      0.8359950000     -0.3665610000
N                  1.2330800000     -1.0042780000      0.0937240000
C                  2.5526970000     -1.5330360000      0.3929560000
C                  2.4686530000     -3.0146450000      0.7525910000
H                  0.5432270000     -1.3250260000      0.7612790000
H                  3.0476270000     -0.9784630000      1.2084790000
H                  3.1846060000     -1.4076000000     -0.4916570000
H                  1.8533440000     -3.1713620000      1.6458740000
H                  3.4636460000     -3.4173980000      0.9631560000
H                  2.0278480000     -3.5895940000     -0.0664880000
$end
$rem
MAX_SCF_CYCLES=200
BASIS  =  6-311++G(d,p)
GUI  =  2
JOB_TYPE  =  SP
METHOD  =  B3LYP
SOLVENT_METHOD = COSMO
$end
$solvent
dielectric 37.219
opticaldielectric 1.43
$end

--------------------------------------------------------------

             Standard Nuclear Orientation (Angstroms)
    I     Atom           X                Y                Z
 ----------------------------------------------------------------
    1      C       2.6727889684     0.9828070078     0.0727523453
    2      C       2.5658665096     2.3608570823     0.0432981706
    3      C       1.2944570451     2.9600404336    -0.0518155122
    4      C       1.5384949248     0.1451322132     0.0233342762
    5      C       0.2431235793     0.7537647643    -0.0433674840
    6      C       0.1618917692     2.1631910465    -0.0975286454
    7      C       1.7344568260    -1.3114971855     0.0267796878
    8      C       0.5046954570    -2.1572844941    -0.0433372780
    9      C      -0.7703484927    -1.4662760441    -0.0613058703
   10      C      -0.9237803812    -0.1009152349    -0.0561861557
   11      O       2.8799603835    -1.8125924561     0.0843121729
   12      O       0.5585441005    -3.4070969613    -0.0627165553
   13      H       3.6382126420     0.4926325719     0.1294724130
   14      H       3.4576574707     2.9797278606     0.0811362526
   15      H       1.1989865686     4.0405542535    -0.1007502001
   16      H      -0.8046440332     2.6439529716    -0.2088332207
   17      H      -1.6331186459    -2.1228593954    -0.0686057104
   18      N      -2.1948303400     0.5206200311    -0.0967578524
   19      C      -3.3981210083    -0.2739646031     0.0799924400
   20      C      -4.6375378071     0.6177628128     0.0646898074
   21      H      -2.2193921823     1.3632615517     0.4633832930
   22      H      -3.3738240025    -0.8633615360     1.0125188963
   23      H      -3.4588113195    -0.9971097791    -0.7391296967
   24      H      -4.6131254785     1.3444068797     0.8847583046
   25      H      -5.5451396169     0.0186219395     0.1823666401
   26      H      -4.7069492358     1.1716410105    -0.8756116361
 ----------------------------------------------------------------

   11    -669.3335414960      6.97e-06  Convergence criterion met
 Total energy in the final basis set =     -669.3335414960
    5    -669.4348254056      8.28e-06  Convergence criterion met
 Total energy in the final basis set =     -669.4348254056

                    Orbital Energies (a.u.)
 --------------------------------------------------------------

 Alpha MOs
 -- Occupied --
-19.0789 -19.0731 -14.3216 -10.2167 -10.2154 -10.2128 -10.1956 -10.1820
-10.1740 -10.1726 -10.1713 -10.1700 -10.1676 -10.1583 -10.1500  -1.0147
 -0.9877  -0.9338  -0.8576  -0.7981  -0.7592  -0.7365  -0.7257  -0.6726
 -0.6296  -0.6082  -0.5949  -0.5646  -0.5236  -0.4990  -0.4903  -0.4747
 -0.4499  -0.4444  -0.4357  -0.4238  -0.4199  -0.4166  -0.4029  -0.3899
 -0.3802  -0.3751  -0.3671  -0.3591  -0.3492  -0.3465  -0.3356  -0.3195
 -0.2631  -0.2601  -0.2530  -0.2265  -0.2172  -0.1493

 Beta MOs
 -- Occupied --
-19.0723 -19.0684 -14.3204 -10.2152 -10.2131 -10.2109 -10.1957 -10.1808
-10.1742 -10.1723 -10.1705 -10.1698 -10.1672 -10.1583 -10.1508  -1.0046
 -0.9775  -0.9311  -0.8555  -0.7951  -0.7565  -0.7356  -0.7242  -0.6646
 -0.6279  -0.6072  -0.5916  -0.5619  -0.5219  -0.4971  -0.4881  -0.4726
 -0.4483  -0.4425  -0.4342  -0.4218  -0.4131  -0.4046  -0.3993  -0.3878
 -0.3762  -0.3706  -0.3594  -0.3577  -0.3463  -0.3352  -0.3278  -0.3075
 -0.2567  -0.2501  -0.2453  -0.2213  -0.2093

          Ground-State Mulliken Net Atomic Charges

     Atom                 Charge (a.u.)    Spin (a.u.)
  --------------------------------------------------------
      1 C                     0.120415       0.069303
      2 C                    -0.470089       0.004998
      3 C                    -0.460446       0.068788
      4 C                     0.479325       0.014931
      5 C                     0.300154       0.064534
      6 C                    -0.208770      -0.004809
      7 C                    -0.566607       0.146119
      8 C                     0.009860       0.156266
      9 C                    -0.068217      -0.080682
     10 C                    -0.252410       0.098827
     11 O                    -0.531999       0.243339
     12 O                    -0.572183       0.163865
     13 H                     0.179055      -0.004032
     14 H                     0.198891      -0.001379
     15 H                     0.204465      -0.004927
     16 H                     0.161666       0.001970
     17 H                     0.212407       0.002061
     18 N                    -0.008435       0.051928
     19 C                    -0.085650      -0.005042
     20 C                    -0.702619       0.004257
     21 H                     0.253405       0.001098
     22 H                     0.167220       0.007381
     23 H                     0.165335       0.001342
     24 H                     0.150947      -0.000175
     25 H                     0.163263      -0.000378
     26 H                     0.161017       0.000415
  --------------------------------------------------------
  Sum of atomic charges =    -1.000000

                    Cartesian Multipole Moments
 -----------------------------------------------------------------
    Charge (ESU x 10^10)
                -4.8032
    Dipole Moment (Debye)
         X     -10.8873      Y      14.0715      Z       1.0097
       Tot      17.8202
    Quadrupole Moments (Debye-Ang)
        XX    -103.4019     XY      19.8511     YY    -130.0303
        XZ      -2.8754     YZ       1.1779     ZZ     -94.9854

 Total job time:  102.46s(wall), 515.17s(cpu)
        *  Thank you very much for using Q-Chem.  Have a nice day.  *
