 Gaussian 16, Revision A.03,
 Gaussian 16:  ES64L-G16RevA.03 25-Dec-2016

 --------------------------------------
 #P UB3LYP/6-311++G(d,p) nosym opt freq
 --------------------------------------

 -------
 Radical
 -------
 Symbolic Z-matrix:
 Charge = -1 Multiplicity = 2

 SCF Done:  E(UB3LYP) =  -669.331171867     A.U. after   24 cycles
 SCF Done:  E(UB3LYP) =  -669.331179887     A.U. after   13 cycles
 SCF Done:  E(UB3LYP) =  -669.327666280     A.U. after   18 cycles
 SCF Done:  E(UB3LYP) =  -669.331285366     A.U. after   15 cycles
 SCF Done:  E(UB3LYP) =  -669.332207999     A.U. after   17 cycles
 SCF Done:  E(UB3LYP) =  -669.302962930     A.U. after   22 cycles
 SCF Done:  E(UB3LYP) =  -669.332480418     A.U. after   15 cycles
 SCF Done:  E(UB3LYP) =  -669.332722263     A.U. after   15 cycles
 SCF Done:  E(UB3LYP) =  -669.332886347     A.U. after   15 cycles
 SCF Done:  E(UB3LYP) =  -669.333043565     A.U. after   16 cycles
 SCF Done:  E(UB3LYP) =  -669.333226867     A.U. after   15 cycles
 SCF Done:  E(UB3LYP) =  -669.333451512     A.U. after   15 cycles
 SCF Done:  E(UB3LYP) =  -669.333579053     A.U. after   14 cycles
 SCF Done:  E(UB3LYP) =  -669.333615464     A.U. after   14 cycles
 SCF Done:  E(UB3LYP) =  -669.333623921     A.U. after   14 cycles
 SCF Done:  E(UB3LYP) =  -669.333627286     A.U. after   12 cycles
 SCF Done:  E(UB3LYP) =  -669.333630176     A.U. after   13 cycles
 SCF Done:  E(UB3LYP) =  -669.333630570     A.U. after   12 cycles
 SCF Done:  E(UB3LYP) =  -669.333630616     A.U. after   10 cycles
 Optimization completed.
    -- Stationary point found.
 Normal termination of Gaussian 16 at Fri Jan 12 20:21:04 2024.

 ----------------------------------------------------------------------
 #P Geom=AllCheck Guess=TCheck SCRF=Check GenChk UB3LYP/6-311++G(d,p) F
 req
 ----------------------------------------------------------------------

 Structure from the checkpoint file:  "324-rad.chk"
 -------
 Radical
 -------
 Charge = -1 Multiplicity = 2

                          Input orientation:
 ---------------------------------------------------------------------
 Center     Atomic      Atomic             Coordinates (Angstroms)
 Number     Number       Type             X           Y           Z
 ---------------------------------------------------------------------
      1          6           0       -1.775541    2.781391   -0.649901
      2          6           0       -2.879365    1.970598   -0.461462
      3          6           0       -2.700683    0.595263   -0.214327
      4          6           0       -0.459548    2.276099   -0.589846
      5          6           0       -0.275575    0.883200   -0.309033
      6          6           0       -1.419972    0.071080   -0.145231
      7          6           0        0.662213    3.194234   -0.832462
      8          6           0        2.036198    2.609944   -0.774531
      9          6           0        2.140418    1.202817   -0.438846
     10          6           0        1.072755    0.369017   -0.209388
     11          8           0        0.468231    4.406337   -1.076925
     12          8           0        3.059961    3.298698   -0.981494
     13          1           0       -1.881758    3.840219   -0.857584
     14          1           0       -3.880560    2.388251   -0.515299
     15          1           0       -3.560231   -0.056323   -0.089298
     16          1           0       -1.305895   -0.997138    0.008421
     17          1           0        3.158133    0.835995   -0.366561
     18          7           0        1.233080   -1.004278    0.093724
     19          6           0        2.552697   -1.533036    0.392956
     20          6           0        2.468653   -3.014645    0.752591
     21          1           0        0.543227   -1.325026    0.761279
     22          1           0        3.047627   -0.978463    1.208479
     23          1           0        3.184606   -1.407600   -0.491657
     24          1           0        1.853344   -3.171362    1.645874
     25          1           0        3.463646   -3.417398    0.963156
     26          1           0        2.027848   -3.589594   -0.066488
 ---------------------------------------------------------------------

 SCF Done:  E(UB3LYP) =  -669.333630616     A.U. after    2 cycles

 Alpha  occ. eigenvalues --  -18.92873 -18.92268 -14.21287 -10.10793 -10.08704
 Alpha  occ. eigenvalues --  -10.08406 -10.07181 -10.07089 -10.05649 -10.05485
 Alpha  occ. eigenvalues --  -10.05476 -10.05085 -10.04296 -10.04029 -10.02248
 Alpha  occ. eigenvalues --   -0.86228  -0.83502  -0.82495  -0.73445  -0.68340
 Alpha  occ. eigenvalues --   -0.64931  -0.62637  -0.60025  -0.55233  -0.52657
 Alpha  occ. eigenvalues --   -0.48929  -0.47125  -0.44280  -0.40602  -0.38445
 Alpha  occ. eigenvalues --   -0.37609  -0.36951  -0.34243  -0.32899  -0.30938
 Alpha  occ. eigenvalues --   -0.30540  -0.29982  -0.29092  -0.28301  -0.27538
 Alpha  occ. eigenvalues --   -0.27190  -0.25752  -0.24663  -0.23676  -0.22414
 Alpha  occ. eigenvalues --   -0.21561  -0.21081  -0.18857  -0.13671  -0.13178
 Alpha  occ. eigenvalues --   -0.10625  -0.08836  -0.07258  -0.00732
 Alpha virt. eigenvalues --    0.06189   0.07993   0.08719   0.09153   0.09754
 Alpha virt. eigenvalues --    0.10071   0.10751   0.11958   0.12533   0.13125
 Alpha virt. eigenvalues --    0.13378   0.13862   0.14352   0.15444   0.16752

  Beta  occ. eigenvalues --  -18.92169 -18.91713 -14.21216 -10.10797 -10.08703
  Beta  occ. eigenvalues --  -10.08227 -10.07100 -10.06962 -10.05677 -10.05398
  Beta  occ. eigenvalues --  -10.05350 -10.05039 -10.04293 -10.03922 -10.02272
  Beta  occ. eigenvalues --   -0.85160  -0.82430  -0.82247  -0.73220  -0.68150
  Beta  occ. eigenvalues --   -0.64672  -0.62467  -0.59828  -0.54836  -0.52231
  Beta  occ. eigenvalues --   -0.48806  -0.46795  -0.44019  -0.40446  -0.38364
  Beta  occ. eigenvalues --   -0.37485  -0.36767  -0.34078  -0.32763  -0.30790
  Beta  occ. eigenvalues --   -0.30414  -0.29896  -0.28898  -0.28145  -0.27079
  Beta  occ. eigenvalues --   -0.26438  -0.25237  -0.24357  -0.22279  -0.22155
  Beta  occ. eigenvalues --   -0.21089  -0.20267  -0.16589  -0.12970  -0.11882
  Beta  occ. eigenvalues --   -0.09982  -0.07692  -0.06684
  Beta virt. eigenvalues --    0.05644   0.06191   0.07989   0.08959   0.09269
  Beta virt. eigenvalues --    0.09934   0.10103   0.10745   0.12469   0.12878
  Beta virt. eigenvalues --    0.13374   0.13780   0.13873   0.14357   0.15462

 Mulliken charges and spin densities:
               1          2
     1  C    0.114003   0.038387
     2  C   -0.402161   0.031119
     3  C   -0.448315   0.070574
     4  C    0.562831   0.087934
     5  C    0.417380   0.069269
     6  C   -0.245079  -0.011553
     7  C   -0.660131   0.059129
     8  C   -0.234860   0.109273
     9  C    0.099694  -0.032494
    10  C   -0.269412   0.081333
    11  O   -0.373474   0.267235
    12  O   -0.392755   0.203401
    13  H    0.158569  -0.002990
    14  H    0.117022  -0.003106
    15  H    0.119331  -0.005693
    16  H    0.076249   0.003792
    17  H    0.163632  -0.000223
    18  N    0.081235   0.028207
    19  C   -0.057857  -0.003889
    20  C   -0.705397   0.003244
    21  H    0.195731  -0.000227
    22  H    0.137706   0.006640
    23  H    0.145576  -0.000253
    24  H    0.122570  -0.000404
    25  H    0.127670  -0.000229
    26  H    0.150242   0.001523
 Sum of Mulliken charges =  -1.00000   1.00000

 Dipole moment (field-independent basis, Debye):
    X=             -5.2501    Y=            -15.7982    Z=              4.9283  Tot=             17.3619
 Quadrupole moment (field-independent basis, Debye-Ang):
   XX=           -116.4100   YY=           -155.1582   ZZ=            -99.2085
   XY=            -24.4557   XZ=              7.1636   YZ=             14.6292

  Exact polarizability: 247.412   2.660 215.645  -2.428 -28.254 105.612
 Approx polarizability: 401.223  39.290 340.060 -14.749 -42.701 163.980

                      1                      2                      3
                      A                      A                      A
 Frequencies --     50.2437                77.4758                97.8471
 Red. masses --      4.8630                 5.8548                 1.6544
 Frc consts  --      0.0072                 0.0207                 0.0093
 IR Inten    --      0.0228                 0.1364                 0.7997

                      4                      5                      6
                      A                      A                      A
 Frequencies --    119.9052               129.1245               184.4238
 Red. masses --      3.6586                 3.8390                 4.6221
 Frc consts  --      0.0310                 0.0377                 0.0926
 IR Inten    --      1.7593                 2.3741                 1.1521

                      7                      8                      9
                      A                      A                      A
 Frequencies --    217.6485               255.3969               264.5949
 Red. masses --      4.5675                 1.3074                 3.4133
 Frc consts  --      0.1275                 0.0502                 0.1408
 IR Inten    --      0.4893                 0.5570                 3.4500

                     10                     11                     12
                      A                      A                      A
 Frequencies --    314.1739               352.4567               361.5196
 Red. masses --      3.7915                 5.4743                14.1458
 Frc consts  --      0.2205                 0.4007                 1.0893
 IR Inten    --      1.0462                 6.6796                 0.1378

                     13                     14                     15
                      A                      A                      A
 Frequencies --    405.6712               428.4029               432.9394
 Red. masses --      4.7054                 6.7949                 3.7846
 Frc consts  --      0.4562                 0.7347                 0.4180
 IR Inten    --      1.1348                 8.1128                 9.5171

                     16                     17                     18
                      A                      A                      A
 Frequencies --    473.3609               524.2001               550.8704
 Red. masses --      7.5542                 3.9074                 2.0526
 Frc consts  --      0.9973                 0.6326                 0.3670
 IR Inten    --      0.4589                 7.5623                77.3412

                     19                     20                     21
                      A                      A                      A
 Frequencies --    603.8415               625.9245               648.3696
 Red. masses --      4.2247                 4.4071                 3.2479
 Frc consts  --      0.9076                 1.0173                 0.8045
 IR Inten    --     11.4538                14.5367                28.5693

                     22                     23                     24
                      A                      A                      A
 Frequencies --    695.7780               709.6106               723.7350
 Red. masses --      5.0706                 2.7228                 4.9789
 Frc consts  --      1.4463                 0.8078                 1.5365
 IR Inten    --      4.8135                29.3716                18.9425

                     25                     26                     27
                      A                      A                      A
 Frequencies --    747.6255               766.8329               818.7059
 Red. masses --      2.0138                 4.0010                 1.2071
 Frc consts  --      0.6632                 1.3862                 0.4767
 IR Inten    --     33.3186                 1.0474                 9.8231

                     28                     29                     30
                      A                      A                      A
 Frequencies --    840.5915               847.3653               853.7653
 Red. masses --      1.4439                 1.3751                 3.5875
 Frc consts  --      0.6011                 0.5817                 1.5407
 IR Inten    --      4.1280                15.9716                 3.8548

                     31                     32                     33
                      A                      A                      A
 Frequencies --    921.6391               926.5272               979.5970
 Red. masses --      1.5983                 1.4660                 1.2952
 Frc consts  --      0.7999                 0.7415                 0.7323
 IR Inten    --      0.9005                 0.9568                 1.5406

                     34                     35                     36
                      A                      A                      A
 Frequencies --    984.1473              1043.0252              1051.1449
 Red. masses --      6.0184                 3.0133                 2.3450
 Frc consts  --      3.4344                 1.9315                 1.5266
 IR Inten    --      5.4109                13.5546                21.6024

                     37                     38                     39
                      A                      A                      A
 Frequencies --   1095.8611              1133.4732              1148.2228
 Red. masses --      2.4047                 1.6609                 1.5498
 Frc consts  --      1.7015                 1.2572                 1.2039
 IR Inten    --     24.9250                 4.9807                11.1332

                     40                     41                     42
                      A                      A                      A
 Frequencies --   1168.9508              1189.2423              1219.1924
 Red. masses --      1.3322                 2.5326                 5.0447
 Frc consts  --      1.0726                 2.1104                 4.4181
 IR Inten    --      4.2866                51.9003                22.3952

                     43                     44                     45
                      A                      A                      A
 Frequencies --   1231.5089              1255.0949              1280.9938
 Red. masses --      2.3182                 2.0742                 1.8768
 Frc consts  --      2.0714                 1.9251                 1.8145
 IR Inten    --     41.8699                49.3159                12.4564

                     46                     47                     48
                      A                      A                      A
 Frequencies --   1290.4702              1347.7070              1360.4814
 Red. masses --      1.1824                 4.1471                 1.7557
 Frc consts  --      1.1602                 4.4380                 1.9146
 IR Inten    --      4.3367                48.7784                58.7011

                     49                     50                     51
                      A                      A                      A
 Frequencies --   1399.4328              1416.5324              1447.1022
 Red. masses --      1.4245                 1.7831                 2.4282
 Frc consts  --      1.6437                 2.1081                 2.9959
 IR Inten    --     28.9967                 1.7488                53.6259

                     52                     53                     54
                      A                      A                      A
 Frequencies --   1472.4668              1489.4389              1500.2918
 Red. masses --      2.2818                 1.1095                 1.0739
 Frc consts  --      2.9149                 1.4502                 1.4242
 IR Inten    --     29.9851                26.6982                32.7370

                     55                     56                     57
                      A                      A                      A
 Frequencies --   1512.3748              1520.8873              1526.2782
 Red. masses --      2.8511                 1.6411                 1.3179
 Frc consts  --      3.8422                 2.2365                 1.8088
 IR Inten    --    279.8193                89.5540                10.0634

                     58                     59                     60
                      A                      A                      A
 Frequencies --   1547.0947              1581.7561              1602.6509
 Red. masses --      6.0633                 7.4931                 5.5817
 Frc consts  --      8.5505                11.0456                 8.4469
 IR Inten    --    286.9181               158.7246               217.4612

                     61                     62                     63
                      A                      A                      A
 Frequencies --   1619.5537              2927.4812              3011.8868
 Red. masses --      5.8961                 1.0748                 1.0383
 Frc consts  --      9.1119                 5.4268                 5.5497
 IR Inten    --     70.4187                86.6130                43.5796

                     64                     65                     66
                      A                      A                      A
 Frequencies --   3036.8936              3072.2267              3087.8675
 Red. masses --      1.0844                 1.0980                 1.1020
 Frc consts  --      5.8925                 6.1060                 6.1910
 IR Inten    --      9.2539                60.6372                39.4529

                     67                     68                     69
                      A                      A                      A
 Frequencies --   3131.7503              3146.4997              3162.7531
 Red. masses --      1.0833                 1.0882                 1.0941
 Frc consts  --      6.2601                 6.3478                 6.4484
 IR Inten    --      6.5217                40.9400                53.3059

                     70                     71                     72
                      A                      A                      A
 Frequencies --   3169.8850              3180.5489              3546.9264
 Red. masses --      1.0879                 1.0920                 1.0743
 Frc consts  --      6.4406                 6.5085                 7.9627
 IR Inten    --     29.5212                17.9114                 3.2441

 - Thermochemistry -
 -------------------
 Temperature   298.150 Kelvin.  Pressure   1.00000 Atm.
 Atom     1 has atomic number  6 and mass  12.00000

 Molecular mass:   201.07898 amu.
 Principal axes and moments of inertia in atomic units:
                           1         2         3
     Eigenvalues --  2301.157883602.789835873.37059
           X           -0.51799   0.85529   0.01311
           Y            0.83133   0.49975   0.24318
           Z           -0.20144  -0.13686   0.96989
 This molecule is an asymmetric top.
 Rotational symmetry number  1.
 Warning -- assumption of classical behavior for rotation
           may cause significant error
 Rotational temperatures (Kelvin)      0.03764     0.02404     0.01475
 Rotational constants (GHZ):           0.78428     0.50093     0.30728
 Zero-point vibrational energy     531502.4 (Joules/Mol)
                                  127.03212 (Kcal/Mol)
 Warning -- explicit consideration of  19 degrees of freedom as
           vibrations may cause significant error
 Vibrational temperatures:     72.29   111.47   140.78   172.52   185.78
          (Kelvin)            265.34   313.15   367.46   380.69   452.03
                              507.11   520.15   583.67   616.38   622.90
                              681.06   754.21   792.58   868.79   900.57
                              932.86  1001.07  1020.97  1041.29  1075.67
                             1103.30  1177.94  1209.42  1219.17  1228.38
                             1326.03  1333.07  1409.42  1415.97  1500.68
                             1512.36  1576.70  1630.82  1652.04  1681.86
                             1711.05  1754.15  1771.87  1805.80  1843.06
                             1856.70  1939.05  1957.43  2013.47  2038.07
                             2082.06  2118.55  2142.97  2158.59  2175.97
                             2188.22  2195.97  2225.92  2275.79  2305.86
                             2330.18  4211.99  4333.43  4369.41  4420.25
                             4442.75  4505.89  4527.11  4550.50  4560.76
                             4576.10  5103.24

 Zero-point correction=                           0.202439 (Hartree/Particle)
 Thermal correction to Energy=                    0.215393
 Thermal correction to Enthalpy=                  0.216337
 Thermal correction to Gibbs Free Energy=         0.162166
 Sum of electronic and zero-point Energies=           -669.131192
 Sum of electronic and thermal Energies=              -669.118238
 Sum of electronic and thermal Enthalpies=            -669.117294
 Sum of electronic and thermal Free Energies=         -669.171465

                     E (Thermal)             CV                S
                      KCal/Mol        Cal/Mol-Kelvin    Cal/Mol-Kelvin
 Total                  135.161             50.389            114.012
 Electronic               0.000              0.000              1.377
 Translational            0.889              2.981             41.800
 Rotational               0.889              2.981             32.254
 Vibrational            133.384             44.427             38.580
 Vibration     1          0.595              1.977              4.808
 Vibration     2          0.599              1.964              3.954
 Vibration     3          0.603              1.951              3.497
 Vibration     4          0.609              1.933              3.102
 Vibration     5          0.612              1.924              2.959
 Vibration     6          0.631              1.861              2.283
 Vibration     7          0.646              1.814              1.979
 Vibration     8          0.666              1.754              1.693
 Vibration     9          0.671              1.738              1.631
 Vibration    10          0.702              1.647              1.340
 Vibration    11          0.729              1.570              1.155
 Vibration    12          0.736              1.552              1.116
 Vibration    13          0.771              1.458              0.942
 Vibration    14          0.790              1.408              0.864
 Vibration    15          0.794              1.398              0.849
 Vibration    16          0.830              1.309              0.728
 Vibration    17          0.879              1.196              0.600
 Vibration    18          0.906              1.138              0.542
 Vibration    19          0.962              1.024              0.443

 Optimization completed.
    -- Stationary point found.
 Normal termination of Gaussian 16 at Fri Jan 12 20:46:17 2024.
