 Gaussian 16, Revision A.03,
 Gaussian 16:  ES64L-G16RevA.03 25-Dec-2016

 --------------------------------------
 #P UB3LYP/6-311++G(d,p) nosym opt freq
 --------------------------------------

 -------
 Reduced
 -------
 Symbolic Z-matrix:
 Charge = -2 Multiplicity = 1

 SCF Done:  E(UB3LYP) =  -771.195104955     A.U. after   44 cycles
 SCF Done:  E(UB3LYP) =  -771.195146947     A.U. after   29 cycles
 SCF Done:  E(UB3LYP) =  -771.195147610     A.U. after   24 cycles
 SCF Done:  E(UB3LYP) =  -771.195155192     A.U. after   24 cycles
 SCF Done:  E(UB3LYP) =  -771.195155963     A.U. after   26 cycles
 Optimization completed.
    -- Stationary point found.
 Normal termination of Gaussian 16 at Sun Jan  7 21:43:31 2024.

 ----------------------------------------------------------------------
 #P Geom=AllCheck Guess=TCheck SCRF=Check GenChk UB3LYP/6-311++G(d,p) F
 req
 ----------------------------------------------------------------------

 Structure from the checkpoint file:  "248-an.chk"
 -------
 Reduced
 -------
 Charge = -2 Multiplicity = 1

                          Input orientation:
 ---------------------------------------------------------------------
 Center     Atomic      Atomic             Coordinates (Angstroms)
 Number     Number       Type             X           Y           Z
 ---------------------------------------------------------------------
      1          6           0        5.879261   -5.555219    0.904679
      2          6           0        6.392245   -5.562326   -0.380458
      3          6           0        5.948168   -4.597358   -1.317712
      4          6           0        4.915942   -4.607508    1.318075
      5          6           0        4.466603   -3.629524    0.367868
      6          6           0        5.005590   -3.658203   -0.937559
      7          6           0        4.409454   -4.638491    2.686653
      8          6           0        3.430120   -3.636590    3.005236
      9          6           0        2.993524   -2.670555    2.074544
     10          6           0        3.476047   -2.618113    0.722634
     11          8           0        4.828460   -5.509167    3.534379
     12          8           0        3.074606   -1.742000   -0.124926
     13          1           0        7.132266   -6.305655   -0.671371
     14          6           0        1.978095   -1.612565    2.452122
     15          1           0        6.346229   -4.596180   -2.330714
     16          6           0        2.894207   -3.657225    4.419846
     17          6           0        0.523649   -1.981285    2.091434
     18          6           0       -0.491701   -0.886406    2.454104
     19          6           0       -1.944699   -1.236711    2.109389
     20          6           0       -2.957672   -0.145526    2.478069
     21          1           0        6.199105   -6.279715    1.647016
     22          1           0        4.643169   -2.905526   -1.630731
     23          1           0        2.231095   -0.698449    1.903145
     24          1           0        2.029724   -1.386672    3.524255
     25          1           0        3.246864   -4.568638    4.907017
     26          1           0        1.798072   -3.629903    4.455397
     27          1           0        3.250345   -2.800762    5.014469
     28          1           0        0.246761   -2.915281    2.598206
     29          1           0        0.485029   -2.180615    1.015419
     30          1           0       -0.214307    0.042700    1.937903
     31          1           0       -0.422873   -0.668047    3.529726
     32          1           0       -2.219213   -2.170186    2.618566
     33          1           0       -2.015069   -1.448651    1.034855
     34          1           0       -2.944502    0.067507    3.553553
     35          1           0       -3.985290   -0.427747    2.220368
     36          1           0       -2.741613    0.794531    1.957101
 ---------------------------------------------------------------------

 SCF Done:  E(UB3LYP) =  -771.195155963     A.U. after    4 cycles

 Alpha  occ. eigenvalues --  -18.80564 -18.80522  -9.98535  -9.98340  -9.97278
 Alpha  occ. eigenvalues --   -9.96099  -9.96068  -9.95412  -9.95061  -9.95009
 Alpha  occ. eigenvalues --   -9.94101  -9.94095  -9.93986  -9.93529  -9.92823
 Alpha  occ. eigenvalues --   -9.92776  -9.92228  -9.91981  -0.72344  -0.71954
 Alpha  occ. eigenvalues --   -0.61944  -0.61241  -0.57794  -0.54760  -0.51873
 Alpha  occ. eigenvalues --   -0.51606  -0.49161  -0.45252  -0.42059  -0.40736
 Alpha  occ. eigenvalues --   -0.38417  -0.36323  -0.34816  -0.31272  -0.28963
 Alpha  occ. eigenvalues --   -0.27472  -0.26068  -0.24441  -0.23722  -0.22294
 Alpha  occ. eigenvalues --   -0.21777  -0.21551  -0.19374  -0.19158  -0.18373
 Alpha  occ. eigenvalues --   -0.17507  -0.16770  -0.16423  -0.15872  -0.15312
 Alpha  occ. eigenvalues --   -0.14619  -0.13975  -0.13557  -0.13215  -0.12658
 Alpha  occ. eigenvalues --   -0.11590  -0.10098  -0.09882  -0.09405  -0.08911
 Alpha  occ. eigenvalues --   -0.02034  -0.00946   0.00614   0.01655   0.02469
 Alpha  occ. eigenvalues --    0.11316
 Alpha virt. eigenvalues --    0.12428   0.15022   0.15321   0.15856   0.16724
 Alpha virt. eigenvalues --    0.16841   0.17629   0.18669   0.19181   0.19391
 Alpha virt. eigenvalues --    0.20073   0.20472   0.20731   0.21013   0.21385

  Beta  occ. eigenvalues --  -18.80564 -18.80522  -9.98535  -9.98340  -9.97278
  Beta  occ. eigenvalues --   -9.96099  -9.96068  -9.95412  -9.95061  -9.95009
  Beta  occ. eigenvalues --   -9.94101  -9.94095  -9.93986  -9.93529  -9.92823
  Beta  occ. eigenvalues --   -9.92776  -9.92228  -9.91981  -0.72344  -0.71954
  Beta  occ. eigenvalues --   -0.61944  -0.61241  -0.57794  -0.54760  -0.51873
  Beta  occ. eigenvalues --   -0.51606  -0.49161  -0.45252  -0.42059  -0.40736
  Beta  occ. eigenvalues --   -0.38417  -0.36323  -0.34816  -0.31272  -0.28963
  Beta  occ. eigenvalues --   -0.27472  -0.26068  -0.24441  -0.23722  -0.22294
  Beta  occ. eigenvalues --   -0.21777  -0.21551  -0.19374  -0.19158  -0.18373
  Beta  occ. eigenvalues --   -0.17507  -0.16770  -0.16423  -0.15872  -0.15312
  Beta  occ. eigenvalues --   -0.14619  -0.13975  -0.13557  -0.13215  -0.12658
  Beta  occ. eigenvalues --   -0.11590  -0.10098  -0.09882  -0.09405  -0.08911
  Beta  occ. eigenvalues --   -0.02034  -0.00946   0.00614   0.01655   0.02469
  Beta  occ. eigenvalues --    0.11316
  Beta virt. eigenvalues --    0.12428   0.15022   0.15321   0.15856   0.16724
  Beta virt. eigenvalues --    0.16841   0.17629   0.18669   0.19181   0.19391
  Beta virt. eigenvalues --    0.20073   0.20472   0.20731   0.21013   0.21385

 Mulliken charges and spin densities:
               1          2
     1  C    0.112113  -0.000000
     2  C   -0.394141  -0.000000
     3  C   -0.359264   0.000000
     4  C    0.481310   0.000000
     5  C   -0.005132   0.000000
     6  C    0.000461  -0.000000
     7  C   -1.052684  -0.000000
     8  C    1.142436   0.000000
     9  C    1.152866   0.000000
    10  C   -1.306273  -0.000000
    11  O   -0.488531  -0.000000
    12  O   -0.462913  -0.000000
    13  H    0.079514  -0.000000
    14  C   -0.462089  -0.000000
    15  H    0.081659   0.000000
    16  C   -0.626920  -0.000000
    17  C   -0.720923   0.000000
    18  C    0.681135  -0.000000
    19  C   -2.091878   0.000000
    20  C    2.177681  -0.000000
    21  H    0.139286   0.000000
    22  H    0.140221  -0.000000
    23  H    0.211917   0.000000
    24  H    0.128314   0.000000
    25  H    0.184313  -0.000000
    26  H    0.116988  -0.000000
    27  H    0.104155  -0.000000
    28  H    0.089273   0.000000
    29  H    0.175588   0.000000
    30  H    0.142545  -0.000000
    31  H    0.113653  -0.000000
    32  H    0.111322  -0.000000
    33  H    0.125633  -0.000000
    34  H   -0.329331   0.000000
    35  H   -1.147304   0.000000
    36  H   -0.245002   0.000000
 Sum of Mulliken charges =  -2.00000   0.00000

 Dipole moment (field-independent basis, Debye):
    X=            -20.8350    Y=             27.6724    Z=            -16.4799  Tot=             38.3595
 Quadrupole moment (field-independent basis, Debye-Ang):
   XX=           -320.7671   YY=           -259.7778   ZZ=           -187.9679
   XY=            134.5356   XZ=            -20.4852   YZ=             53.3778

  Exact polarizability:2114.722-748.468 930.643-223.676 163.738 656.896
 Approx polarizability:****************4022.315******** 864.788 921.291

                      1                      2                      3
                      A                      A                      A
 Frequencies --     27.9179                37.0772                53.2235
 Red. masses --      4.4064                 5.0042                 1.5988
 Frc consts  --      0.0020                 0.0041                 0.0027
 IR Inten    --      2.5016                 0.8583                 0.8772

                      4                      5                      6
                      A                      A                      A
 Frequencies --     82.8586               100.1284               107.7454
 Red. masses --      4.5455                 2.7467                 1.5341
 Frc consts  --      0.0184                 0.0162                 0.0105
 IR Inten    --      9.9889                 8.2164                 1.6677

                      7                      8                      9
                      A                      A                      A
 Frequencies --    122.8750               147.6766               150.9850
 Red. masses --      1.8109                 3.4524                 1.8250
 Frc consts  --      0.0161                 0.0444                 0.0245
 IR Inten    --      1.0453                 0.4040                 0.1880

                     10                     11                     12
                      A                      A                      A
 Frequencies --    163.1009               193.3458               254.5181
 Red. masses --      4.3152                 5.8715                 4.2201
 Frc consts  --      0.0676                 0.1293                 0.1611
 IR Inten    --      1.8232                 3.9814                 3.0534

                     13                     14                     15
                      A                      A                      A
 Frequencies --    262.0129               282.3064               333.0215
 Red. masses --      1.1165                 4.2284                 2.7752
 Frc consts  --      0.0452                 0.1985                 0.1813
 IR Inten    --     20.5490                 5.5079                 0.1352

                     16                     17                     18
                      A                      A                      A
 Frequencies --    338.7405               345.1705               377.6774
 Red. masses --      3.2609                 3.5579                 7.9987
 Frc consts  --      0.2205                 0.2498                 0.6722
 IR Inten    --      0.3970                 1.9635                28.4428

                     19                     20                     21
                      A                      A                      A
 Frequencies --    392.9882               425.2988               429.1156
 Red. masses --      4.7676                 5.7153                 4.3799
 Frc consts  --      0.4338                 0.6091                 0.4752
 IR Inten    --      2.3515               224.4038                18.9723

                     22                     23                     24
                      A                      A                      A
 Frequencies --    453.3076               476.2349               518.6619
 Red. masses --      3.6234                 5.4804                 6.3775
 Frc consts  --      0.4387                 0.7323                 1.0108
 IR Inten    --     46.9329               281.4293               228.9573

                     25                     26                     27
                      A                      A                      A
 Frequencies --    556.2027               632.2018               669.3152
 Red. masses --      4.9987                 5.0529                 5.5021
 Frc consts  --      0.9111                 1.1899                 1.4522
 IR Inten    --     11.2576                14.3204                 1.4423

                     28                     29                     30
                      A                      A                      A
 Frequencies --    671.8791               682.2791               705.6797
 Red. masses --      3.3730                 2.9632                 2.4558
 Frc consts  --      0.8971                 0.8127                 0.7205
 IR Inten    --      3.4878                26.1104                38.8465

                     31                     32                     33
                      A                      A                      A
 Frequencies --    725.6850               749.8879               760.8435
 Red. masses --      1.1030                 1.2611                 2.5588
 Frc consts  --      0.3422                 0.4178                 0.8727
 IR Inten    --      0.8537                 2.4190                11.7788

                     34                     35                     36
                      A                      A                      A
 Frequencies --    786.5486               818.3183               826.8805
 Red. masses --      2.3713                 1.9081                 2.1122
 Frc consts  --      0.8644                 0.7528                 0.8509
 IR Inten    --      0.3318                12.0664                 0.0933

                     37                     38                     39
                      A                      A                      A
 Frequencies --    858.2209               881.4010               914.0735
 Red. masses --      1.9269                 2.0397                 2.7124
 Frc consts  --      0.8362                 0.9336                 1.3352
 IR Inten    --      5.2545                 7.5707                37.8120

                     40                     41                     42
                      A                      A                      A
 Frequencies --    957.2841               961.9252               972.7292
 Red. masses --      1.2417                 1.3602                 1.4282
 Frc consts  --      0.6704                 0.7415                 0.7962
 IR Inten    --      0.3991                 2.7951                29.5582

                     43                     44                     45
                      A                      A                      A
 Frequencies --    986.7705               994.2615              1020.8121
 Red. masses --      3.1473                 3.6614                 2.2545
 Frc consts  --      1.8056                 2.1325                 1.3842
 IR Inten    --     11.3181                20.0436               254.5959

                     46                     47                     48
                      A                      A                      A
 Frequencies --   1021.5197              1039.7236              1052.8053
 Red. masses --      2.6072                 1.4911                 2.4269
 Frc consts  --      1.6029                 0.9497                 1.5849
 IR Inten    --    103.8720                 9.3972                29.2614

                     49                     50                     51
                      A                      A                      A
 Frequencies --   1053.6391              1096.3422              1117.4327
 Red. masses --      1.7947                 2.0081                 2.3581
 Frc consts  --      1.1739                 1.4221                 1.7349
 IR Inten    --     35.2126                12.5897                12.0224

                     52                     53                     54
                      A                      A                      A
 Frequencies --   1126.4286              1132.2841              1174.6365
 Red. masses --      1.5379                 1.7408                 2.7639
 Frc consts  --      1.1497                 1.3150                 2.2469
 IR Inten    --     78.3224                86.5696               275.3050

                     55                     56                     57
                      A                      A                      A
 Frequencies --   1201.4806              1219.2191              1235.6855
 Red. masses --      1.9965                 1.8503                 2.5144
 Frc consts  --      1.6981                 1.6205                 2.2621
 IR Inten    --      8.9464                14.6604                61.7004

                     58                     59                     60
                      A                      A                      A
 Frequencies --   1251.8851              1266.2363              1294.8186
 Red. masses --      1.2931                 2.2022                 1.2981
 Frc consts  --      1.1940                 2.0804                 1.2823
 IR Inten    --     15.1233                18.0664                 0.7893

                     61                     62                     63
                      A                      A                      A
 Frequencies --   1318.4690              1322.0888              1327.6175
 Red. masses --      1.0602                 1.2919                 1.2334
 Frc consts  --      1.0859                 1.3304                 1.2808
 IR Inten    --     71.4856                19.0417                30.1303

                     64                     65                     66
                      A                      A                      A
 Frequencies --   1342.5220              1358.2863              1363.2859
 Red. masses --      7.0731                 1.4526                 1.4308
 Frc consts  --      7.5110                 1.5789                 1.5668
 IR Inten    --    709.0719                57.6107                27.7142

                     67                     68                     69
                      A                      A                      A
 Frequencies --   1376.5091              1398.0895              1410.4943
 Red. masses --      1.5727                 1.2496                 2.6494
 Frc consts  --      1.7557                 1.4391                 3.1056
 IR Inten    --     47.6956               639.0097                98.2127

                     70                     71                     72
                      A                      A                      A
 Frequencies --   1429.0303              1431.6574              1448.9838
 Red. masses --      3.7553                 3.1758                 3.2865
 Frc consts  --      4.5184                 3.8352                 4.0654
 IR Inten    --   1017.0436               978.1397               486.1455

                     73                     74                     75
                      A                      A                      A
 Frequencies --   1470.6466              1477.5868              1480.8783
 Red. masses --      1.4554                 1.2582                 1.0782
 Frc consts  --      1.8546                 1.6184                 1.3931
 IR Inten    --    102.1340                94.4887                45.9068

                     76                     77                     78
                      A                      A                      A
 Frequencies --   1481.3573              1483.9507              1493.1465
 Red. masses --      1.0471                 1.0696                 1.2721
 Frc consts  --      1.3538                 1.3877                 1.6709
 IR Inten    --    403.8291                15.6322               573.7147

                     79                     80                     81
                      A                      A                      A
 Frequencies --   1496.1804              1501.8686              1505.9830
 Red. masses --      1.2090                 3.4642                 1.3349
 Frc consts  --      1.5945                 4.6037                 1.7838
 IR Inten    --    130.1607               343.7052               432.3017

                     82                     83                     84
                      A                      A                      A
 Frequencies --   1507.8219              1573.2501              1592.5848
 Red. masses --      1.3846                 7.0357                 5.4980
 Frc consts  --      1.8547                10.2601                 8.2160
 IR Inten    --    290.3907              3614.1837                 6.5753

                     85                     86                     87
                      A                      A                      A
 Frequencies --   2942.7650              2974.5311              2985.8077
 Red. masses --      1.0593                 1.0595                 1.0394
 Frc consts  --      5.4046                 5.5231                 5.4597
 IR Inten    --    342.2709                 0.4453                48.2759

                     88                     89                     90
                      A                      A                      A
 Frequencies --   2988.8077              2991.1760              2995.6689
 Red. masses --      1.0613                 1.0701                 1.0703
 Frc consts  --      5.5856                 5.6413                 5.6588
 IR Inten    --     27.0222                26.7629                64.4194

                     91                     92                     93
                      A                      A                      A
 Frequencies --   3001.4589              3004.5221              3021.9820
 Red. masses --      1.0766                 1.0803                 1.0993
 Frc consts  --      5.7143                 5.7455                 5.9149
 IR Inten    --     53.1774                48.1229                22.2621

                     94                     95                     96
                      A                      A                      A
 Frequencies --   3033.2363              3042.7457              3051.4886
 Red. masses --      1.0955                 1.0998                 1.1021
 Frc consts  --      5.9385                 5.9993                 6.0466
 IR Inten    --      5.9457                40.5790                 5.2639

                     97                     98                     99
                      A                      A                      A
 Frequencies --   3059.6065              3086.3490              3096.9936
 Red. masses --      1.1016                 1.0937                 1.0829
 Frc consts  --      6.0756                 6.1383                 6.1194
 IR Inten    --     36.2327                14.9873                31.8993

                    100                    101                    102
                      A                      A                      A
 Frequencies --   3120.2248              3160.7117              3163.1154
 Red. masses --      1.0908                 1.0903                 1.0915
 Frc consts  --      6.2572                 6.4174                 6.4344
 IR Inten    --    298.5682                22.9728               214.3331

 - Thermochemistry -
 -------------------
 Temperature   298.150 Kelvin.  Pressure   1.00000 Atm.
 Atom     1 has atomic number  6 and mass  12.00000

 Molecular mass:   242.13068 amu.
 Principal axes and moments of inertia in atomic units:
                           1         2         3
     Eigenvalues --  2215.956538976.17455**********
           X            0.84009   0.04955   0.54017
           Y           -0.48998  -0.35795   0.79486
           Z           -0.23273   0.93243   0.27643
 This molecule is an asymmetric top.
 Rotational symmetry number  1.
 Warning -- assumption of classical behavior for rotation
           may cause significant error
 Rotational temperatures (Kelvin)      0.03909     0.00965     0.00812
 Rotational constants (GHZ):           0.81443     0.20106     0.16912
 Zero-point vibrational energy     776417.1 (Joules/Mol)
                                  185.56814 (Kcal/Mol)
 Warning -- explicit consideration of  25 degrees of freedom as
           vibrations may cause significant error
 Vibrational temperatures:     40.17    53.35    76.58   119.22   144.06
          (Kelvin)            155.02   176.79   212.47   217.23   234.67
                              278.18   366.19   376.98   406.18   479.14
                              487.37   496.62   543.39   565.42   611.91
                              617.40   652.21   685.20   746.24   800.25
                              909.60   963.00   966.68   981.65  1015.32
                             1044.10  1078.92  1094.68  1131.67  1177.38
                             1189.70  1234.79  1268.14  1315.15  1377.32
                             1384.00  1399.54  1419.74  1430.52  1468.72
                             1469.74  1495.93  1514.75  1515.95  1577.39
                             1607.74  1620.68  1629.10  1690.04  1728.66
                             1754.18  1777.88  1801.18  1821.83  1862.96
                             1896.98  1902.19  1910.15  1931.59  1954.27
                             1961.46  1980.49  2011.54  2029.39  2056.06
                             2059.84  2084.76  2115.93  2125.92  2130.65
                             2131.34  2135.07  2148.30  2152.67  2160.85
                             2166.77  2169.42  2263.56  2291.37  4233.98
                             4279.69  4295.91  4300.23  4303.64  4310.10
                             4318.43  4322.84  4347.96  4364.15  4377.83
                             4390.41  4402.09  4440.57  4455.88  4489.31
                             4547.56  4551.02

 Zero-point correction=                           0.295722 (Hartree/Particle)
 Thermal correction to Energy=                    0.313177
 Thermal correction to Enthalpy=                  0.314122
 Thermal correction to Gibbs Free Energy=         0.249451
 Sum of electronic and zero-point Energies=           -770.899434
 Sum of electronic and thermal Energies=              -770.881979
 Sum of electronic and thermal Enthalpies=            -770.881034
 Sum of electronic and thermal Free Energies=         -770.945705

                     E (Thermal)             CV                S
                      KCal/Mol        Cal/Mol-Kelvin    Cal/Mol-Kelvin
 Total                  196.522             66.515            136.111
 Electronic               0.000              0.000              0.000
 Translational            0.889              2.981             42.354
 Rotational               0.889              2.981             33.717
 Vibrational            194.744             60.553             60.040
 Vibration     1          0.593              1.984              5.972
 Vibration     2          0.594              1.982              5.409
 Vibration     3          0.596              1.976              4.694
 Vibration     4          0.600              1.961              3.822
 Vibration     5          0.604              1.949              3.452
 Vibration     6          0.606              1.943              3.309
 Vibration     7          0.610              1.930              3.055
 Vibration     8          0.617              1.905              2.702
 Vibration     9          0.618              1.902              2.660
 Vibration    10          0.623              1.888              2.514
 Vibration    11          0.635              1.849              2.196
 Vibration    12          0.665              1.755              1.699
 Vibration    13          0.669              1.742              1.648
 Vibration    14          0.681              1.706              1.520
 Vibration    15          0.715              1.610              1.245
 Vibration    16          0.719              1.598              1.218
 Vibration    17          0.724              1.585              1.188
 Vibration    18          0.748              1.518              1.048
 Vibration    19          0.760              1.485              0.989
 Vibration    20          0.787              1.415              0.874
 Vibration    21          0.790              1.407              0.862
 Vibration    22          0.812              1.354              0.786
 Vibration    23          0.833              1.303              0.720
 Vibration    24          0.874              1.209              0.613
 Vibration    25          0.912              1.126              0.531

                           ! Non-Optimized Parameters !
 Normal termination of Gaussian 16 at Mon Jan  8 00:14:44 2024.
