 Q-Chem 5.4, Q-Chem, Inc., Pleasanton, CA (2021)
 Q-Chem 5.4.0 for Intel X86 EM64T Linux

User input:
--------------------------------------------------------------
$molecule
-2 1
C                  5.8792610000     -5.5552190000      0.9046790000
C                  6.3922450000     -5.5623260000     -0.3804580000
C                  5.9481680000     -4.5973580000     -1.3177120000
C                  4.9159420000     -4.6075080000      1.3180750000
C                  4.4666030000     -3.6295240000      0.3678680000
C                  5.0055900000     -3.6582030000     -0.9375590000
C                  4.4094540000     -4.6384910000      2.6866530000
C                  3.4301200000     -3.6365900000      3.0052360000
C                  2.9935240000     -2.6705550000      2.0745440000
C                  3.4760470000     -2.6181130000      0.7226340000
O                  4.8284600000     -5.5091670000      3.5343790000
O                  3.0746060000     -1.7420000000     -0.1249260000
H                  7.1322660000     -6.3056550000     -0.6713710000
C                  1.9780950000     -1.6125650000      2.4521220000
H                  6.3462290000     -4.5961800000     -2.3307140000
C                  2.8942070000     -3.6572250000      4.4198460000
C                  0.5236490000     -1.9812850000      2.0914340000
C                 -0.4917010000     -0.8864060000      2.4541040000
C                 -1.9446990000     -1.2367110000      2.1093890000
C                 -2.9576720000     -0.1455260000      2.4780690000
H                  6.1991050000     -6.2797150000      1.6470160000
H                  4.6431690000     -2.9055260000     -1.6307310000
H                  2.2310950000     -0.6984490000      1.9031450000
H                  2.0297240000     -1.3866720000      3.5242550000
H                  3.2468640000     -4.5686380000      4.9070170000
H                  1.7980720000     -3.6299030000      4.4553970000
H                  3.2503450000     -2.8007620000      5.0144690000
H                  0.2467610000     -2.9152810000      2.5982060000
H                  0.4850290000     -2.1806150000      1.0154190000
H                 -0.2143070000      0.0427000000      1.9379030000
H                 -0.4228730000     -0.6680470000      3.5297260000
H                 -2.2192130000     -2.1701860000      2.6185660000
H                 -2.0150690000     -1.4486510000      1.0348550000
H                 -2.9445020000      0.0675070000      3.5535530000
H                 -3.9852900000     -0.4277470000      2.2203680000
H                 -2.7416130000      0.7945310000      1.9571010000
$end
$rem
MAX_SCF_CYCLES=200
BASIS  =  6-311++G(d,p)
GUI  =  2
JOB_TYPE  =  SP
METHOD  =  B3LYP
SOLVENT_METHOD = PCM
$end
$pcm
theory = CPCM
$end
$solvent
dielectric 37.219
opticaldielectric 1.43
$end

--------------------------------------------------------------

             Standard Nuclear Orientation (Angstroms)
    I     Atom           X                Y                Z
 ----------------------------------------------------------------
    1      C       5.8792610000    -5.5552190000     0.9046790000
    2      C       6.3922450000    -5.5623260000    -0.3804580000
    3      C       5.9481680000    -4.5973580000    -1.3177120000
    4      C       4.9159420000    -4.6075080000     1.3180750000
    5      C       4.4666030000    -3.6295240000     0.3678680000
    6      C       5.0055900000    -3.6582030000    -0.9375590000
    7      C       4.4094540000    -4.6384910000     2.6866530000
    8      C       3.4301200000    -3.6365900000     3.0052360000
    9      C       2.9935240000    -2.6705550000     2.0745440000
   10      C       3.4760470000    -2.6181130000     0.7226340000
   11      O       4.8284600000    -5.5091670000     3.5343790000
   12      O       3.0746060000    -1.7420000000    -0.1249260000
   13      H       7.1322660000    -6.3056550000    -0.6713710000
   14      C       1.9780950000    -1.6125650000     2.4521220000
   15      H       6.3462290000    -4.5961800000    -2.3307140000
   16      C       2.8942070000    -3.6572250000     4.4198460000
   17      C       0.5236490000    -1.9812850000     2.0914340000
   18      C      -0.4917010000    -0.8864060000     2.4541040000
   19      C      -1.9446990000    -1.2367110000     2.1093890000
   20      C      -2.9576720000    -0.1455260000     2.4780690000
   21      H       6.1991050000    -6.2797150000     1.6470160000
   22      H       4.6431690000    -2.9055260000    -1.6307310000
   23      H       2.2310950000    -0.6984490000     1.9031450000
   24      H       2.0297240000    -1.3866720000     3.5242550000
   25      H       3.2468640000    -4.5686380000     4.9070170000
   26      H       1.7980720000    -3.6299030000     4.4553970000
   27      H       3.2503450000    -2.8007620000     5.0144690000
   28      H       0.2467610000    -2.9152810000     2.5982060000
   29      H       0.4850290000    -2.1806150000     1.0154190000
   30      H      -0.2143070000     0.0427000000     1.9379030000
   31      H      -0.4228730000    -0.6680470000     3.5297260000
   32      H      -2.2192130000    -2.1701860000     2.6185660000
   33      H      -2.0150690000    -1.4486510000     1.0348550000
   34      H      -2.9445020000     0.0675070000     3.5535530000
   35      H      -3.9852900000    -0.4277470000     2.2203680000
   36      H      -2.7416130000     0.7945310000     1.9571010000
 ----------------------------------------------------------------

    9    -771.4582096156      6.26e-06  Convergence criterion met
 Total energy in the final basis set =     -771.4582096156

                    Orbital Energies (a.u.)
 --------------------------------------------------------------

 Alpha MOs
 -- Occupied --
-19.0130 -19.0125 -10.1624 -10.1621 -10.1537 -10.1489 -10.1485 -10.1458
-10.1454 -10.1434 -10.1423 -10.1422 -10.1353 -10.1314 -10.1309 -10.1304
-10.1219 -10.1187  -0.9344  -0.9310  -0.8217  -0.7913  -0.7714  -0.7353
 -0.7186  -0.7158  -0.6798  -0.6438  -0.6184  -0.5939  -0.5658  -0.5611
 -0.5461  -0.5148  -0.4792  -0.4596  -0.4557  -0.4280  -0.4256  -0.4163
 -0.4034  -0.3992  -0.3969  -0.3842  -0.3779  -0.3687  -0.3623  -0.3595
 -0.3547  -0.3473  -0.3424  -0.3333  -0.3250  -0.3165  -0.3153  -0.3108
 -0.3081  -0.3036  -0.2956  -0.2908  -0.2268  -0.2207  -0.1995  -0.1977
 -0.1879  -0.1042

          Ground-State Mulliken Net Atomic Charges

     Atom                 Charge (a.u.)
  ----------------------------------------
      1 C                     0.088509
      2 C                    -0.501381
      3 C                    -0.473888
      4 C                     0.245325
      5 C                    -0.121253
      6 C                    -0.024037
      7 C                    -0.660099
      8 C                     0.835971
      9 C                     0.931822
     10 C                    -0.937280
     11 O                    -0.720487
     12 O                    -0.702780
     13 H                     0.165034
     14 C                    -0.378916
     15 H                     0.166000
     16 C                    -0.550051
     17 C                    -0.571401
     18 C                    -0.196532
     19 C                    -0.186294
     20 C                    -0.687679
     21 H                     0.143889
     22 H                     0.142377
     23 H                     0.171240
     24 H                     0.157332
     25 H                     0.157571
     26 H                     0.142748
     27 H                     0.154065
     28 H                     0.120163
     29 H                     0.168968
     30 H                     0.112331
     31 H                     0.106045
     32 H                     0.133737
     33 H                     0.130909
     34 H                     0.145085
     35 H                     0.147558
     36 H                     0.145391
  ----------------------------------------
  Sum of atomic charges =    -2.000008

                    Cartesian Multipole Moments
 -----------------------------------------------------------------
    Charge (ESU x 10^10)
                -9.6064
    Dipole Moment (Debye)
         X     -39.3794      Y      35.8260      Z     -14.6155
       Tot      55.2074
    Quadrupole Moments (Debye-Ang)
        XX    -294.0388     XY     162.1617     YY    -283.6694
        XZ     -68.1395     YZ      77.1430     ZZ    -171.8565

 Total job time:  75.74s(wall), 501.58s(cpu)
        *  Thank you very much for using Q-Chem.  Have a nice day.  *
