 Q-Chem 5.4, Q-Chem, Inc., Pleasanton, CA (2021)
 Q-Chem 5.4.0 for Intel X86 EM64T Linux

User input:
--------------------------------------------------------------
$molecule
-1 2
C                 -3.9435770000      0.9544450000      0.9299830000
C                 -3.2770390000     -0.0758630000     -0.0124110000
C                 -3.4728970000     -1.4751540000      0.5988300000
C                 -3.9969000000     -0.0477990000     -1.3817330000
C                 -1.7918630000      0.2787180000     -0.2003570000
C                 -1.4365540000      1.5404060000     -0.7535350000
C                 -0.1180180000      1.8951880000     -0.9372190000
C                  0.9356550000      1.0239870000     -0.5855120000
C                  2.3212120000      1.4413970000     -0.7974080000
O                  2.6131140000      2.5614630000     -1.2871080000
C                  3.3482170000      0.4738670000     -0.4038650000
C                  4.7102340000      0.8047990000     -0.5778440000
C                  5.7127220000     -0.0750460000     -0.2217260000
C                  5.3816720000     -1.3336170000      0.3282980000
C                  4.0573900000     -1.6794810000      0.5079340000
C                  3.0137730000     -0.7963980000      0.1514390000
C                  1.6247450000     -1.2099270000      0.3619770000
O                  1.3309120000     -2.3303670000      0.8518690000
C                  0.6002400000     -0.2417940000     -0.0316600000
C                 -0.7623710000     -0.5782200000      0.1453930000
H                 -5.0060570000      0.7211030000      1.0672620000
H                 -3.4612680000      0.9455760000      1.9115320000
H                 -3.8706370000      1.9701720000      0.5338290000
H                 -3.0453910000     -2.2556410000     -0.0357360000
H                 -4.5422870000     -1.6822620000      0.7137940000
H                 -3.0071850000     -1.5532120000      1.5845520000
H                 -3.9255730000      0.9344210000     -1.8551300000
H                 -5.0598490000     -0.2894550000     -1.2638770000
H                 -3.5530970000     -0.7782320000     -2.0640990000
H                 -2.2119210000      2.2444400000     -1.0396640000
H                  0.1499780000      2.8574450000     -1.3588210000
H                  4.9342970000      1.7769550000     -1.0020190000
H                  6.7543450000      0.1981300000     -0.3634300000
H                  6.1692670000     -2.0269570000      0.6089050000
H                  3.7745200000     -2.6380950000      0.9276610000
H                 -0.9498100000     -1.5549910000      0.5713850000
$end
$rem
MAX_SCF_CYCLES=200
BASIS  =  6-311++G(d,p)
GUI  =  2
JOB_TYPE  =  SP
METHOD  =  B3LYP
SOLVENT_METHOD = PCM
$end
$pcm
theory = CPCM
$end
$solvent
dielectric 37.219
opticaldielectric 1.43
$end

--------------------------------------------------------------

             Standard Nuclear Orientation (Angstroms)
    I     Atom           X                Y                Z
 ----------------------------------------------------------------
    1      C      -3.9435770000     0.9544450000     0.9299830000
    2      C      -3.2770390000    -0.0758630000    -0.0124110000
    3      C      -3.4728970000    -1.4751540000     0.5988300000
    4      C      -3.9969000000    -0.0477990000    -1.3817330000
    5      C      -1.7918630000     0.2787180000    -0.2003570000
    6      C      -1.4365540000     1.5404060000    -0.7535350000
    7      C      -0.1180180000     1.8951880000    -0.9372190000
    8      C       0.9356550000     1.0239870000    -0.5855120000
    9      C       2.3212120000     1.4413970000    -0.7974080000
   10      O       2.6131140000     2.5614630000    -1.2871080000
   11      C       3.3482170000     0.4738670000    -0.4038650000
   12      C       4.7102340000     0.8047990000    -0.5778440000
   13      C       5.7127220000    -0.0750460000    -0.2217260000
   14      C       5.3816720000    -1.3336170000     0.3282980000
   15      C       4.0573900000    -1.6794810000     0.5079340000
   16      C       3.0137730000    -0.7963980000     0.1514390000
   17      C       1.6247450000    -1.2099270000     0.3619770000
   18      O       1.3309120000    -2.3303670000     0.8518690000
   19      C       0.6002400000    -0.2417940000    -0.0316600000
   20      C      -0.7623710000    -0.5782200000     0.1453930000
   21      H      -5.0060570000     0.7211030000     1.0672620000
   22      H      -3.4612680000     0.9455760000     1.9115320000
   23      H      -3.8706370000     1.9701720000     0.5338290000
   24      H      -3.0453910000    -2.2556410000    -0.0357360000
   25      H      -4.5422870000    -1.6822620000     0.7137940000
   26      H      -3.0071850000    -1.5532120000     1.5845520000
   27      H      -3.9255730000     0.9344210000    -1.8551300000
   28      H      -5.0598490000    -0.2894550000    -1.2638770000
   29      H      -3.5530970000    -0.7782320000    -2.0640990000
   30      H      -2.2119210000     2.2444400000    -1.0396640000
   31      H       0.1499780000     2.8574450000    -1.3588210000
   32      H       4.9342970000     1.7769550000    -1.0020190000
   33      H       6.7543450000     0.1981300000    -0.3634300000
   34      H       6.1692670000    -2.0269570000     0.6089050000
   35      H       3.7745200000    -2.6380950000     0.9276610000
   36      H      -0.9498100000    -1.5549910000     0.5713850000
 ----------------------------------------------------------------

    8    -846.3954858930      4.62e-06  Convergence criterion met
 Total energy in the final basis set =     -846.3954858930

                    Orbital Energies (a.u.)
 --------------------------------------------------------------

 Alpha MOs
 -- Occupied --
-19.0768 -19.0766 -10.2246 -10.2238 -10.1851 -10.1769 -10.1724 -10.1719
-10.1713 -10.1709 -10.1704 -10.1692 -10.1690 -10.1689 -10.1676 -10.1670
-10.1631 -10.1516 -10.1516 -10.1496  -1.0041  -1.0016  -0.8625  -0.8527
 -0.8150  -0.7757  -0.7504  -0.7457  -0.7311  -0.6817  -0.6800  -0.6643
 -0.6364  -0.6158  -0.5861  -0.5582  -0.5536  -0.5286  -0.5077  -0.4736
 -0.4661  -0.4572  -0.4534  -0.4350  -0.4273  -0.4249  -0.4217  -0.4215
 -0.4169  -0.4110  -0.4021  -0.3902  -0.3866  -0.3815  -0.3718  -0.3623
 -0.3594  -0.3584  -0.3474  -0.3392  -0.3357  -0.3234  -0.3199  -0.3141
 -0.2655  -0.2575  -0.2533  -0.2481  -0.2420  -0.2380  -0.1415

 Beta MOs
 -- Occupied --
-19.0717 -19.0714 -10.2227 -10.2218 -10.1851 -10.1764 -10.1716 -10.1711
-10.1709 -10.1704 -10.1697 -10.1690 -10.1688 -10.1686 -10.1675 -10.1667
-10.1630 -10.1516 -10.1516 -10.1496  -0.9949  -0.9922  -0.8602  -0.8514
 -0.8138  -0.7724  -0.7479  -0.7440  -0.7294  -0.6812  -0.6799  -0.6572
 -0.6347  -0.6134  -0.5854  -0.5570  -0.5512  -0.5268  -0.5062  -0.4708
 -0.4652  -0.4562  -0.4522  -0.4344  -0.4267  -0.4243  -0.4213  -0.4138
 -0.4088  -0.4074  -0.4002  -0.3892  -0.3852  -0.3716  -0.3607  -0.3584
 -0.3575  -0.3574  -0.3467  -0.3345  -0.3329  -0.3193  -0.3175  -0.3138
 -0.2531  -0.2469  -0.2445  -0.2434  -0.2363  -0.2333

          Ground-State Mulliken Net Atomic Charges

     Atom                 Charge (a.u.)    Spin (a.u.)
  --------------------------------------------------------
      1 C                    -0.714323      -0.000472
      2 C                     0.658478       0.000751
      3 C                    -0.555802      -0.000060
      4 C                    -0.713895      -0.000476
      5 C                     0.209776       0.025648
      6 C                    -0.641329       0.035633
      7 C                    -0.123971       0.026595
      8 C                     0.189296       0.029253
      9 C                    -0.702245       0.105828
     10 O                    -0.479689       0.193016
     11 C                     0.134162       0.032681
     12 C                     0.091764       0.029460
     13 C                    -0.496123       0.042329
     14 C                    -0.503576       0.035491
     15 C                     0.078089       0.028393
     16 C                     0.403225       0.034506
     17 C                    -0.583836       0.115504
     18 O                    -0.480720       0.198893
     19 C                     0.491855       0.053240
     20 C                     0.056720       0.029070
     21 H                     0.170857      -0.000158
     22 H                     0.152238      -0.000089
     23 H                     0.154787      -0.000365
     24 H                     0.147891       0.000581
     25 H                     0.178128      -0.000100
     26 H                     0.148352       0.000592
     27 H                     0.155150      -0.000356
     28 H                     0.170317      -0.000163
     29 H                     0.152061      -0.000092
     30 H                     0.187806      -0.002681
     31 H                     0.183649      -0.001650
     32 H                     0.170272      -0.001391
     33 H                     0.196523      -0.003363
     34 H                     0.198821      -0.003135
     35 H                     0.170218      -0.001788
     36 H                     0.145074      -0.001124
  --------------------------------------------------------
  Sum of atomic charges =    -1.000002

                    Cartesian Multipole Moments
 -----------------------------------------------------------------
    Charge (ESU x 10^10)
                -4.8032
    Dipole Moment (Debye)
         X     -10.3250      Y      -0.5576      Z       1.0634
       Tot      10.3946
    Quadrupole Moments (Debye-Ang)
        XX    -134.4349     XY     -10.0794     YY    -150.1921
        XZ       5.7628     YZ      10.3883     ZZ    -131.5148

 Total job time:  120.04s(wall), 604.72s(cpu)
        *  Thank you very much for using Q-Chem.  Have a nice day.  *
