 Q-Chem 5.4, Q-Chem, Inc., Pleasanton, CA (2021)
 Q-Chem 5.4.0 for Intel X86 EM64T Linux

User input:
--------------------------------------------------------------
$molecule
-1 2
C                  2.8857550000      2.5183800000     -0.3399250000
O                  2.5559010000      1.1559040000     -0.2360720000
C                  1.2334620000      0.8016340000     -0.1641320000
C                  0.2317450000      1.7536630000     -0.1915020000
C                 -1.1190980000      1.3747610000     -0.1167500000
C                 -1.4729260000      0.0425460000     -0.0142430000
O                 -2.7865660000     -0.3426060000      0.0597500000
C                 -3.7836710000      0.6478670000      0.0321620000
C                 -0.4707650000     -0.9804500000      0.0177130000
C                 -0.8502790000     -2.4105150000      0.1275080000
O                 -2.0347950000     -2.8276390000      0.1999110000
C                  0.2424600000     -3.3496130000      0.1489130000
C                  1.5531720000     -2.9820100000      0.0762340000
C                  1.9915640000     -1.6134790000     -0.0304450000
O                  3.2207610000     -1.3535750000     -0.0921550000
C                  0.9165210000     -0.5913180000     -0.0591860000
H                  3.9753990000      2.5550630000     -0.3826370000
H                  2.5413290000      3.0973340000      0.5289530000
H                  2.4758270000      2.9777180000     -1.2508410000
H                  0.4666040000      2.8061260000     -0.2706590000
H                 -1.8723780000      2.1500560000     -0.1414950000
H                 -4.7319560000      0.1129790000      0.1037720000
H                 -3.7007170000      1.3454920000      0.8778490000
H                 -3.7688810000      1.2275140000     -0.9019590000
H                 -0.0470820000     -4.3938540000      0.2289310000
H                  2.3486140000     -3.7219780000      0.0959780000
$end

$rem
BASIS  =  6-311++G(d,p)
GUI  =  2
JOB_TYPE  =  SP
METHOD  =  B3LYP
SCF_CONVERGENCE  = 8
SOLVENT_METHOD = sm12
$end

$smx
solvent dimethylformamide
charges CM5
$end

--------------------------------------------------------------

             Standard Nuclear Orientation (Angstroms)
    I     Atom           X                Y                Z
 ----------------------------------------------------------------
    1      C       2.8857550000     2.5183800000    -0.3399250000
    2      O       2.5559010000     1.1559040000    -0.2360720000
    3      C       1.2334620000     0.8016340000    -0.1641320000
    4      C       0.2317450000     1.7536630000    -0.1915020000
    5      C      -1.1190980000     1.3747610000    -0.1167500000
    6      C      -1.4729260000     0.0425460000    -0.0142430000
    7      O      -2.7865660000    -0.3426060000     0.0597500000
    8      C      -3.7836710000     0.6478670000     0.0321620000
    9      C      -0.4707650000    -0.9804500000     0.0177130000
   10      C      -0.8502790000    -2.4105150000     0.1275080000
   11      O      -2.0347950000    -2.8276390000     0.1999110000
   12      C       0.2424600000    -3.3496130000     0.1489130000
   13      C       1.5531720000    -2.9820100000     0.0762340000
   14      C       1.9915640000    -1.6134790000    -0.0304450000
   15      O       3.2207610000    -1.3535750000    -0.0921550000
   16      C       0.9165210000    -0.5913180000    -0.0591860000
   17      H       3.9753990000     2.5550630000    -0.3826370000
   18      H       2.5413290000     3.0973340000     0.5289530000
   19      H       2.4758270000     2.9777180000    -1.2508410000
   20      H       0.4666040000     2.8061260000    -0.2706590000
   21      H      -1.8723780000     2.1500560000    -0.1414950000
   22      H      -4.7319560000     0.1129790000     0.1037720000
   23      H      -3.7007170000     1.3454920000     0.8778490000
   24      H      -3.7688810000     1.2275140000    -0.9019590000
   25      H      -0.0470820000    -4.3938540000     0.2289310000
   26      H       2.3486140000    -3.7219780000     0.0959780000
 ----------------------------------------------------------------

   17    -764.4038510484      5.31e-09  Convergence criterion met
 Total energy in the final basis set =     -764.4987096532

                    Orbital Energies (a.u.)
 --------------------------------------------------------------

 Alpha MOs
 -- Occupied --
-19.1436 -19.1436 -19.0652 -19.0652 -10.2344 -10.2344 -10.2199 -10.2199
-10.2159 -10.2159 -10.1840 -10.1837 -10.1752 -10.1747 -10.1633 -10.1627
 -1.0639  -1.0634  -0.9920  -0.9899  -0.8557  -0.8043  -0.7624  -0.7510
 -0.7088  -0.6816  -0.6739  -0.6194  -0.6088  -0.5619  -0.5234  -0.5208
 -0.4986  -0.4928  -0.4670  -0.4624  -0.4616  -0.4447  -0.4345  -0.4166
 -0.4117  -0.4077  -0.4046  -0.3930  -0.3727  -0.3682  -0.3663  -0.3614
 -0.3377  -0.3324  -0.3269  -0.2931  -0.2732  -0.2585  -0.2261  -0.2222
 -0.2147  -0.1458

 Beta MOs
 -- Occupied --
-19.1436 -19.1435 -19.0583 -19.0583 -10.2344 -10.2344 -10.2190 -10.2190
-10.2159 -10.2159 -10.1835 -10.1832 -10.1746 -10.1740 -10.1619 -10.1612
 -1.0637  -1.0631  -0.9803  -0.9779  -0.8537  -0.7990  -0.7613  -0.7490
 -0.7083  -0.6798  -0.6659  -0.6161  -0.6068  -0.5609  -0.5220  -0.5194
 -0.4972  -0.4907  -0.4661  -0.4612  -0.4601  -0.4420  -0.4340  -0.4143
 -0.4072  -0.4041  -0.4015  -0.3868  -0.3638  -0.3597  -0.3562  -0.3554
 -0.3320  -0.3271  -0.3262  -0.2902  -0.2523  -0.2421  -0.2197  -0.2161
 -0.2076

          Ground-State Mulliken Net Atomic Charges

     Atom                 Charge (a.u.)    Spin (a.u.)
  --------------------------------------------------------
      1 C                     0.036683      -0.000964
      2 O                    -0.140400      -0.000394
      3 C                     0.635683       0.045868
      4 C                     2.047828       0.065489
      5 C                     2.046812       0.065546
      6 C                     0.639955       0.045987
      7 O                    -0.140848      -0.000375
      8 C                     0.037532      -0.000958
      9 C                    -2.179217       0.029975
     10 C                    -1.239588       0.023186
     11 O                    -0.332264       0.257343
     12 C                    -0.600396       0.092236
     13 C                    -0.599407       0.092112
     14 C                    -1.234843       0.023205
     15 O                    -0.332071       0.257310
     16 C                    -2.183186       0.030171
     17 H                     0.254814      -0.000352
     18 H                     0.230468       0.000688
     19 H                     0.230907       0.000676
     20 H                     0.374649      -0.003584
     21 H                     0.375212      -0.003588
     22 H                     0.255163      -0.000355
     23 H                     0.230880       0.000688
     24 H                     0.230352       0.000686
     25 H                     0.177652      -0.010293
     26 H                     0.177630      -0.010305
  --------------------------------------------------------
  Sum of atomic charges =    -1.000000

                    Cartesian Multipole Moments
 -----------------------------------------------------------------
    Charge (ESU x 10^10)
                -4.8032
    Dipole Moment (Debye)
         X      -3.5224      Y      12.4094      Z      -0.3900
       Tot      12.9056
    Quadrupole Moments (Debye-Ang)
        XX    -124.7565     XY      -2.7932     YY    -115.4278
        XZ       1.3489     YZ       0.3846     ZZ     -99.2584

 Total job time:  636.09s(wall), 4308.83s(cpu)
        *  Thank you very much for using Q-Chem.  Have a nice day.  *
