 Q-Chem 5.4, Q-Chem, Inc., Pleasanton, CA (2021)
 Q-Chem 5.4.0 for Intel X86 EM64T Linux

User input:
--------------------------------------------------------------
$molecule
0 1
C                  4.9913220000     -2.0561900000      0.4419460000
C                  5.7299600000     -1.3281400000     -0.4784040000
C                  5.1253070000     -0.5693550000     -1.4816910000
C                  3.5969970000     -2.0344500000      0.3548550000
C                  2.9700130000     -1.2793270000     -0.6513560000
C                  3.7394060000     -0.5491770000     -1.5624520000
C                  2.8053110000     -2.8227490000      1.3461160000
C                  1.3171410000     -2.7709550000      1.2301590000
C                  0.6849470000     -2.0179680000      0.2255670000
C                  1.4803110000     -1.2350870000     -0.7691790000
C                  0.5483460000     -3.4911220000      2.1479620000
C                 -0.7106670000     -1.9879110000      0.1452060000
C                 -1.4791730000     -2.7040190000      1.0531520000
O                  3.3504360000     -3.4825710000      2.2107690000
O                  0.9352100000     -0.5858180000     -1.6426860000
H                  5.4694570000     -2.6293370000      1.2261720000
S                  7.5220910000     -1.3539230000     -0.3734750000
H                 -2.5608690000     -2.6841530000      1.0122840000
H                  3.2333820000      0.0293110000     -2.3249630000
H                  1.0394910000     -4.0594250000      2.9276620000
H                 -1.1745480000     -1.3963550000     -0.6339010000
C                 -0.8335470000     -3.4485310000      2.0414290000
S                 -1.8268830000     -4.3728040000      3.2171710000
O                 -1.0971660000     -4.5294460000      4.4664520000
O                 -3.1829650000     -3.8425740000      3.2209970000
O                 -1.8129110000     -5.8007670000      2.4127310000
C                 -2.4590610000     -6.9143330000      3.0830670000
H                 -1.9629730000     -7.1223240000      4.0321080000
H                 -2.3394550000     -7.7537400000      2.4022070000
H                 -3.5181570000     -6.7007840000      3.2363440000
H                  5.7364970000     -0.0018910000     -2.1720310000
O                  7.9341860000     -1.6204730000      0.9964960000
O                  8.0616100000     -0.2083270000     -1.0922580000
O                  7.7558210000     -2.7061030000     -1.2698660000
C                  9.1277700000     -3.1672730000     -1.3789310000
H                  9.5228260000     -3.4122870000     -0.3920370000
H                  9.7436620000     -2.4105080000     -1.8675700000
H                  9.0706640000     -4.0611220000     -1.9955820000
$end
$rem
MAX_SCF_CYCLES=200
BASIS  =  6-311++G(d,p)
GUI  =  2
JOB_TYPE  =  SP
METHOD  =  B3LYP
SOLVENT_METHOD = COSMO
$end
$solvent
dielectric 37.219
opticaldielectric 1.43
$end

--------------------------------------------------------------

             Standard Nuclear Orientation (Angstroms)
    I     Atom           X                Y                Z
 ----------------------------------------------------------------
    1      C       2.4850213680    -0.4667872894     0.3241025337
    2      C       3.6714266501     0.2382821872     0.1899140104
    3      C       3.6946988463     1.6097494119    -0.0679246746
    4      C       1.2751092874     0.2186494248     0.1881284794
    5      C       1.2783714139     1.5992832713    -0.0757271600
    6      C       2.4896902321     2.2866651494    -0.1997973275
    7      C      -0.0004534813    -0.5452680497     0.3300796031
    8      C      -1.2756434320     0.2191527899     0.1874964241
    9      C      -1.2782101773     1.5997058856    -0.0769469985
   10      C       0.0002723243     2.3603766792    -0.2248949426
   11      C      -2.4858492102    -0.4656917200     0.3232851516
   12      C      -2.4891845019     2.2873789027    -0.2024330836
   13      C      -3.6945747334     1.6109456283    -0.0710919485
   14      O      -0.0007401161    -1.7418780268     0.5497967578
   15      O       0.0005746276     3.5550502096    -0.4582506321
   16      H       2.4775125840    -1.5277576422     0.5395242353
   17      S       5.2295619035    -0.6371307861     0.3610135069
   18      H      -4.6415085346     2.1290264896    -0.1549947795
   19      H       2.4663586800     3.3508676128    -0.3974344583
   20      H      -2.4787780758    -1.5265073776     0.5394886215
   21      H      -2.4653803536     3.3514475348    -0.4007336367
   22      C      -3.6719536771     0.2397462010     0.1879889213
   23      S      -5.2303468307    -0.6349553489     0.3602509758
   24      O      -5.0524952982    -1.7996839759     1.2143602727
   25      O      -6.2905031421     0.3236924610     0.6380635994
   26      O      -5.3538339737    -1.1332165434    -1.1963106090
   27      C      -6.4830159151    -1.9929151429    -1.5008690975
   28      H      -6.4256637791    -2.9119875747    -0.9160110145
   29      H      -6.3846230350    -2.2130026959    -2.5612276956
   30      H      -7.4205144811    -1.4681396385    -1.3098495692
   31      H       4.6418449621     2.1276579687    -0.1505254312
   32      O       5.0503741361    -1.8059857422     1.2091653611
   33      O       6.2893348298     0.3200830164     0.6451666851
   34      O       5.3559310056    -1.1277458387    -1.1977889214
   35      C       6.4863501876    -1.9848839649    -1.5048454426
   36      H       6.4297211489    -2.9063470284    -0.9236743446
   37      H       7.4230759635    -1.4597331355    -1.3110782618
   38      H       6.3890461138    -2.2010070212    -2.5661221867
 ----------------------------------------------------------------

    9   -2015.3482787491      5.21e-06  Convergence criterion met
 Total energy in the final basis set =    -2015.3482787491
    5   -2015.3811130279      4.34e-06  Convergence criterion met
 Total energy in the final basis set =    -2015.3811130279

                    Orbital Energies (a.u.)
 --------------------------------------------------------------

 Alpha MOs
 -- Occupied --
-89.1063 -89.1063 -19.1917 -19.1917 -19.1548 -19.1547 -19.1544 -19.1544
-19.1494 -19.1474 -10.3012 -10.3004 -10.2493 -10.2493 -10.2349 -10.2349
-10.2307 -10.2307 -10.2297 -10.2297 -10.2263 -10.2263 -10.2246 -10.2246
-10.2158 -10.2158  -8.1672  -8.1672  -6.1308  -6.1308  -6.1292  -6.1292
 -6.1279  -6.1279  -1.1756  -1.1756  -1.0850  -1.0830  -1.0641  -1.0641
 -1.0498  -1.0498  -0.9198  -0.9112  -0.8471  -0.8173  -0.8052  -0.7991
 -0.7626  -0.7510  -0.7119  -0.7001  -0.6826  -0.6510  -0.6426  -0.6262
 -0.6076  -0.5883  -0.5860  -0.5542  -0.5506  -0.5393  -0.5358  -0.5294
 -0.5144  -0.5047  -0.5036  -0.4868  -0.4792  -0.4742  -0.4735  -0.4727
 -0.4699  -0.4690  -0.4686  -0.4641  -0.4615  -0.4397  -0.4357  -0.4276
 -0.4203  -0.4194  -0.4143  -0.4004  -0.3952  -0.3918  -0.3715  -0.3715
 -0.3679  -0.3672  -0.3570  -0.3567  -0.3521  -0.3520  -0.3198  -0.3198
 -0.3118  -0.3052  -0.3035  -0.2984  -0.2971  -0.2928

          Ground-State Mulliken Net Atomic Charges

     Atom                 Charge (a.u.)
  ----------------------------------------
      1 C                     0.019737
      2 C                    -0.707689
      3 C                    -0.294666
      4 C                     0.443262
      5 C                     0.405407
      6 C                    -0.020216
      7 C                    -0.861133
      8 C                     0.439000
      9 C                     0.404002
     10 C                    -0.428259
     11 C                     0.015300
     12 C                    -0.017371
     13 C                    -0.293704
     14 O                    -0.239664
     15 O                    -0.246584
     16 H                     0.247226
     17 S                     0.374831
     18 H                     0.279029
     19 H                     0.217688
     20 H                     0.247047
     21 H                     0.217682
     22 C                    -0.705885
     23 S                     0.378420
     24 O                    -0.230139
     25 O                    -0.187241
     26 O                    -0.069957
     27 C                    -0.171114
     28 H                     0.187683
     29 H                     0.205935
     30 H                     0.187858
     31 H                     0.279175
     32 O                    -0.229613
     33 O                    -0.187700
     34 O                    -0.069340
     35 C                    -0.170478
     36 H                     0.187724
     37 H                     0.187845
     38 H                     0.205862
  ----------------------------------------
  Sum of atomic charges =    -0.000039

                    Cartesian Multipole Moments
 -----------------------------------------------------------------
    Charge (ESU x 10^10)
                -0.0002
    Dipole Moment (Debye)
         X       0.0050      Y       1.6202      Z      -6.7012
       Tot       6.8943
    Quadrupole Moments (Debye-Ang)
        XX    -168.9273     XY       0.1009     YY    -166.5891
        XZ      -0.0366     YZ      14.9662     ZZ    -165.5370

 Total job time:  139.75s(wall), 978.54s(cpu)
        *  Thank you very much for using Q-Chem.  Have a nice day.  *
