 Q-Chem 5.4, Q-Chem, Inc., Pleasanton, CA (2021)
 Q-Chem 5.4.0 for Intel X86 EM64T Linux

User input:
--------------------------------------------------------------
$molecule
-2 1
O                 -0.0512010000     -1.1933200000      1.2841520000
C                 -0.4564080000     -0.3763240000      0.3812300000
C                 -1.9316230000     -0.2347830000      0.2173940000
C                 -2.7489750000     -1.0316910000      1.0635840000
C                 -4.1361220000     -0.9865160000      1.0064890000
C                 -4.7901020000     -0.1517050000      0.0900450000
C                 -4.0032790000      0.6321670000     -0.7641000000
C                 -2.6111630000      0.5954060000     -0.7129310000
C                  0.4564360000      0.3763170000     -0.4818120000
O                  0.0512640000      1.1935110000     -1.3845760000
C                  1.9316260000      0.2348040000     -0.3179100000
C                  2.7490120000      1.0317200000     -1.1640610000
C                  4.1361550000      0.9865040000     -1.1069390000
C                  4.7900890000      0.1516520000     -0.1904980000
C                  4.0032270000     -0.6322180000      0.6636180000
C                  2.6111160000     -0.5954130000      0.6124300000
H                 -2.2353150000     -1.6825550000      1.7616280000
H                 -4.7229730000     -1.6088700000      1.6810270000
H                 -5.8768810000     -0.1077050000      0.0499650000
H                 -4.4877840000      1.2874820000     -1.4864050000
H                 -2.0081830000      1.1948530000     -1.3803050000
H                  2.2353760000      1.6826010000     -1.8621080000
H                  4.7230390000      1.6088580000     -1.7814500000
H                  5.8768640000      0.1076180000     -0.1503960000
H                  4.4877050000     -1.2875530000      1.3859240000
H                  2.0081020000     -1.1948400000      1.2797900000
$end
$rem
MAX_SCF_CYCLES=200
BASIS  =  6-311++G(d,p)
GUI  =  2
JOB_TYPE  =  SP
METHOD  =  B3LYP
SOLVENT_METHOD = PCM
$end
$pcm
theory = CPCM
$end
$solvent
dielectric 37.219
opticaldielectric 1.43
$end

--------------------------------------------------------------

             Standard Nuclear Orientation (Angstroms)
    I     Atom           X                Y                Z
 ----------------------------------------------------------------
    1      O      -0.0512010000    -1.1933200000     1.2841520000
    2      C      -0.4564080000    -0.3763240000     0.3812300000
    3      C      -1.9316230000    -0.2347830000     0.2173940000
    4      C      -2.7489750000    -1.0316910000     1.0635840000
    5      C      -4.1361220000    -0.9865160000     1.0064890000
    6      C      -4.7901020000    -0.1517050000     0.0900450000
    7      C      -4.0032790000     0.6321670000    -0.7641000000
    8      C      -2.6111630000     0.5954060000    -0.7129310000
    9      C       0.4564360000     0.3763170000    -0.4818120000
   10      O       0.0512640000     1.1935110000    -1.3845760000
   11      C       1.9316260000     0.2348040000    -0.3179100000
   12      C       2.7490120000     1.0317200000    -1.1640610000
   13      C       4.1361550000     0.9865040000    -1.1069390000
   14      C       4.7900890000     0.1516520000    -0.1904980000
   15      C       4.0032270000    -0.6322180000     0.6636180000
   16      C       2.6111160000    -0.5954130000     0.6124300000
   17      H      -2.2353150000    -1.6825550000     1.7616280000
   18      H      -4.7229730000    -1.6088700000     1.6810270000
   19      H      -5.8768810000    -0.1077050000     0.0499650000
   20      H      -4.4877840000     1.2874820000    -1.4864050000
   21      H      -2.0081830000     1.1948530000    -1.3803050000
   22      H       2.2353760000     1.6826010000    -1.8621080000
   23      H       4.7230390000     1.6088580000    -1.7814500000
   24      H       5.8768640000     0.1076180000    -0.1503960000
   25      H       4.4877050000    -1.2875530000     1.3859240000
   26      H       2.0081020000    -1.1948400000     1.2797900000
 ----------------------------------------------------------------

    9    -690.3566814041      9.88e-06  Convergence criterion met
 Total energy in the final basis set =     -690.3566814041

                    Orbital Energies (a.u.)
 --------------------------------------------------------------

 Alpha MOs
 -- Occupied --
-19.0086 -19.0086 -10.1602 -10.1599 -10.1528 -10.1528 -10.1513 -10.1513
-10.1475 -10.1475 -10.1443 -10.1443 -10.1392 -10.1392 -10.1373 -10.1373
 -0.9401  -0.9221  -0.8258  -0.8238  -0.7243  -0.7211  -0.7188  -0.7178
 -0.6256  -0.5910  -0.5789  -0.5718  -0.5487  -0.5119  -0.4864  -0.4538
 -0.4419  -0.4212  -0.4157  -0.4146  -0.3953  -0.3937  -0.3790  -0.3773
 -0.3670  -0.3491  -0.3479  -0.3338  -0.3215  -0.3120  -0.3092  -0.3061
 -0.2813  -0.2358  -0.2351  -0.2257  -0.2188  -0.2118  -0.1688  -0.0964

          Ground-State Mulliken Net Atomic Charges

     Atom                 Charge (a.u.)
  ----------------------------------------
      1 O                    -0.656023
      2 C                    -0.347020
      3 C                     1.467389
      4 C                     0.276627
      5 C                    -0.369353
      6 C                    -0.546188
      7 C                    -0.457173
      8 C                    -1.217548
      9 C                    -0.346974
     10 O                    -0.656063
     11 C                     1.467826
     12 C                     0.276504
     13 C                    -0.369477
     14 C                    -0.546125
     15 C                    -0.457316
     16 C                    -1.217714
     17 H                     0.158973
     18 H                     0.181254
     19 H                     0.157653
     20 H                     0.191692
     21 H                     0.159745
     22 H                     0.158967
     23 H                     0.181256
     24 H                     0.157654
     25 H                     0.191705
     26 H                     0.159728
  ----------------------------------------
  Sum of atomic charges =    -2.000000

                    Cartesian Multipole Moments
 -----------------------------------------------------------------
    Charge (ESU x 10^10)
                -9.6064
    Dipole Moment (Debye)
         X      -0.0006      Y      -0.0007      Z       0.4827
       Tot       0.4827
    Quadrupole Moments (Debye-Ang)
        XX    -133.6241     XY      -2.2175     YY    -115.1417
        XZ       2.2763     YZ       7.0076     ZZ    -117.0378

 Total job time:  56.67s(wall), 256.13s(cpu)
        *  Thank you very much for using Q-Chem.  Have a nice day.  *
