 Gaussian 16, Revision A.03,
 Gaussian 16:  ES64L-G16RevA.03 25-Dec-2016

 ----------------------------------------------
 #P UB3LYP/6-311++G(d,p) nosym opt freq SCF=YQC
 ----------------------------------------------

 -------
 Reduced
 -------
 Symbolic Z-matrix:
 Charge = -2 Multiplicity = 1

 SCF Done:  E(UB3LYP) =  -690.084637962     a.u. after    7 cycles
 SCF Done:  E(UB3LYP) =  -690.089533801     A.U. after   33 cycles
 SCF Done:  E(UB3LYP) =  -690.089533801     a.u. after    1 cycles
 SCF Done:  E(UB3LYP) =  -690.089498720     a.u. after    1 cycles
 SCF Done:  E(UB3LYP) =  -690.089533929     A.U. after   29 cycles
 SCF Done:  E(UB3LYP) =  -690.089504417     a.u. after    1 cycles
 SCF Done:  E(UB3LYP) =  -690.089533895     A.U. after   33 cycles
 SCF Done:  E(UB3LYP) =  -690.089533895     a.u. after    1 cycles
 Optimization completed.
    -- Stationary point found.
 Normal termination of Gaussian 16 at Tue Jan  9 22:11:20 2024.

 ----------------------------------------------------------------------
 #P Geom=AllCheck Guess=TCheck SCRF=Check GenChk UB3LYP/6-311++G(d,p) F
 req
 ----------------------------------------------------------------------

 Structure from the checkpoint file:  "346-an.chk"
 -------
 Reduced
 -------
 Charge = -2 Multiplicity = 1

                          Input orientation:
 ---------------------------------------------------------------------
 Center     Atomic      Atomic             Coordinates (Angstroms)
 Number     Number       Type             X           Y           Z
 ---------------------------------------------------------------------
      1          8           0       -0.051201   -1.193320    1.284152
      2          6           0       -0.456408   -0.376324    0.381230
      3          6           0       -1.931623   -0.234783    0.217394
      4          6           0       -2.748975   -1.031691    1.063584
      5          6           0       -4.136122   -0.986516    1.006489
      6          6           0       -4.790102   -0.151705    0.090045
      7          6           0       -4.003279    0.632167   -0.764100
      8          6           0       -2.611163    0.595406   -0.712931
      9          6           0        0.456436    0.376317   -0.481812
     10          8           0        0.051264    1.193511   -1.384576
     11          6           0        1.931626    0.234804   -0.317910
     12          6           0        2.749012    1.031720   -1.164061
     13          6           0        4.136155    0.986504   -1.106939
     14          6           0        4.790089    0.151652   -0.190498
     15          6           0        4.003227   -0.632218    0.663618
     16          6           0        2.611116   -0.595413    0.612430
     17          1           0       -2.235315   -1.682555    1.761628
     18          1           0       -4.722973   -1.608870    1.681027
     19          1           0       -5.876881   -0.107705    0.049965
     20          1           0       -4.487784    1.287482   -1.486405
     21          1           0       -2.008183    1.194853   -1.380305
     22          1           0        2.235376    1.682601   -1.862108
     23          1           0        4.723039    1.608858   -1.781450
     24          1           0        5.876864    0.107618   -0.150396
     25          1           0        4.487705   -1.287553    1.385924
     26          1           0        2.008102   -1.194840    1.279790
 ---------------------------------------------------------------------

 SCF Done:  E(UB3LYP) =  -690.089533895     a.u. after    1 cycles
 SCF Done:  E(UB3LYP) =  -690.089533895     A.U. after   12 cycles

 Alpha  occ. eigenvalues --  -18.80128 -18.80127  -9.95692  -9.95659  -9.94926
 Alpha  occ. eigenvalues --   -9.94926  -9.94693  -9.94693  -9.94626  -9.94626
 Alpha  occ. eigenvalues --   -9.93347  -9.93347  -9.93201  -9.93201  -9.92855
 Alpha  occ. eigenvalues --   -9.92855  -0.72773  -0.70907  -0.61819  -0.61632
 Alpha  occ. eigenvalues --   -0.51662  -0.51332  -0.51190  -0.51105  -0.41831
 Alpha  occ. eigenvalues --   -0.38515  -0.37170  -0.36500  -0.34363  -0.30630
 Alpha  occ. eigenvalues --   -0.28240  -0.24903  -0.23553  -0.21379  -0.21004
 Alpha  occ. eigenvalues --   -0.20798  -0.18933  -0.18896  -0.17288  -0.16488
 Alpha  occ. eigenvalues --   -0.15247  -0.13845  -0.13726  -0.12894  -0.10984
 Alpha  occ. eigenvalues --   -0.10304  -0.09941  -0.09814  -0.06416  -0.02567
 Alpha  occ. eigenvalues --   -0.02546  -0.01260  -0.00627   0.00329   0.04538
 Alpha  occ. eigenvalues --    0.12596
 Alpha virt. eigenvalues --    0.13956   0.14107   0.16107   0.16148   0.17456
 Alpha virt. eigenvalues --    0.17684   0.19082   0.20422   0.20783   0.21620
 Alpha virt. eigenvalues --    0.21761   0.22789   0.23472   0.23863   0.24224

  Beta  occ. eigenvalues --  -18.80128 -18.80127  -9.95692  -9.95659  -9.94926
  Beta  occ. eigenvalues --   -9.94926  -9.94693  -9.94693  -9.94626  -9.94626
  Beta  occ. eigenvalues --   -9.93347  -9.93347  -9.93201  -9.93201  -9.92855
  Beta  occ. eigenvalues --   -9.92855  -0.72773  -0.70907  -0.61819  -0.61632
  Beta  occ. eigenvalues --   -0.51662  -0.51332  -0.51190  -0.51105  -0.41831
  Beta  occ. eigenvalues --   -0.38515  -0.37170  -0.36500  -0.34363  -0.30630
  Beta  occ. eigenvalues --   -0.28240  -0.24903  -0.23553  -0.21379  -0.21004
  Beta  occ. eigenvalues --   -0.20798  -0.18933  -0.18896  -0.17288  -0.16488
  Beta  occ. eigenvalues --   -0.15247  -0.13845  -0.13726  -0.12894  -0.10984
  Beta  occ. eigenvalues --   -0.10304  -0.09941  -0.09814  -0.06416  -0.02567
  Beta  occ. eigenvalues --   -0.02546  -0.01260  -0.00627   0.00329   0.04538
  Beta  occ. eigenvalues --    0.12596
  Beta virt. eigenvalues --    0.13956   0.14107   0.16107   0.16148   0.17456
  Beta virt. eigenvalues --    0.17684   0.19082   0.20422   0.20783   0.21620
  Beta virt. eigenvalues --    0.21761   0.22789   0.23472   0.23863   0.24224

 Mulliken charges and spin densities:
               1          2
     1  O   -0.416299  -0.000000
     2  C   -0.172075  -0.000000
     3  C    1.859573   0.000000
     4  C    0.281568   0.000000
     5  C    0.014291  -0.000000
     6  C   -0.013824   0.000000
     7  C   -0.398526  -0.000000
     8  C   -1.469242   0.000000
     9  C   -0.172498  -0.000000
    10  O   -0.416323  -0.000000
    11  C    1.859096  -0.000000
    12  C    0.281735   0.000000
    13  C    0.013836   0.000000
    14  C   -0.013862  -0.000000
    15  C   -0.398649   0.000000
    16  C   -1.469074  -0.000000
    17  H    0.175921   0.000000
    18  H   -0.082692  -0.000000
    19  H   -0.987684   0.000000
    20  H    0.009510  -0.000000
    21  H    0.199995   0.000000
    22  H    0.175926   0.000000
    23  H   -0.082676  -0.000000
    24  H   -0.987543   0.000000
    25  H    0.009521   0.000000
    26  H    0.199993  -0.000000
 Sum of Mulliken charges =  -2.00000  -0.00000

 Dipole moment (field-independent basis, Debye):
    X=              0.0008    Y=             -0.0003    Z=              0.4824  Tot=              0.4824
 Quadrupole moment (field-independent basis, Debye-Ang):
   XX=           -273.8850   YY=           -121.9388   ZZ=           -123.4586
   XY=             -3.3017   XZ=              9.7934   YZ=              6.9138

  Exact polarizability:8594.556 182.530 672.933-390.139-542.776 750.453
 Approx polarizability:******** 334.806 500.683-797.532-311.042 581.425

                      1                      2                      3
                      A                      A                      A
 Frequencies --     35.1867                52.9810                96.2771
 Red. masses --      6.4408                 3.8327                 6.8007
 Frc consts  --      0.0047                 0.0063                 0.0371
 IR Inten    --      1.8257                 1.1191                 0.4234

                      4                      5                      6
                      A                      A                      A
 Frequencies --    118.4732               159.9899               188.8940
 Red. masses --      5.1472                 4.5315                 5.5140
 Frc consts  --      0.0426                 0.0683                 0.1159
 IR Inten    --      1.4692                 1.1796                36.3136

                      7                      8                      9
                      A                      A                      A
 Frequencies --    221.7233               281.0169               326.6137
 Red. masses --      6.1333                 4.9481                 7.6625
 Frc consts  --      0.1777                 0.2302                 0.4816
 IR Inten    --      3.0996                 4.2729                82.9678

                     10                     11                     12
                      A                      A                      A
 Frequencies --    377.7646               410.4678               425.0933
 Red. masses --      4.6888                11.3961                 3.2156
 Frc consts  --      0.3942                 1.1313                 0.3424
 IR Inten    --     43.2480                 0.4475                 1.1583

                     13                     14                     15
                      A                      A                      A
 Frequencies --    427.8459               443.3597               455.9648
 Red. masses --      3.2630                 3.4110                 8.4591
 Frc consts  --      0.3519                 0.3950                 1.0362
 IR Inten    --      0.8922                 8.2590                37.0401

                     16                     17                     18
                      A                      A                      A
 Frequencies --    581.7087               614.3083               631.6132
 Red. masses --      3.6419                 9.7062                 6.4284
 Frc consts  --      0.7261                 2.1581                 1.5110
 IR Inten    --     40.1732                 4.7597                 7.2896

                     19                     20                     21
                      A                      A                      A
 Frequencies --    632.2275               638.0253               701.9136
 Red. masses --      6.4247                 7.6850                 2.8200
 Frc consts  --      1.5130                 1.8432                 0.8186
 IR Inten    --      0.1544                15.7328                 0.3641

                     22                     23                     24
                      A                      A                      A
 Frequencies --    703.5708               718.4314               732.6489
 Red. masses --      1.8823                 7.1482                 2.2498
 Frc consts  --      0.5490                 2.1738                 0.7115
 IR Inten    --     62.0630                 0.1377                 2.5405

                     25                     26                     27
                      A                      A                      A
 Frequencies --    822.0538               827.3747               830.4974
 Red. masses --      6.1650                 1.7750                 1.2780
 Frc consts  --      2.4546                 0.7159                 0.5194
 IR Inten    --     57.3259                 0.4422               122.9894

                     28                     29                     30
                      A                      A                      A
 Frequencies --    836.5367               862.4360               915.7577
 Red. masses --      1.7537                 2.2840                 1.3161
 Frc consts  --      0.7231                 1.0009                 0.6503
 IR Inten    --      9.2871                11.5633                 3.1766

                     31                     32                     33
                      A                      A                      A
 Frequencies --    923.8266               965.9353               966.7904
 Red. masses --      1.3380                 1.2485                 1.2714
 Frc consts  --      0.6728                 0.6863                 0.7001
 IR Inten    --    568.3664                12.4970               126.8009

                     34                     35                     36
                      A                      A                      A
 Frequencies --    986.8768               989.0584               990.2214
 Red. masses --      5.6013                 1.9246                 2.3642
 Frc consts  --      3.2142                 1.1093                 1.3658
 IR Inten    --    728.3873                 4.3448                 5.6143

                     37                     38                     39
                      A                      A                      A
 Frequencies --    990.7553              1026.6807              1029.3582
 Red. masses --      1.2818                 2.5542                 2.0690
 Frc consts  --      0.7413                 1.5863                 1.2916
 IR Inten    --     15.7755                 1.2111               257.5216

                     40                     41                     42
                      A                      A                      A
 Frequencies --   1061.7242              1068.3961              1077.5204
 Red. masses --      2.6030                 1.5956                 1.8150
 Frc consts  --      1.7288                 1.0731                 1.2416
 IR Inten    --     41.8517               324.0902                 3.0875

                     43                     44                     45
                      A                      A                      A
 Frequencies --   1112.6262              1150.2717              1153.4668
 Red. masses --      2.1037                 1.1329                 1.0881
 Frc consts  --      1.5344                 0.8832                 0.8530
 IR Inten    --   2193.7061                12.9763               376.8601

                     46                     47                     48
                      A                      A                      A
 Frequencies --   1159.5336              1201.5562              1274.3175
 Red. masses --      1.1942                 1.7640                 2.5801
 Frc consts  --      0.9460                 1.5005                 2.4685
 IR Inten    --     16.0642                 7.2501                 0.1639

                     49                     50                     51
                      A                      A                      A
 Frequencies --   1307.6598              1307.7717              1332.6237
 Red. masses --      2.9864                 2.0907                 3.6126
 Frc consts  --      3.0088                 2.1067                 3.7799
 IR Inten    --      4.7630                 3.4931               117.2289

                     52                     53                     54
                      A                      A                      A
 Frequencies --   1343.0126              1377.3314              1417.3617
 Red. masses --      3.2149                 6.7787                 3.9285
 Frc consts  --      3.4164                 7.5766                 4.6499
 IR Inten    --     52.9714              1014.3866                47.4794

                     55                     56                     57
                      A                      A                      A
 Frequencies --   1456.5446              1467.9914              1484.0379
 Red. masses --      2.3760                 2.5966                 2.1239
 Frc consts  --      2.9700                 3.2968                 2.7560
 IR Inten    --      6.2527                 3.3654              1084.1388

                     58                     59                     60
                      A                      A                      A
 Frequencies --   1493.7435              1555.8067              1558.4482
 Red. masses --      2.3854                 5.3130                 4.8868
 Frc consts  --      3.1359                 7.5771                 6.9930
 IR Inten    --      5.4992                 5.3614               106.1239

                     61                     62                     63
                      A                      A                      A
 Frequencies --   1592.7776              1594.5912              3091.7362
 Red. masses --      5.1814                 5.2417                 1.0833
 Frc consts  --      7.7447                 7.8528                 6.1013
 IR Inten    --   1425.8033               107.3834               158.2010

                     64                     65                     66
                      A                      A                      A
 Frequencies --   3092.7508              3103.5365              3103.8495
 Red. masses --      1.0835                 1.0882                 1.0881
 Frc consts  --      6.1062                 6.1754                 6.1763
 IR Inten    --    311.5114                16.8275               389.3278

                     67                     68                     69
                      A                      A                      A
 Frequencies --   3127.3437              3130.8249              3178.0538
 Red. masses --      1.0947                 1.0950                 1.0895
 Frc consts  --      6.3080                 6.3240                 6.4834
 IR Inten    --   1430.2569               483.1768                 4.0538

                     70                     71                     72
                      A                      A                      A
 Frequencies --   3178.1967              3206.1374              3206.5962
 Red. masses --      1.0895                 1.0914                 1.0916
 Frc consts  --      6.4839                 6.6099                 6.6131
 IR Inten    --     18.0143                32.9620                 0.0780

 - Thermochemistry -
 -------------------
 Temperature   298.150 Kelvin.  Pressure   1.00000 Atm.
 Atom     1 has atomic number  8 and mass  15.99491

 Molecular mass:   210.06808 amu.
 Principal axes and moments of inertia in atomic units:
                           1         2         3
     Eigenvalues --  1013.352957047.541458060.77425
           X            0.99567   0.09288  -0.00354
           Y            0.06496  -0.66814   0.74120
           Z           -0.06648   0.73822   0.67128
 This molecule is an asymmetric top.
 Rotational symmetry number  1.
 Warning -- assumption of classical behavior for rotation
           may cause significant error
 Rotational temperatures (Kelvin)      0.08547     0.01229     0.01075
 Rotational constants (GHZ):           1.78096     0.25608     0.22389
 Zero-point vibrational energy     513846.3 (Joules/Mol)
                                  122.81222 (Kcal/Mol)
 Warning -- explicit consideration of  17 degrees of freedom as
           vibrations may cause significant error
 Vibrational temperatures:     50.63    76.23   138.52   170.46   230.19
          (Kelvin)            271.78   319.01   404.32   469.92   543.52
                              590.57   611.61   615.57   637.90   656.03
                              836.95   883.85   908.75   909.63   917.98
                             1009.90  1012.28  1033.66  1054.12  1182.75
                             1190.41  1194.90  1203.59  1240.85  1317.57
                             1329.18  1389.77  1391.00  1419.90  1423.03
                             1424.71  1425.48  1477.16  1481.02  1527.58
                             1537.18  1550.31  1600.82  1654.98  1659.58
                             1668.31  1728.77  1833.46  1881.43  1881.59
                             1917.35  1932.30  1981.67  2039.27  2095.64
                             2112.11  2135.20  2149.16  2238.46  2242.26
                             2291.65  2294.26  4448.32  4449.78  4465.30
                             4465.75  4499.55  4504.56  4572.51  4572.72
                             4612.92  4613.58

 Zero-point correction=                           0.195714 (Hartree/Particle)
 Thermal correction to Energy=                    0.208191
 Thermal correction to Enthalpy=                  0.209135
 Thermal correction to Gibbs Free Energy=         0.155936
 Sum of electronic and zero-point Energies=           -689.893820
 Sum of electronic and thermal Energies=              -689.881343
 Sum of electronic and thermal Enthalpies=            -689.880399
 Sum of electronic and thermal Free Energies=         -689.933598

                     E (Thermal)             CV                S
                      KCal/Mol        Cal/Mol-Kelvin    Cal/Mol-Kelvin
 Total                  130.642             49.958            111.966
 Electronic               0.000              0.000              0.000
 Translational            0.889              2.981             41.931
 Rotational               0.889              2.981             32.421
 Vibrational            128.864             43.996             37.615
 Vibration     1          0.594              1.982              5.513
 Vibration     2          0.596              1.976              4.703
 Vibration     3          0.603              1.952              3.528
 Vibration     4          0.609              1.934              3.125
 Vibration     5          0.622              1.891              2.550
 Vibration     6          0.633              1.855              2.239
 Vibration     7          0.648              1.808              1.945
 Vibration     8          0.681              1.709              1.527
 Vibration     9          0.710              1.622              1.277
 Vibration    10          0.748              1.518              1.048
 Vibration    11          0.775              1.448              0.925
 Vibration    12          0.787              1.416              0.875
 Vibration    13          0.789              1.410              0.866
 Vibration    14          0.803              1.376              0.816
 Vibration    15          0.814              1.348              0.778
 Vibration    16          0.938              1.071              0.482
 Vibration    17          0.974              1.002              0.426

 Optimization completed.
    -- Stationary point found.
 Normal termination of Gaussian 16 at Tue Jan  9 22:38:48 2024.
