 Gaussian 16, Revision A.03,
 Gaussian 16:  ES64L-G16RevA.03 25-Dec-2016

 ----------------------------------------------------------------------
 #P UB3LYP/6-311++G(d,p) nosym opt freq SCRF=(PCM,Solvent=n,n-DiMethylF
 ormamide)
 ----------------------------------------------------------------------

 --------
 Oxidized
 --------
 Symbolic Z-matrix:
 Charge =  0 Multiplicity = 1

 SCF Done:  E(UB3LYP) =  -3777.49701925     A.U. after   16 cycles
 SCF Done:  E(UB3LYP) =  -3777.49715575     A.U. after   12 cycles
 SCF Done:  E(UB3LYP) =  -3777.49717286     A.U. after   11 cycles
 SCF Done:  E(UB3LYP) =  -3777.49718441     A.U. after   11 cycles
 SCF Done:  E(UB3LYP) =  -3777.49718563     A.U. after    9 cycles
 SCF Done:  E(UB3LYP) =  -3777.49718723     A.U. after   11 cycles
 SCF Done:  E(UB3LYP) =  -3777.49719228     A.U. after   11 cycles
 SCF Done:  E(UB3LYP) =  -3777.49719650     A.U. after   11 cycles
 SCF Done:  E(UB3LYP) =  -3777.49721811     A.U. after   13 cycles
 SCF Done:  E(UB3LYP) =  -3777.49730111     A.U. after   16 cycles
 SCF Done:  E(UB3LYP) =  -3777.49723050     A.U. after   15 cycles
 SCF Done:  E(UB3LYP) =  -3777.49731439     A.U. after   13 cycles
 SCF Done:  E(UB3LYP) =  -3777.49732769     A.U. after   12 cycles
 SCF Done:  E(UB3LYP) =  -3777.49733587     A.U. after   13 cycles
 SCF Done:  E(UB3LYP) =  -3777.49733206     A.U. after   13 cycles
 SCF Done:  E(UB3LYP) =  -3777.49733600     A.U. after   13 cycles
 SCF Done:  E(UB3LYP) =  -3777.49733592     A.U. after   10 cycles
 SCF Done:  E(UB3LYP) =  -3777.49733622     A.U. after   10 cycles
 Optimization completed.
    -- Stationary point found.
 Normal termination of Gaussian 16 at Sat Feb 10 17:05:52 2024.

 ----------------------------------------------------------------------
 #P Geom=AllCheck Guess=TCheck SCRF=Check GenChk UB3LYP/6-311++G(d,p) F
 req
 ----------------------------------------------------------------------

 Structure from the checkpoint file:  "161.chk"
 --------
 Oxidized
 --------
 Charge =  0 Multiplicity = 1

                          Input orientation:
 ---------------------------------------------------------------------
 Center     Atomic      Atomic             Coordinates (Angstroms)
 Number     Number       Type             X           Y           Z
 ---------------------------------------------------------------------
      1          7           0       -4.496227    1.028786   -0.649217
      2          6           0       -3.289019    0.447492   -0.453685
      3          6           0       -3.160800   -0.961670   -0.416095
      4         17           0       -4.597181   -1.944842   -0.652678
      5          6           0       -1.950527   -1.580168   -0.218368
      6          6           0       -0.790448   -0.826432   -0.030732
      7          6           0        0.480995   -1.572893    0.118151
      8          8           0        0.497615   -2.799901    0.154945
      9          6           0        1.738004   -0.787389    0.184793
     10          6           0        2.971040   -1.446306    0.192805
     11          6           0        4.152750   -0.715666    0.248059
     12          6           0        4.109487    0.680061    0.306055
     13          6           0        2.885937    1.340941    0.313879
     14          6           0        1.692634    0.613871    0.246948
     15          6           0        0.397875    1.355204    0.280461
     16          8           0        0.387013    2.541352    0.566876
     17          6           0       -0.857984    0.588331   -0.020891
     18          6           0       -2.099144    1.198770   -0.244183
     19         35           0       -2.326185    3.102668   -0.357722
     20          1           0       -4.551037    2.021247   -0.815999
     21          1           0       -5.279549    0.462040   -0.932651
     22          1           0       -1.879199   -2.659155   -0.213223
     23          1           0        2.986388   -2.527950    0.152982
     24          1           0        5.106988   -1.229148    0.246724
     25          1           0        5.030281    1.249821    0.347649
     26          1           0        2.840292    2.420933    0.367707
 ---------------------------------------------------------------------

 SCF Done:  E(UB3LYP) =  -3777.49733622     A.U. after    2 cycles

 Alpha  occ. eigenvalues -- -482.84755-101.57688 -62.50034 -56.32079 -56.31690
 Alpha  occ. eigenvalues --  -56.31651 -19.13552 -19.12805 -14.35241 -10.29138
 Alpha  occ. eigenvalues --  -10.28256 -10.27048 -10.26159 -10.26144 -10.22942
 Alpha  occ. eigenvalues --  -10.21153 -10.21111 -10.20996 -10.20940 -10.19984
 Alpha  occ. eigenvalues --  -10.19948 -10.19903 -10.19880  -9.49146  -8.71011
 Alpha  occ. eigenvalues --   -7.25600  -7.24627  -7.24601  -6.54173  -6.52880
 Alpha  occ. eigenvalues --   -6.52786  -2.65262  -2.64909  -2.64839  -2.63810
 Alpha  occ. eigenvalues --   -2.63809  -1.07174  -1.06110  -0.97411  -0.90338
 Alpha  occ. eigenvalues --   -0.89170  -0.87750  -0.82812  -0.80435  -0.78021
 Alpha  occ. eigenvalues --   -0.76429  -0.75936  -0.69267  -0.67072  -0.64873
 Alpha  occ. eigenvalues --   -0.62685  -0.59538  -0.57850  -0.56493  -0.54728
 Alpha  occ. eigenvalues --   -0.52813  -0.50293  -0.49091  -0.48797  -0.46556
 Alpha  occ. eigenvalues --   -0.46254  -0.45911  -0.45381  -0.45048  -0.44298
 Alpha  occ. eigenvalues --   -0.43644  -0.43196  -0.42124  -0.39254  -0.38584
 Alpha  occ. eigenvalues --   -0.38301  -0.37148  -0.37038  -0.34527  -0.34284
 Alpha  occ. eigenvalues --   -0.32617  -0.31953  -0.28840  -0.28493  -0.28061
 Alpha  occ. eigenvalues --   -0.27219  -0.26958  -0.23919
 Alpha virt. eigenvalues --   -0.11938  -0.07795  -0.04043  -0.03469  -0.03005
 Alpha virt. eigenvalues --   -0.00787  -0.00065   0.00581   0.01088   0.01698
 Alpha virt. eigenvalues --    0.02346   0.02671   0.03326   0.03509   0.03675

  Beta  occ. eigenvalues -- -482.84755-101.57688 -62.50034 -56.32079 -56.31690
  Beta  occ. eigenvalues --  -56.31651 -19.13552 -19.12805 -14.35241 -10.29138
  Beta  occ. eigenvalues --  -10.28256 -10.27048 -10.26159 -10.26144 -10.22942
  Beta  occ. eigenvalues --  -10.21153 -10.21111 -10.20996 -10.20940 -10.19984
  Beta  occ. eigenvalues --  -10.19948 -10.19903 -10.19880  -9.49146  -8.71011
  Beta  occ. eigenvalues --   -7.25600  -7.24627  -7.24601  -6.54173  -6.52880
  Beta  occ. eigenvalues --   -6.52786  -2.65262  -2.64909  -2.64839  -2.63810
  Beta  occ. eigenvalues --   -2.63809  -1.07174  -1.06110  -0.97411  -0.90338
  Beta  occ. eigenvalues --   -0.89170  -0.87750  -0.82812  -0.80435  -0.78021
  Beta  occ. eigenvalues --   -0.76429  -0.75936  -0.69267  -0.67072  -0.64873
  Beta  occ. eigenvalues --   -0.62685  -0.59538  -0.57850  -0.56493  -0.54728
  Beta  occ. eigenvalues --   -0.52813  -0.50293  -0.49091  -0.48797  -0.46556
  Beta  occ. eigenvalues --   -0.46254  -0.45911  -0.45381  -0.45048  -0.44298
  Beta  occ. eigenvalues --   -0.43644  -0.43196  -0.42124  -0.39254  -0.38584
  Beta  occ. eigenvalues --   -0.38301  -0.37148  -0.37038  -0.34527  -0.34284
  Beta  occ. eigenvalues --   -0.32617  -0.31953  -0.28840  -0.28493  -0.28061
  Beta  occ. eigenvalues --   -0.27219  -0.26958  -0.23919
  Beta virt. eigenvalues --   -0.11938  -0.07795  -0.04043  -0.03469  -0.03005
  Beta virt. eigenvalues --   -0.00787  -0.00065   0.00581   0.01088   0.01698
  Beta virt. eigenvalues --    0.02346   0.02671   0.03326   0.03509   0.03675

 Mulliken charges and spin densities:
               1          2
     1  N   -0.106150   0.000000
     2  C   -1.924460  -0.000000
     3  C    1.178289   0.000000
     4  Cl   0.350627  -0.000000
     5  C   -0.101878  -0.000000
     6  C    0.337202  -0.000000
     7  C   -0.669155   0.000000
     8  O   -0.293053  -0.000000
     9  C    0.085956  -0.000000
    10  C    0.146403  -0.000000
    11  C   -0.408853   0.000000
    12  C   -0.413792  -0.000000
    13  C    0.168857   0.000000
    14  C    0.126090   0.000000
    15  C   -1.190877  -0.000000
    16  O   -0.199712   0.000000
    17  C    0.882287   0.000000
    18  C    0.550576   0.000000
    19  Br  -0.097177  -0.000000
    20  H    0.285860   0.000000
    21  H    0.276322   0.000000
    22  H    0.215724   0.000000
    23  H    0.190273   0.000000
    24  H    0.207382   0.000000
    25  H    0.206896   0.000000
    26  H    0.196362  -0.000000
 Sum of Mulliken charges =  -0.00000   0.00000

 Dipole moment (field-independent basis, Debye):
    X=             -0.7962    Y=              1.2203    Z=             -1.7886  Tot=              2.3070
 Quadrupole moment (field-independent basis, Debye-Ang):
   XX=            -88.6694   YY=           -141.4380   ZZ=           -130.2389
   XY=             -4.9418   XZ=              6.8778   YZ=             -3.0877

  Exact polarizability: 453.968 -18.880 372.696  34.859   2.822 148.043
 Approx polarizability: 485.153 -27.345 467.854  35.386   4.986 175.105

                      1                      2                      3
                      A                      A                      A
 Frequencies --     24.8381                37.0491                86.2336
 Red. masses --      9.1437                11.3562                 7.5589
 Frc consts  --      0.0033                 0.0092                 0.0331
 IR Inten    --      8.1728                 0.8327                 0.5508

                      4                      5                      6
                      A                      A                      A
 Frequencies --    107.0917               124.1836               140.7893
 Red. masses --      4.8646                 9.7188                11.6445
 Frc consts  --      0.0329                 0.0883                 0.1360
 IR Inten    --      0.3597                 3.2436                 1.4563

                      7                      8                      9
                      A                      A                      A
 Frequencies --    177.5912               183.3597               238.5702
 Red. masses --     22.3982                 6.1443                 6.6006
 Frc consts  --      0.4162                 0.1217                 0.2213
 IR Inten    --      0.3255                 0.1964                25.4368

                     10                     11                     12
                      A                      A                      A
 Frequencies --    243.3384               267.8768               284.6052
 Red. masses --      1.2623                 6.5036                11.6866
 Frc consts  --      0.0440                 0.2750                 0.5577
 IR Inten    --    427.5517                 1.3642                 7.7270

                     13                     14                     15
                      A                      A                      A
 Frequencies --    303.3814               327.9516               332.1702
 Red. masses --      8.7783                 6.3292                 6.8406
 Frc consts  --      0.4760                 0.4011                 0.4447
 IR Inten    --      1.8894                 2.7409                 5.4271

                     16                     17                     18
                      A                      A                      A
 Frequencies --    369.8393               394.4539               425.5297
 Red. masses --      7.0592                10.9967                 3.4145
 Frc consts  --      0.5689                 1.0081                 0.3643
 IR Inten    --      5.2304                47.9273                 1.7388

                     19                     20                     21
                      A                      A                      A
 Frequencies --    448.8486               470.3481               480.9060
 Red. masses --      4.8631                 1.2821                 9.9868
 Frc consts  --      0.5772                 0.1671                 1.3608
 IR Inten    --      2.1551                 7.6561                 9.7208

                     22                     23                     24
                      A                      A                      A
 Frequencies --    486.8041               517.5159               558.6187
 Red. masses --      5.5227                 3.2404                 5.1151
 Frc consts  --      0.7711                 0.5113                 0.9404
 IR Inten    --      6.0224                 2.9235                 8.2019

                     25                     26                     27
                      A                      A                      A
 Frequencies --    585.0789               629.5913               678.8350
 Red. masses --      6.2933                 6.9943                 6.5326
 Frc consts  --      1.2693                 1.6335                 1.7736
 IR Inten    --      1.3544                76.8396                10.8166

                     28                     29                     30
                      A                      A                      A
 Frequencies --    698.4654               712.8989               726.4198
 Red. masses --      5.4164                 7.3740                 2.5756
 Frc consts  --      1.5569                 2.2080                 0.8008
 IR Inten    --      1.9410                17.1513               117.2359

                     31                     32                     33
                      A                      A                      A
 Frequencies --    738.9745               755.5021               778.2462
 Red. masses --      5.9209                 7.7763                 6.8366
 Frc consts  --      1.9050                 2.6151                 2.4396
 IR Inten    --     12.7474                87.8576                56.8752

                     34                     35                     36
                      A                      A                      A
 Frequencies --    805.8256               816.3909               880.8299
 Red. masses --      2.3931                 3.6789                 6.5545
 Frc consts  --      0.9156                 1.4447                 2.9962
 IR Inten    --      8.4057                10.4595                 5.2756

                     37                     38                     39
                      A                      A                      A
 Frequencies --    913.6040               934.9344               982.0393
 Red. masses --      1.4204                 1.4083                 7.4672
 Frc consts  --      0.6985                 0.7253                 4.2429
 IR Inten    --      0.6385                16.2771                44.4276

                     40                     41                     42
                      A                      A                      A
 Frequencies --   1000.5727              1022.2576              1029.1277
 Red. masses --      1.3946                 1.3339                 3.8661
 Frc consts  --      0.8226                 0.8213                 2.4125
 IR Inten    --      3.4224                 0.2929               203.3801

                     43                     44                     45
                      A                      A                      A
 Frequencies --   1056.2517              1078.6874              1116.0100
 Red. masses --      1.8949                 2.0442                 2.1989
 Frc consts  --      1.2456                 1.4014                 1.6136
 IR Inten    --     31.7368                91.7122                21.6979

                     46                     47                     48
                      A                      A                      A
 Frequencies --   1148.5500              1177.8550              1198.5314
 Red. masses --      5.0117                 1.1260                 1.8570
 Frc consts  --      3.8953                 0.9204                 1.5717
 IR Inten    --    177.5123                 8.2573               101.5542

                     49                     50                     51
                      A                      A                      A
 Frequencies --   1232.6720              1269.3631              1302.5216
 Red. masses --      2.2144                 2.9725                 2.1475
 Frc consts  --      1.9824                 2.8219                 2.1466
 IR Inten    --      5.7822              1080.3872                 7.9603

                     52                     53                     54
                      A                      A                      A
 Frequencies --   1337.2326              1346.9056              1361.6105
 Red. masses --      4.4092                 6.3518                 7.5341
 Frc consts  --      4.6455                 6.7892                 8.2298
 IR Inten    --    909.0743               233.1874                63.5604

                     55                     56                     57
                      A                      A                      A
 Frequencies --   1414.4597              1476.5864              1484.0213
 Red. masses --      7.8918                 2.9129                 3.4622
 Frc consts  --      9.3027                 3.7419                 4.4924
 IR Inten    --     23.8052                64.5541                73.2492

                     58                     59                     60
                      A                      A                      A
 Frequencies --   1505.6842              1553.4231              1576.2665
 Red. masses --      2.6397                 6.6662                 5.5760
 Frc consts  --      3.5259                 9.4778                 8.1626
 IR Inten    --     40.3448                94.4801               364.8123

                     61                     62                     63
                      A                      A                      A
 Frequencies --   1614.5142              1621.3577              1627.2556
 Red. masses --      5.7971                 4.6273                 1.5321
 Frc consts  --      8.9032                 7.1670                 2.3903
 IR Inten    --     47.6622               290.7862               473.8972

                     64                     65                     66
                      A                      A                      A
 Frequencies --   1680.3638              1708.7829              3179.1790
 Red. masses --     11.5105                12.2254                 1.0875
 Frc consts  --     19.1493                21.0324                 6.4760
 IR Inten    --    239.7797               467.6817                 3.4821

                     67                     68                     69
                      A                      A                      A
 Frequencies --   3191.6681              3205.1321              3207.9291
 Red. masses --      1.0917                 1.0925                 1.0951
 Frc consts  --      6.5521                 6.6125                 6.6399
 IR Inten    --     12.2979                 3.2097                20.5637

                     70                     71                     72
                      A                      A                      A
 Frequencies --   3215.9212              3581.2951              3696.5107
 Red. masses --      1.0916                 1.0462                 1.1041
 Frc consts  --      6.6514                 7.9056                 8.8890
 IR Inten    --      5.9908               241.7577               146.3119

 - Thermochemistry -
 -------------------
 Temperature   298.150 Kelvin.  Pressure   1.00000 Atm.
 Atom     1 has atomic number  7 and mass  14.00307

 Molecular mass:   334.93487 amu.
 Principal axes and moments of inertia in atomic units:
                           1         2         3
     Eigenvalues --  4492.622328597.15067**********
           X            0.98182   0.14327  -0.12450
           Y           -0.14562   0.98929  -0.00996
           Z            0.12174   0.02790   0.99217
 This molecule is an asymmetric top.
 Rotational symmetry number  1.
 Warning -- assumption of classical behavior for rotation
           may cause significant error
 Rotational temperatures (Kelvin)      0.01928     0.01007     0.00665
 Rotational constants (GHZ):           0.40171     0.20992     0.13847
 Zero-point vibrational energy     459892.5 (Joules/Mol)
                                  109.91696 (Kcal/Mol)
 Warning -- explicit consideration of  25 degrees of freedom as
           vibrations may cause significant error
 Vibrational temperatures:     35.74    53.31   124.07   154.08   178.67
          (Kelvin)            202.56   255.51   263.81   343.25   350.11
                              385.42   409.48   436.50   471.85   477.92
                              532.12   567.53   612.24   645.79   676.73
                              691.92   700.40   744.59   803.73   841.80
                              905.84   976.69  1004.94  1025.70  1045.16
                             1063.22  1087.00  1119.72  1159.40  1174.60
                             1267.32  1314.47  1345.16  1412.94  1439.60
                             1470.80  1480.69  1519.71  1551.99  1605.69
                             1652.51  1694.67  1724.42  1773.54  1826.33
                             1874.04  1923.98  1937.90  1959.05  2035.09
                             2124.48  2135.18  2166.34  2235.03  2267.90
                             2322.93  2332.77  2341.26  2417.67  2458.56
                             4574.13  4592.10  4611.47  4615.49  4626.99
                             5152.68  5318.45

 Zero-point correction=                           0.175164 (Hartree/Particle)
 Thermal correction to Energy=                    0.190895
 Thermal correction to Enthalpy=                  0.191839
 Thermal correction to Gibbs Free Energy=         0.130414
 Sum of electronic and zero-point Energies=          -3777.322172
 Sum of electronic and thermal Energies=             -3777.306442
 Sum of electronic and thermal Enthalpies=           -3777.305497
 Sum of electronic and thermal Free Energies=        -3777.366922

                     E (Thermal)             CV                S
                      KCal/Mol        Cal/Mol-Kelvin    Cal/Mol-Kelvin
 Total                  119.788             60.098            129.279
 Electronic               0.000              0.000              0.000
 Translational            0.889              2.981             43.321
 Rotational               0.889              2.981             34.575
 Vibrational            118.011             54.137             51.383
 Vibration     1          0.593              1.985              6.204
 Vibration     2          0.594              1.982              5.411
 Vibration     3          0.601              1.959              3.744
 Vibration     4          0.606              1.944              3.321
 Vibration     5          0.610              1.929              3.034
 Vibration     6          0.615              1.912              2.793
 Vibration     7          0.628              1.870              2.354
 Vibration     8          0.631              1.862              2.294
 Vibration     9          0.657              1.782              1.814
 Vibration    10          0.659              1.774              1.778
 Vibration    11          0.673              1.732              1.610
 Vibration    12          0.683              1.702              1.506
 Vibration    13          0.695              1.667              1.398
 Vibration    14          0.711              1.620              1.270
 Vibration    15          0.714              1.611              1.250
 Vibration    16          0.742              1.534              1.080
 Vibration    17          0.761              1.482              0.983
 Vibration    18          0.787              1.415              0.873
 Vibration    19          0.808              1.363              0.799
 Vibration    20          0.827              1.316              0.737
 Vibration    21          0.837              1.292              0.708
 Vibration    22          0.843              1.279              0.692
 Vibration    23          0.873              1.211              0.616
 Vibration    24          0.914              1.121              0.527
 Vibration    25          0.942              1.064              0.476

                           ! Non-Optimized Parameters !
 Normal termination of Gaussian 16 at Sat Feb 10 17:46:46 2024.
