 Gaussian 16, Revision A.03,
 Gaussian 16:  ES64L-G16RevA.03 25-Dec-2016

 ----------------------------------------------------------------------
 #P UB3LYP/6-311++G(d,p) nosym opt freq SCRF=(PCM,Solvent=n,n-DiMethylF
 ormamide)
 ----------------------------------------------------------------------

 -------
 Radical
 -------
 Symbolic Z-matrix:
 Charge = -1 Multiplicity = 2

 SCF Done:  E(UB3LYP) =  -627.686231263     A.U. after   20 cycles
 SCF Done:  E(UB3LYP) =  -627.686426305     A.U. after   16 cycles
 SCF Done:  E(UB3LYP) =  -627.686451635     A.U. after   15 cycles
 SCF Done:  E(UB3LYP) =  -627.686453860     A.U. after   14 cycles
 SCF Done:  E(UB3LYP) =  -627.686459200     A.U. after   12 cycles
 SCF Done:  E(UB3LYP) =  -627.686459748     A.U. after   11 cycles
 Optimization completed.
    -- Stationary point found.
 Normal termination of Gaussian 16 at Sun Feb 11 00:45:14 2024.

 ----------------------------------------------------------------------
 #P Geom=AllCheck Guess=TCheck SCRF=Check GenChk UB3LYP/6-311++G(d,p) F
 req
 ----------------------------------------------------------------------

 Structure from the checkpoint file:  "227-rad.chk"
 -------
 Radical
 -------
 Charge = -1 Multiplicity = 2

                          Input orientation:
 ---------------------------------------------------------------------
 Center     Atomic      Atomic             Coordinates (Angstroms)
 Number     Number       Type             X           Y           Z
 ---------------------------------------------------------------------
      1          6           0        5.673558   -5.105240    1.283184
      2          6           0        6.683683   -5.023216    0.349664
      3          6           0        6.590233   -4.067670   -0.693390
      4          6           0        4.546909   -4.258330    1.224127
      5          6           0        4.456105   -3.299929    0.175143
      6          6           0        5.487119   -3.221654   -0.771496
      7          6           0        3.487541   -4.372056    2.236178
      8          6           0        2.381104   -3.466666    2.092292
      9          6           0        2.291726   -2.540436    1.080023
     10          6           0        3.299948   -2.390422    0.067750
     11          8           0        3.553396   -5.218385    3.175046
     12          8           0        3.211551   -1.537791   -0.859224
     13          6           0        7.631145   -3.971904   -1.665712
     14          7           0        8.479139   -3.898538   -2.450701
     15          1           0        5.727923   -5.828739    2.087101
     16          1           0        7.544434   -5.678225    0.404364
     17          1           0        5.407707   -2.489339   -1.564996
     18          1           0        1.591741   -3.540953    2.834307
     19          1           0        1.432768   -1.879398    1.017630
 ---------------------------------------------------------------------

 SCF Done:  E(UB3LYP) =  -627.686459748     A.U. after    1 cycles

 Alpha  occ. eigenvalues --  -19.08504 -19.08340 -14.32256 -10.23188 -10.22877
 Alpha  occ. eigenvalues --  -10.22405 -10.21918 -10.19577 -10.19409 -10.18871
 Alpha  occ. eigenvalues --  -10.18765 -10.18404 -10.17186 -10.17059  -1.00746
 Alpha  occ. eigenvalues --   -1.00364  -0.92467  -0.87793  -0.81953  -0.77515
 Alpha  occ. eigenvalues --   -0.76210  -0.69074  -0.65457  -0.63110  -0.57802
 Alpha  occ. eigenvalues --   -0.55420  -0.51794  -0.48788  -0.47388  -0.44297
 Alpha  occ. eigenvalues --   -0.43896  -0.43115  -0.42817  -0.41200  -0.39986
 Alpha  occ. eigenvalues --   -0.39758  -0.38629  -0.38388  -0.36656  -0.36154
 Alpha  occ. eigenvalues --   -0.34686  -0.34524  -0.28478  -0.27230  -0.26455
 Alpha  occ. eigenvalues --   -0.25178  -0.24630  -0.16378
 Alpha virt. eigenvalues --   -0.06267  -0.03824  -0.00291   0.00913   0.01470
 Alpha virt. eigenvalues --    0.01733   0.02840   0.03158   0.03375   0.04110
 Alpha virt. eigenvalues --    0.04745   0.04794   0.05560   0.06424   0.06706

  Beta  occ. eigenvalues --  -19.07877 -19.07657 -14.32228 -10.23064 -10.22736
  Beta  occ. eigenvalues --  -10.22413 -10.21876 -10.19600 -10.19349 -10.18784
  Beta  occ. eigenvalues --  -10.18705 -10.18409 -10.17066 -10.16911  -0.99652
  Beta  occ. eigenvalues --   -0.99170  -0.92421  -0.87618  -0.81430  -0.77334
  Beta  occ. eigenvalues --   -0.75994  -0.68230  -0.65164  -0.62839  -0.57634
  Beta  occ. eigenvalues --   -0.55130  -0.51575  -0.48544  -0.47121  -0.44243
  Beta  occ. eigenvalues --   -0.43709  -0.42828  -0.41828  -0.40670  -0.39732
  Beta  occ. eigenvalues --   -0.38900  -0.38537  -0.36478  -0.35981  -0.35768
  Beta  occ. eigenvalues --   -0.34453  -0.33977  -0.26623  -0.25817  -0.25475
  Beta  occ. eigenvalues --   -0.24571  -0.24024
  Beta virt. eigenvalues --   -0.09791  -0.05499  -0.02826  -0.00274   0.00928
  Beta virt. eigenvalues --    0.01488   0.01750   0.02862   0.03178   0.04225
  Beta virt. eigenvalues --    0.04671   0.04828   0.05575   0.05697   0.06454

 Mulliken charges and spin densities:
               1          2
     1  C    0.441878   0.033199
     2  C   -0.882921   0.041565
     3  C    1.967071   0.029259
     4  C    0.174709   0.048456
     5  C   -0.104481   0.026751
     6  C    0.261133   0.001738
     7  C   -0.610052   0.076313
     8  C    0.105715   0.100301
     9  C    0.073023   0.118854
    10  C   -0.494591   0.071768
    11  O   -0.479701   0.246301
    12  O   -0.472593   0.225561
    13  C   -1.650351  -0.010864
    14  N   -0.276529   0.014844
    15  H    0.174446  -0.001924
    16  H    0.208388  -0.003228
    17  H    0.183476  -0.001101
    18  H    0.189445  -0.008275
    19  H    0.191936  -0.009517
 Sum of Mulliken charges =  -1.00000   1.00000

 Dipole moment (field-independent basis, Debye):
    X=            -21.8622    Y=             16.2926    Z=             -0.9983  Tot=             27.2837
 Quadrupole moment (field-independent basis, Debye-Ang):
   XX=           -207.6254   YY=           -152.8039   ZZ=           -118.5796
   XY=             74.4002   XZ=             14.8841   YZ=             18.7519

  Exact polarizability: 286.759 -59.941 198.732 -85.192 -67.101 248.414
 Approx polarizability: 306.960 -63.181 232.387 -86.009 -86.799 286.746

                      1                      2                      3
                      A                      A                      A
 Frequencies --     71.8055               104.0102               126.3671
 Red. masses --      7.3770                 6.8579                11.5006
 Frc consts  --      0.0224                 0.0437                 0.1082
 IR Inten    --      1.9775                24.4858                 6.8377

                      4                      5                      6
                      A                      A                      A
 Frequencies --    148.9074               226.8746               269.2497
 Red. masses --      5.4522                 7.2307                 7.9915
 Frc consts  --      0.0712                 0.2193                 0.3413
 IR Inten    --      5.0791                 1.0403                11.3946

                      7                      8                      9
                      A                      A                      A
 Frequencies --    329.9969               332.5107               415.2864
 Red. masses --     12.4425                 4.9958                 3.3364
 Frc consts  --      0.7983                 0.3254                 0.3390
 IR Inten    --     13.7994                 0.0446                 2.4911

                     10                     11                     12
                      A                      A                      A
 Frequencies --    422.8569               455.3534               462.8531
 Red. masses --      8.8609                 5.4267                11.0938
 Frc consts  --      0.9335                 0.6630                 1.4003
 IR Inten    --      3.4098                 1.3828                 4.6476

                     13                     14                     15
                      A                      A                      A
 Frequencies --    519.1239               572.5818               579.2557
 Red. masses --      8.9007                 7.2057                 5.0750
 Frc consts  --      1.4132                 1.3919                 1.0033
 IR Inten    --      5.9037                 0.6680                12.8522

                     16                     17                     18
                      A                      A                      A
 Frequencies --    616.3551               625.8530               655.1804
 Red. masses --      5.4318                 2.5896                 5.7683
 Frc consts  --      1.2158                 0.5976                 1.4589
 IR Inten    --      1.4665                 0.0075                 2.1193

                     19                     20                     21
                      A                      A                      A
 Frequencies --    684.9184               723.1397               782.8286
 Red. masses --      4.0100                 6.8521                 4.3250
 Frc consts  --      1.1083                 2.1111                 1.5616
 IR Inten    --     14.4592                 2.4689                 1.8721

                     22                     23                     24
                      A                      A                      A
 Frequencies --    784.8124               829.5713               849.8468
 Red. masses --      7.1581                 1.6818                 1.7513
 Frc consts  --      2.5976                 0.6819                 0.7452
 IR Inten    --     84.6294               126.0596                 0.2186

                     25                     26                     27
                      A                      A                      A
 Frequencies --    900.6204               941.7066               954.9826
 Red. masses --      5.0043                 1.4459                 1.2911
 Frc consts  --      2.3915                 0.7555                 0.6937
 IR Inten    --     14.0036                13.5137                 0.0312

                     28                     29                     30
                      A                      A                      A
 Frequencies --    992.3091              1064.2817              1075.3061
 Red. masses --      1.3258                 2.2526                 3.1683
 Frc consts  --      0.7692                 1.5033                 2.1585
 IR Inten    --      0.5435                 9.5244                33.9084

                     31                     32                     33
                      A                      A                      A
 Frequencies --   1139.3611              1164.2439              1206.9678
 Red. masses --      1.4572                 1.4750                 2.7064
 Frc consts  --      1.1146                 1.1779                 2.3229
 IR Inten    --      8.1557                38.9636                19.9537

                     34                     35                     36
                      A                      A                      A
 Frequencies --   1226.3325              1243.4680              1307.9977
 Red. masses --      3.8452                 2.0515                 1.8319
 Frc consts  --      3.4071                 1.8690                 1.8466
 IR Inten    --    191.4683                67.4708                 7.7973

                     37                     38                     39
                      A                      A                      A
 Frequencies --   1349.8053              1405.1206              1431.9522
 Red. masses --      7.7908                 2.5117                 6.8889
 Frc consts  --      8.3633                 2.9218                 8.3225
 IR Inten    --     40.0452                10.0683               507.2233

                     40                     41                     42
                      A                      A                      A
 Frequencies --   1473.2312              1489.1097              1514.1324
 Red. masses --      3.0971                 8.4684                 6.0964
 Frc consts  --      3.9604                11.0639                 8.2347
 IR Inten    --    227.9202                39.7964               850.2422

                     43                     44                     45
                      A                      A                      A
 Frequencies --   1538.8386              1607.4607              1633.5076
 Red. masses --      4.4850                 7.0861                 6.7347
 Frc consts  --      6.2575                10.7880                10.5878
 IR Inten    --    319.0444               133.7303                45.4506

                     46                     47                     48
                      A                      A                      A
 Frequencies --   2302.7230              3149.8128              3168.0517
 Red. masses --     12.6822                 1.0862                 1.0944
 Frc consts  --     39.6212                 6.3495                 6.4719
 IR Inten    --    499.1756                31.8323                37.4862

                     49                     50                     51
                      A                      A                      A
 Frequencies --   3186.6832              3198.8724              3201.0268
 Red. masses --      1.0877                 1.0911                 1.0950
 Frc consts  --      6.5079                 6.5783                 6.6109
 IR Inten    --      0.4892                 1.9612                14.1765

 - Thermochemistry -
 -------------------
 Temperature   298.150 Kelvin.  Pressure   1.00000 Atm.
 Atom     1 has atomic number  6 and mass  12.00000

 Molecular mass:   183.03203 amu.
 Principal axes and moments of inertia in atomic units:
                           1         2         3
     Eigenvalues --  1430.502303405.135654835.63681
           X            0.80938  -0.34740   0.47351
           Y           -0.07512   0.73841   0.67015
           Z           -0.58246  -0.57798   0.57156
 This molecule is an asymmetric top.
 Rotational symmetry number  1.
 Warning -- assumption of classical behavior for rotation
           may cause significant error
 Rotational temperatures (Kelvin)      0.06055     0.02544     0.01791
 Rotational constants (GHZ):           1.26161     0.53001     0.37322
 Zero-point vibrational energy     337690.5 (Joules/Mol)
                                   80.70997 (Kcal/Mol)
 Warning -- explicit consideration of  16 degrees of freedom as
           vibrations may cause significant error
 Vibrational temperatures:    103.31   149.65   181.81   214.24   326.42
          (Kelvin)            387.39   474.79   478.41   597.50   608.40
                              655.15   665.94   746.90   823.82   833.42
                              886.80   900.46   942.66   985.44  1040.44
                             1126.32  1129.17  1193.57  1222.74  1295.79
                             1354.91  1374.01  1427.71  1531.26  1547.13
                             1639.29  1675.09  1736.56  1764.42  1789.07
                             1881.92  1942.07  2021.66  2060.26  2119.65
                             2142.50  2178.50  2214.05  2312.78  2350.25
                             3313.10  4531.88  4558.12  4584.93  4602.46
                             4605.56

 Zero-point correction=                           0.128620 (Hartree/Particle)
 Thermal correction to Energy=                    0.139034
 Thermal correction to Enthalpy=                  0.139979
 Thermal correction to Gibbs Free Energy=         0.091471
 Sum of electronic and zero-point Energies=           -627.557840
 Sum of electronic and thermal Energies=              -627.547425
 Sum of electronic and thermal Enthalpies=            -627.546481
 Sum of electronic and thermal Free Energies=         -627.594989

                     E (Thermal)             CV                S
                      KCal/Mol        Cal/Mol-Kelvin    Cal/Mol-Kelvin
 Total                   87.245             40.727            102.094
 Electronic               0.000              0.000              1.377
 Translational            0.889              2.981             41.520
 Rotational               0.889              2.981             31.533
 Vibrational             85.468             34.765             27.664
 Vibration     1          0.598              1.967              4.103
 Vibration     2          0.605              1.946              3.378
 Vibration     3          0.611              1.927              3.001
 Vibration     4          0.618              1.904              2.686
 Vibration     5          0.651              1.800              1.904
 Vibration     6          0.674              1.730              1.601
 Vibration     7          0.713              1.616              1.260
 Vibration     8          0.714              1.611              1.248
 Vibration     9          0.779              1.437              0.908
 Vibration    10          0.785              1.421              0.882
 Vibration    11          0.814              1.349              0.780
 Vibration    12          0.820              1.332              0.758
 Vibration    13          0.874              1.208              0.612
 Vibration    14          0.929              1.091              0.499
 Vibration    15          0.936              1.076              0.487
 Vibration    16          0.976              0.997              0.422

 Optimization completed.
    -- Stationary point found.
 Normal termination of Gaussian 16 at Sun Feb 11 00:57:26 2024.
