 Gaussian 16, Revision A.03,
 Gaussian 16:  ES64L-G16RevA.03 25-Dec-2016

 ----------------------------------------------------------------
 #P UB3LYP/6-311++G(d,p) SCRF=(PCM,Solvent=n,n-DiMethylFormamide)
 ----------------------------------------------------------------

 ------------------
 Quinone PCM in DMF
 ------------------
 Symbolic Z-matrix:
 Charge =  0 Multiplicity = 1

                         Standard orientation:
 ---------------------------------------------------------------------
 Center     Atomic      Atomic             Coordinates (Angstroms)
 Number     Number       Type             X           Y           Z
 ---------------------------------------------------------------------
      1          8           0        4.669113   -1.909006    0.000353
      2          6           0        3.582049   -1.102747    0.000298
      3          6           0        2.304082   -1.668348    0.000207
      4          6           0        1.183719   -0.849264    0.000082
      5          6           0       -0.162980   -1.462007   -0.000211
      6          8           0       -0.306193   -2.696119   -0.000125
      7          6           0       -1.323158   -0.570862   -0.000383
      8          6           0       -2.617862   -1.119709   -0.000242
      9          8           0       -2.861944   -2.443283   -0.000364
     10          6           0       -3.755087   -0.293841    0.000054
     11          8           0       -4.991894   -0.834089    0.000237
     12          6           0       -3.595402    1.095762    0.000272
     13          8           0       -4.725648    1.845789    0.000644
     14          6           0       -2.311815    1.649848   -0.000078
     15          6           0       -1.186301    0.836555   -0.000257
     16          6           0        0.155163    1.450415   -0.000399
     17          8           0        0.296922    2.687149   -0.000783
     18          6           0        1.315356    0.561618    0.000007
     19          6           0        2.607499    1.118274    0.000123
     20          8           0        2.852729    2.442053    0.000323
     21          6           0        3.730606    0.284049   -0.000053
     22          8           0        4.994868    0.790777    0.000023
     23          1           0        5.467254   -1.362888    0.000501
     24          1           0        2.191092   -2.744328    0.000276
     25          1           0       -1.977285   -2.894794   -0.000448
     26          1           0       -4.895455   -1.797837    0.000341
     27          1           0       -4.495776    2.781505    0.001458
     28          1           0       -2.177331    2.726051   -0.000070
     29          1           0        1.965803    2.890454   -0.000462
     30          1           0        4.942827    1.757196   -0.000578
 ---------------------------------------------------------------------

 SCF Done:  E(UB3LYP) =  -1140.48713070     A.U. after   15 cycles

 The electronic state is 1-A.
 Alpha  occ. eigenvalues --  -19.18544 -19.18082 -19.18074 -19.17963 -19.17395
 Alpha  occ. eigenvalues --  -19.17371 -19.13999 -19.13931 -10.29106 -10.29056
 Alpha  occ. eigenvalues --  -10.27300 -10.27174 -10.26986 -10.26917 -10.26318
 Alpha  occ. eigenvalues --  -10.26301 -10.21461 -10.21377 -10.21035 -10.21012
 Alpha  occ. eigenvalues --  -10.20291 -10.20085  -1.11477  -1.11285  -1.09630
 Alpha  occ. eigenvalues --   -1.09537  -1.08099  -1.07969  -1.06195  -1.06077
 Alpha  occ. eigenvalues --   -0.89918  -0.88218  -0.81620  -0.78436  -0.77574
 Alpha  occ. eigenvalues --   -0.77409  -0.70569  -0.69540  -0.67407  -0.66656
 Alpha  occ. eigenvalues --   -0.63093  -0.60480  -0.59270  -0.58439  -0.57101
 Alpha  occ. eigenvalues --   -0.56465  -0.54131  -0.52895  -0.52307  -0.51066
 Alpha  occ. eigenvalues --   -0.49069  -0.48484  -0.47932  -0.47465  -0.46745
 Alpha  occ. eigenvalues --   -0.45450  -0.44874  -0.44513  -0.44152  -0.43598
 Alpha  occ. eigenvalues --   -0.41875  -0.41800  -0.40973  -0.40563  -0.40425
 Alpha  occ. eigenvalues --   -0.39733  -0.39657  -0.39267  -0.38784  -0.38732
 Alpha  occ. eigenvalues --   -0.34545  -0.34243  -0.30235  -0.28865  -0.26445
 Alpha  occ. eigenvalues --   -0.25751  -0.24511  -0.24054
 Alpha virt. eigenvalues --   -0.12264  -0.06565  -0.02567  -0.01732  -0.01496
 Alpha virt. eigenvalues --   -0.01312   0.00177   0.01097   0.01247   0.03211
 Alpha virt. eigenvalues --    0.03344   0.03623   0.03981   0.04202   0.05088

  Beta  occ. eigenvalues --  -19.18544 -19.18082 -19.18074 -19.17963 -19.17395
  Beta  occ. eigenvalues --  -19.17371 -19.13999 -19.13931 -10.29106 -10.29056
  Beta  occ. eigenvalues --  -10.27300 -10.27174 -10.26986 -10.26917 -10.26318
  Beta  occ. eigenvalues --  -10.26301 -10.21461 -10.21377 -10.21035 -10.21012
  Beta  occ. eigenvalues --  -10.20291 -10.20085  -1.11477  -1.11285  -1.09630
  Beta  occ. eigenvalues --   -1.09537  -1.08099  -1.07969  -1.06195  -1.06077
  Beta  occ. eigenvalues --   -0.89918  -0.88218  -0.81620  -0.78436  -0.77574
  Beta  occ. eigenvalues --   -0.77409  -0.70569  -0.69540  -0.67407  -0.66656
  Beta  occ. eigenvalues --   -0.63093  -0.60480  -0.59270  -0.58439  -0.57101
  Beta  occ. eigenvalues --   -0.56465  -0.54131  -0.52895  -0.52307  -0.51066
  Beta  occ. eigenvalues --   -0.49069  -0.48484  -0.47932  -0.47465  -0.46745
  Beta  occ. eigenvalues --   -0.45450  -0.44874  -0.44513  -0.44152  -0.43598
  Beta  occ. eigenvalues --   -0.41875  -0.41800  -0.40973  -0.40563  -0.40425
  Beta  occ. eigenvalues --   -0.39733  -0.39657  -0.39267  -0.38784  -0.38732
  Beta  occ. eigenvalues --   -0.34545  -0.34243  -0.30235  -0.28865  -0.26445
  Beta  occ. eigenvalues --   -0.25751  -0.24511  -0.24054
  Beta virt. eigenvalues --   -0.12264  -0.06565  -0.02567  -0.01732  -0.01496
  Beta virt. eigenvalues --   -0.01312   0.00177   0.01097   0.01247   0.03211
  Beta virt. eigenvalues --    0.03344   0.03623   0.03981   0.04202   0.05088

 Mulliken charges and spin densities:
               1          2
     1  O   -0.253496   0.000000
     2  C   -0.432150   0.000000
     3  C   -0.229890  -0.000000
     4  C    0.700204  -0.000000
     5  C   -0.687733  -0.000000
     6  O   -0.329464  -0.000000
     7  C    0.692661  -0.000000
     8  C   -0.056293  -0.000000
     9  O   -0.384578   0.000000
    10  C   -0.211441  -0.000000
    11  O   -0.283037   0.000000
    12  C   -0.445483   0.000000
    13  O   -0.265575  -0.000000
    14  C    0.081807   0.000000
    15  C    0.758076  -0.000000
    16  C   -0.554687  -0.000000
    17  O   -0.339545   0.000000
    18  C    0.603001   0.000000
    19  C   -0.063665   0.000000
    20  O   -0.375695  -0.000000
    21  C   -0.033007   0.000000
    22  O   -0.307822  -0.000000
    23  H    0.314471   0.000000
    24  H    0.209534   0.000000
    25  H    0.372536   0.000000
    26  H    0.325564  -0.000000
    27  H    0.318567   0.000000
    28  H    0.186307   0.000000
    29  H    0.362598  -0.000000
    30  H    0.328234  -0.000000
 Sum of Mulliken charges =  -0.00000   0.00000

 Dipole moment (field-independent basis, Debye):
    X=              2.0313    Y=              2.9322    Z=              0.0007  Tot=              3.5670
 Quadrupole moment (field-independent basis, Debye-Ang):
   XX=           -121.3249   YY=           -125.0193   ZZ=           -126.0928
   XY=             -0.1671   XZ=             -0.0143   YZ=              0.0026

 Normal termination of Gaussian 16 at Tue Jan 16 05:17:36 2024.
