 Gaussian 16, Revision A.03,
 Gaussian 16:  ES64L-G16RevA.03 25-Dec-2016

 --------------------------------------
 #P UB3LYP/6-311++G(d,p) nosym opt freq
 --------------------------------------

 --------
 Oxidized
 --------
 Symbolic Z-matrix:
 Charge =  0 Multiplicity = 1

 SCF Done:  E(UB3LYP) =  -1140.45152774     A.U. after   15 cycles
 SCF Done:  E(UB3LYP) =  -1140.45152757     A.U. after    9 cycles
 SCF Done:  E(UB3LYP) =  -1140.45152840     A.U. after    9 cycles
 SCF Done:  E(UB3LYP) =  -1140.45154317     A.U. after   11 cycles
 SCF Done:  E(UB3LYP) =  -1140.43908238     A.U. after   14 cycles
 SCF Done:  E(UB3LYP) =  -1140.45167150     A.U. after   11 cycles
 SCF Done:  E(UB3LYP) =  -1140.38532098     A.U. after   16 cycles
 SCF Done:  E(UB3LYP) =  -1140.45343924     A.U. after   13 cycles
 SCF Done:  E(UB3LYP) =  -1140.45216677     A.U. after   14 cycles
 SCF Done:  E(UB3LYP) =  -1140.44690969     A.U. after   14 cycles
 SCF Done:  E(UB3LYP) =  -1140.47083762     A.U. after   12 cycles
 SCF Done:  E(UB3LYP) =  -1140.47108136     A.U. after   12 cycles
 SCF Done:  E(UB3LYP) =  -1140.47130567     A.U. after   12 cycles
 SCF Done:  E(UB3LYP) =  -1140.47150138     A.U. after   12 cycles
 SCF Done:  E(UB3LYP) =  -1140.47158187     A.U. after   12 cycles
 SCF Done:  E(UB3LYP) =  -1140.47160325     A.U. after   11 cycles
 SCF Done:  E(UB3LYP) =  -1140.47161312     A.U. after   10 cycles
 SCF Done:  E(UB3LYP) =  -1140.47161774     A.U. after   10 cycles
 SCF Done:  E(UB3LYP) =  -1140.47161841     A.U. after    9 cycles
 Optimization completed.
    -- Stationary point found.
 Normal termination of Gaussian 16 at Sun Jan  7 09:24:40 2024.

 ----------------------------------------------------------------------
 #P Geom=AllCheck Guess=TCheck SCRF=Check GenChk UB3LYP/6-311++G(d,p) F
 req
 ----------------------------------------------------------------------

 Structure from the checkpoint file:  "208.chk"
 --------
 Oxidized
 --------
 Charge =  0 Multiplicity = 1

                          Input orientation:
 ---------------------------------------------------------------------
 Center     Atomic      Atomic             Coordinates (Angstroms)
 Number     Number       Type             X           Y           Z
 ---------------------------------------------------------------------
      1          8           0        4.589502    1.516434   -1.400191
      2          6           0        3.520458    0.951558   -0.792061
      3          6           0        2.236857    1.194065   -1.288713
      4          6           0        1.134850    0.619052   -0.671418
      5          6           0       -0.218099    0.884775   -1.208050
      6          8           0       -0.382679    1.613144   -2.200992
      7          6           0       -1.358510    0.263632   -0.534407
      8          6           0       -2.658475    0.494656   -1.018360
      9          8           0       -2.925180    1.269174   -2.086263
     10          6           0       -3.777132   -0.086027   -0.396466
     11          8           0       -5.019243    0.144177   -0.871571
     12          6           0       -3.593356   -0.906537    0.721339
     13          8           0       -4.706395   -1.441326    1.282713
     14          6           0       -2.304394   -1.141370    1.209229
     15          6           0       -1.197176   -0.569196    0.596929
     16          6           0        0.150540   -0.835636    1.134536
     17          8           0        0.313694   -1.565448    2.129705
     18          6           0        1.291027   -0.216085    0.462633
     19          6           0        2.588599   -0.452185    0.952596
     20          8           0        2.856458   -1.226800    2.020655
     21          6           0        3.693048    0.132345    0.323454
     22          8           0        4.961947   -0.075918    0.772513
     23          1           0        5.394586    1.249372   -0.935659
     24          1           0        2.105196    1.830005   -2.154013
     25          1           0       -2.051571    1.606403   -2.417271
     26          1           0       -4.940204    0.728654   -1.639849
     27          1           0       -4.460668   -1.985138    2.039213
     28          1           0       -2.151303   -1.775885    2.075400
     29          1           0        1.980464   -1.561645    2.349616
     30          1           0        4.927160   -0.658250    1.544752
 ---------------------------------------------------------------------

 SCF Done:  E(UB3LYP) =  -1140.47161841     A.U. after    2 cycles

 Alpha  occ. eigenvalues --  -19.19248 -19.18411 -19.18330 -19.17739 -19.17671
 Alpha  occ. eigenvalues --  -19.17406 -19.13976 -19.13944 -10.29140 -10.29106
 Alpha  occ. eigenvalues --  -10.27591 -10.27287 -10.27208 -10.27196 -10.26649
 Alpha  occ. eigenvalues --  -10.26431 -10.21673 -10.21620 -10.21278 -10.21213
 Alpha  occ. eigenvalues --  -10.20668 -10.20238  -1.11979  -1.11287  -1.09896
 Alpha  occ. eigenvalues --   -1.09782  -1.08415  -1.08061  -1.06224  -1.06090
 Alpha  occ. eigenvalues --   -0.90151  -0.88470  -0.81870  -0.78655  -0.77797
 Alpha  occ. eigenvalues --   -0.77691  -0.70778  -0.69800  -0.67673  -0.66941
 Alpha  occ. eigenvalues --   -0.63328  -0.60721  -0.59604  -0.58637  -0.57415
 Alpha  occ. eigenvalues --   -0.56691  -0.54375  -0.53064  -0.52469  -0.51235
 Alpha  occ. eigenvalues --   -0.49280  -0.48733  -0.47917  -0.47676  -0.46611
 Alpha  occ. eigenvalues --   -0.45597  -0.45052  -0.44662  -0.44368  -0.43698
 Alpha  occ. eigenvalues --   -0.42188  -0.42063  -0.41059  -0.40653  -0.40495
 Alpha  occ. eigenvalues --   -0.39836  -0.39653  -0.39589  -0.38913  -0.38673
 Alpha  occ. eigenvalues --   -0.34765  -0.34319  -0.30193  -0.28857  -0.26660
 Alpha  occ. eigenvalues --   -0.25923  -0.24838  -0.24163
 Alpha virt. eigenvalues --   -0.12381  -0.06749  -0.02831  -0.02488  -0.02150
 Alpha virt. eigenvalues --   -0.01757  -0.00500   0.00676   0.01014   0.02897
 Alpha virt. eigenvalues --    0.03132   0.03401   0.03891   0.04006   0.04965

  Beta  occ. eigenvalues --  -19.19248 -19.18411 -19.18330 -19.17739 -19.17671
  Beta  occ. eigenvalues --  -19.17406 -19.13976 -19.13944 -10.29140 -10.29106
  Beta  occ. eigenvalues --  -10.27591 -10.27287 -10.27208 -10.27196 -10.26649
  Beta  occ. eigenvalues --  -10.26431 -10.21673 -10.21620 -10.21278 -10.21213
  Beta  occ. eigenvalues --  -10.20668 -10.20238  -1.11979  -1.11287  -1.09896
  Beta  occ. eigenvalues --   -1.09782  -1.08415  -1.08061  -1.06224  -1.06090
  Beta  occ. eigenvalues --   -0.90151  -0.88470  -0.81870  -0.78655  -0.77797
  Beta  occ. eigenvalues --   -0.77691  -0.70778  -0.69800  -0.67673  -0.66941
  Beta  occ. eigenvalues --   -0.63328  -0.60721  -0.59604  -0.58637  -0.57415
  Beta  occ. eigenvalues --   -0.56691  -0.54375  -0.53064  -0.52469  -0.51235
  Beta  occ. eigenvalues --   -0.49280  -0.48733  -0.47917  -0.47676  -0.46611
  Beta  occ. eigenvalues --   -0.45597  -0.45052  -0.44662  -0.44368  -0.43698
  Beta  occ. eigenvalues --   -0.42188  -0.42063  -0.41059  -0.40653  -0.40495
  Beta  occ. eigenvalues --   -0.39836  -0.39653  -0.39589  -0.38913  -0.38673
  Beta  occ. eigenvalues --   -0.34765  -0.34319  -0.30193  -0.28857  -0.26660
  Beta  occ. eigenvalues --   -0.25923  -0.24838  -0.24163
  Beta virt. eigenvalues --   -0.12381  -0.06749  -0.02831  -0.02488  -0.02150
  Beta virt. eigenvalues --   -0.01757  -0.00500   0.00676   0.01014   0.02897
  Beta virt. eigenvalues --    0.03132   0.03401   0.03891   0.04006   0.04965

 Mulliken charges and spin densities:
               1          2
     1  O   -0.219518  -0.000000
     2  C   -0.418834   0.000000
     3  C   -0.217144   0.000000
     4  C    0.725984   0.000000
     5  C   -0.732809  -0.000000
     6  O   -0.284890  -0.000000
     7  C    0.673807   0.000000
     8  C   -0.080397   0.000000
     9  O   -0.368788   0.000000
    10  C   -0.198812  -0.000000
    11  O   -0.239956   0.000000
    12  C   -0.359679   0.000000
    13  O   -0.217526   0.000000
    14  C    0.033595  -0.000000
    15  C    0.762875   0.000000
    16  C   -0.617661   0.000000
    17  O   -0.301074  -0.000000
    18  C    0.580477   0.000000
    19  C   -0.080988   0.000000
    20  O   -0.363894  -0.000000
    21  C   -0.038307  -0.000000
    22  O   -0.299065   0.000000
    23  H    0.289800   0.000000
    24  H    0.212464  -0.000000
    25  H    0.359693   0.000000
    26  H    0.302318  -0.000000
    27  H    0.278314  -0.000000
    28  H    0.161373   0.000000
    29  H    0.350436   0.000000
    30  H    0.308205   0.000000
 Sum of Mulliken charges =  -0.00000   0.00000

 Dipole moment (field-independent basis, Debye):
    X=              1.5221    Y=             -1.1669    Z=              1.7598  Tot=              2.6029
 Quadrupole moment (field-independent basis, Debye-Ang):
   XX=           -121.3053   YY=           -125.4520   ZZ=           -125.0393
   XY=              0.4644   XZ=              0.0490   YZ=             -0.7870

  Exact polarizability: 342.967  20.724 140.917   6.622 -65.071 177.582
 Approx polarizability: 525.881  26.135 257.796  16.653-146.118 342.453

                      1                      2                      3
                      A                      A                      A
 Frequencies --     36.4133                65.0899               103.3703
 Red. masses --      9.8381                 7.6972                11.0382
 Frc consts  --      0.0077                 0.0192                 0.0695
 IR Inten    --      0.5197                 0.1368                 0.0209

                      4                      5                      6
                      A                      A                      A
 Frequencies --    126.0779               137.3446               149.6995
 Red. masses --      8.6045                10.8644                 7.4904
 Frc consts  --      0.0806                 0.1207                 0.0989
 IR Inten    --      0.0833                 0.0072                 1.3508

                      7                      8                      9
                      A                      A                      A
 Frequencies --    157.3446               189.1958               258.0579
 Red. masses --     10.0725                 9.9036                 7.6504
 Frc consts  --      0.1469                 0.2089                 0.3002
 IR Inten    --      0.0208                 0.3819                 4.1378

                     10                     11                     12
                      A                      A                      A
 Frequencies --    262.7075               269.5961               278.6337
 Red. masses --      6.9288                 5.3141                 5.6694
 Frc consts  --      0.2817                 0.2276                 0.2593
 IR Inten    --      0.6760                 4.0149                 2.9971

                     13                     14                     15
                      A                      A                      A
 Frequencies --    298.5892               302.4048               312.5670
 Red. masses --      5.5230                 1.2937                 6.6106
 Frc consts  --      0.2901                 0.0697                 0.3805
 IR Inten    --      6.4429                82.3190                15.6308

                     16                     17                     18
                      A                      A                      A
 Frequencies --    345.1114               345.3520               363.5652
 Red. masses --      3.2951                 5.4254                 8.3481
 Frc consts  --      0.2312                 0.3813                 0.6501
 IR Inten    --     11.9150                 5.4465                 0.3659

                     19                     20                     21
                      A                      A                      A
 Frequencies --    369.0401               373.7678               387.3629
 Red. masses --      2.3753                 7.4273                 1.7056
 Frc consts  --      0.1906                 0.6113                 0.1508
 IR Inten    --     45.5065                 1.2060               159.7875

                     22                     23                     24
                      A                      A                      A
 Frequencies --    413.3755               449.8614               451.1667
 Red. masses --     13.1322                 1.2021                 1.1030
 Frc consts  --      1.3221                 0.1433                 0.1323
 IR Inten    --     19.2106               160.6491                 0.8377

                     25                     26                     27
                      A                      A                      A
 Frequencies --    455.8127               474.5829               502.4844
 Red. masses --      7.5738                12.9251                 7.8076
 Frc consts  --      0.9271                 1.7152                 1.1615
 IR Inten    --     21.7128                 0.0441                 0.1432

                     28                     29                     30
                      A                      A                      A
 Frequencies --    531.4483               544.0077               568.7485
 Red. masses --     10.1330                10.4782                 6.2260
 Frc consts  --      1.6862                 1.8270                 1.1866
 IR Inten    --      1.4987                 1.7375                 0.5477

                     31                     32                     33
                      A                      A                      A
 Frequencies --    596.3358               612.1039               626.2124
 Red. masses --      5.5771                 9.7526                 5.6485
 Frc consts  --      1.1685                 2.1529                 1.3050
 IR Inten    --      2.1983                 2.8491                14.8378

                     34                     35                     36
                      A                      A                      A
 Frequencies --    644.6721               645.9538               652.5868
 Red. masses --     10.8685                 8.3772                 7.6131
 Frc consts  --      2.6613                 2.0595                 1.9102
 IR Inten    --      0.7628                20.7191                 1.8354

                     37                     38                     39
                      A                      A                      A
 Frequencies --    656.6760               702.3408               720.7595
 Red. masses --      9.9298                 5.7827                11.1123
 Frc consts  --      2.5229                 1.6807                 3.4012
 IR Inten    --      0.0081               143.5843                 0.0969

                     40                     41                     42
                      A                      A                      A
 Frequencies --    751.0822               791.5211               804.4262
 Red. masses --      4.9693                 6.6151                 1.0783
 Frc consts  --      1.6517                 2.4418                 0.4111
 IR Inten    --     11.2950                23.3131                69.8271

                     43                     44                     45
                      A                      A                      A
 Frequencies --    817.0726               829.4803               870.2128
 Red. masses --      1.0755                 6.8430                 1.3784
 Frc consts  --      0.4230                 2.7740                 0.6150
 IR Inten    --    109.5842                 7.9287                 9.2105

                     46                     47                     48
                      A                      A                      A
 Frequencies --    878.3414               894.5972              1017.9715
 Red. masses --      6.6255                 1.3889                 3.9732
 Frc consts  --      3.0116                 0.6549                 2.4258
 IR Inten    --      0.1711                13.7683                77.4122

                     49                     50                     51
                      A                      A                      A
 Frequencies --   1051.7988              1088.9212              1123.1132
 Red. masses --      4.7311                 6.6177                 3.7904
 Frc consts  --      3.0837                 4.6233                 2.8170
 IR Inten    --     29.1714               187.1477                72.0081

                     52                     53                     54
                      A                      A                      A
 Frequencies --   1191.5915              1194.4350              1204.6509
 Red. masses --      1.4001                 2.1786                 1.8931
 Frc consts  --      1.1713                 1.8313                 1.6186
 IR Inten    --    131.4756               109.6249                41.8734

                     55                     56                     57
                      A                      A                      A
 Frequencies --   1213.7088              1242.2471              1286.0477
 Red. masses --      1.7791                 1.7804                 2.6287
 Frc consts  --      1.5441                 1.6188                 2.5616
 IR Inten    --    122.6560               198.1812                57.7913

                     58                     59                     60
                      A                      A                      A
 Frequencies --   1326.3448              1336.0364              1347.4319
 Red. masses --      4.9364                 2.4911                 3.1063
 Frc consts  --      5.1165                 2.6198                 3.3228
 IR Inten    --    651.7608               872.9934               278.8852

                     61                     62                     63
                      A                      A                      A
 Frequencies --   1359.8589              1371.8845              1381.0695
 Red. masses --      2.9704                 2.4014                 2.2792
 Frc consts  --      3.2363                 2.6629                 2.5614
 IR Inten    --    412.4724               290.3299               560.7313

                     64                     65                     66
                      A                      A                      A
 Frequencies --   1407.2701              1444.9194              1453.1542
 Red. masses --      3.6855                 4.7320                 4.2424
 Frc consts  --      4.3004                 5.8207                 5.2782
 IR Inten    --      4.0468               239.7269                 3.5305

                     67                     68                     69
                      A                      A                      A
 Frequencies --   1478.8463              1491.0534              1525.1380
 Red. masses --      4.2536                 4.9796                 5.8090
 Frc consts  --      5.4809                 6.5228                 7.9611
 IR Inten    --    414.1712                22.8405                 5.5346

                     70                     71                     72
                      A                      A                      A
 Frequencies --   1533.9586              1604.9887              1628.8857
 Red. masses --      5.2237                 5.6457                 4.0801
 Frc consts  --      7.2420                 8.5687                 6.3782
 IR Inten    --     86.3173                25.9064                91.5620

                     73                     74                     75
                      A                      A                      A
 Frequencies --   1633.3094              1646.3276              1664.2405
 Red. masses --      4.8820                 6.8629                 9.0082
 Frc consts  --      7.6733                10.9595                14.7000
 IR Inten    --    192.3918               430.6079               103.3650

                     76                     77                     78
                      A                      A                      A
 Frequencies --   1677.2614              3178.3384              3214.4928
 Red. masses --      7.5071                 1.0905                 1.0912
 Frc consts  --     12.4430                 6.4906                 6.6432
 IR Inten    --      1.3745                 4.8697                 2.7115

                     79                     80                     81
                      A                      A                      A
 Frequencies --   3235.7128              3247.9918              3753.9068
 Red. masses --      1.0687                 1.0687                 1.0653
 Frc consts  --      6.5926                 6.6428                 8.8448
 IR Inten    --    142.0723               495.9028               144.3984

                     82                     83                     84
                      A                      A                      A
 Frequencies --   3769.2623              3778.0777              3828.5541
 Red. masses --      1.0657                 1.0657                 1.0663
 Frc consts  --      8.9204                 8.9623                 9.2088
 IR Inten    --    162.1397               143.4918               109.0328

 - Thermochemistry -
 -------------------
 Temperature   298.150 Kelvin.  Pressure   1.00000 Atm.
 Atom     1 has atomic number  8 and mass  15.99491

 Molecular mass:   304.02192 amu.
 Principal axes and moments of inertia in atomic units:
                           1         2         3
     Eigenvalues --  2882.87206********************
           X            0.99659   0.01631  -0.08094
           Y            0.07455  -0.59911   0.79719
           Z            0.03549   0.80050   0.59828
 This molecule is an asymmetric top.
 Rotational symmetry number  1.
 Warning -- assumption of classical behavior for rotation
           may cause significant error
 Rotational temperatures (Kelvin)      0.03004     0.00837     0.00655
 Rotational constants (GHZ):           0.62602     0.17443     0.13642
 Zero-point vibrational energy     538020.2 (Joules/Mol)
                                  128.58992 (Kcal/Mol)
 Warning -- explicit consideration of  32 degrees of freedom as
           vibrations may cause significant error
 Vibrational temperatures:     52.39    93.65   148.73   181.40   197.61
          (Kelvin)            215.38   226.38   272.21   371.29   377.98
                              387.89   400.89   429.60   435.09   449.71
                              496.54   496.88   523.09   530.97   537.77
                              557.33   594.76   647.25   649.13   655.81
                              682.82   722.96   764.64   782.71   818.30
                              857.99   880.68   900.98   927.54   929.38
                              938.93   944.81  1010.51  1037.01  1080.64
                             1138.82  1157.39  1175.59  1193.44  1252.04
                             1263.74  1287.13  1464.63  1513.30  1566.71
                             1615.91  1714.43  1718.53  1733.22  1746.26
                             1787.32  1850.34  1908.31  1922.26  1938.65
                             1956.53  1973.84  1987.05  2024.75  2078.92
                             2090.76  2127.73  2145.29  2194.33  2207.02
                             2309.22  2343.60  2349.97  2368.70  2394.47
                             2413.21  4572.92  4624.94  4655.47  4673.14
                             5401.03  5423.13  5435.81  5508.44

 Zero-point correction=                           0.204921 (Hartree/Particle)
 Thermal correction to Energy=                    0.222748
 Thermal correction to Enthalpy=                  0.223692
 Thermal correction to Gibbs Free Energy=         0.160472
 Sum of electronic and zero-point Energies=          -1140.266697
 Sum of electronic and thermal Energies=             -1140.248870
 Sum of electronic and thermal Enthalpies=           -1140.247926
 Sum of electronic and thermal Free Energies=        -1140.311146

                     E (Thermal)             CV                S
                      KCal/Mol        Cal/Mol-Kelvin    Cal/Mol-Kelvin
 Total                  139.777             71.224            133.057
 Electronic               0.000              0.000              0.000
 Translational            0.889              2.981             43.032
 Rotational               0.889              2.981             34.333
 Vibrational            137.999             65.263             55.692
 Vibration     1          0.594              1.982              5.445
 Vibration     2          0.597              1.971              4.297
 Vibration     3          0.605              1.947              3.390
 Vibration     4          0.611              1.927              3.005
 Vibration     5          0.614              1.916              2.841
 Vibration     6          0.618              1.903              2.676
 Vibration     7          0.621              1.894              2.581
 Vibration     8          0.633              1.855              2.236
 Vibration     9          0.667              1.749              1.675
 Vibration    10          0.670              1.741              1.644
 Vibration    11          0.674              1.729              1.599
 Vibration    12          0.679              1.713              1.542
 Vibration    13          0.692              1.676              1.425
 Vibration    14          0.694              1.669              1.404
 Vibration    15          0.701              1.650              1.349
 Vibration    16          0.723              1.585              1.188
 Vibration    17          0.724              1.585              1.187
 Vibration    18          0.737              1.547              1.107
 Vibration    19          0.741              1.536              1.084
 Vibration    20          0.745              1.526              1.064
 Vibration    21          0.756              1.497              1.010
 Vibration    22          0.777              1.441              0.915
 Vibration    23          0.809              1.361              0.796
 Vibration    24          0.810              1.358              0.792
 Vibration    25          0.814              1.348              0.778
 Vibration    26          0.831              1.306              0.725
 Vibration    27          0.858              1.245              0.652
 Vibration    28          0.886              1.180              0.584
 Vibration    29          0.899              1.153              0.557
 Vibration    30          0.925              1.099              0.507
 Vibration    31          0.954              1.040              0.456
 Vibration    32          0.971              1.006              0.429

 Optimization completed.
    -- Stationary point found.
 Normal termination of Gaussian 16 at Sun Jan  7 10:06:02 2024.
