 Q-Chem 5.4, Q-Chem, Inc., Pleasanton, CA (2021)
 Q-Chem 5.4.0 for Intel X86 EM64T Linux

User input:
--------------------------------------------------------------
$molecule
0 1
O                  3.8812790000      2.6944240000      1.0330110000
C                  2.9960680000      1.8687500000      1.0451400000
N                  2.9049270000      0.8736190000      2.0164550000
C                  1.9459410000     -0.1367630000      2.1530920000
O                  1.9987270000     -0.9356930000      3.0564260000
C                  0.8972580000     -0.1018480000      1.0876130000
N                 -0.0596390000     -0.9971840000      1.1036810000
C                 -0.9926250000     -0.9366480000      0.1242980000
C                 -2.0466690000     -1.8856750000      0.1022640000
C                 -2.9954000000     -1.8296030000     -0.8880020000
C                 -2.9292570000     -0.8284100000     -1.8904500000
C                 -1.9208050000      0.1057690000     -1.8972270000
C                 -0.9268770000      0.0749550000     -0.8895530000
N                  0.0712540000      0.9953100000     -0.8917600000
C                  0.9565420000      0.9054110000      0.0721630000
N                  1.9868460000      1.8270650000      0.1000560000
H                  3.6371240000      0.8908220000      2.7160550000
H                 -2.0686610000     -2.6373340000      0.8819690000
H                 -3.8026780000     -2.5520780000     -0.9095840000
H                 -3.6892700000     -0.8028470000     -2.6631490000
H                 -1.8587050000      0.8754560000     -2.6568400000
H                  2.0146200000      2.5325020000     -0.6246210000
$end
$rem
MAX_SCF_CYCLES=200
BASIS  =  6-311++G(d,p)
GUI  =  2
JOB_TYPE  =  SP
METHOD  =  B3LYP
SOLVENT_METHOD = PCM
$end
$pcm
theory = CPCM
$end
$solvent
dielectric 37.219
opticaldielectric 1.43
$end

--------------------------------------------------------------

             Standard Nuclear Orientation (Angstroms)
    I     Atom           X                Y                Z
 ----------------------------------------------------------------
    1      O       3.8812790000     2.6944240000     1.0330110000
    2      C       2.9960680000     1.8687500000     1.0451400000
    3      N       2.9049270000     0.8736190000     2.0164550000
    4      C       1.9459410000    -0.1367630000     2.1530920000
    5      O       1.9987270000    -0.9356930000     3.0564260000
    6      C       0.8972580000    -0.1018480000     1.0876130000
    7      N      -0.0596390000    -0.9971840000     1.1036810000
    8      C      -0.9926250000    -0.9366480000     0.1242980000
    9      C      -2.0466690000    -1.8856750000     0.1022640000
   10      C      -2.9954000000    -1.8296030000    -0.8880020000
   11      C      -2.9292570000    -0.8284100000    -1.8904500000
   12      C      -1.9208050000     0.1057690000    -1.8972270000
   13      C      -0.9268770000     0.0749550000    -0.8895530000
   14      N       0.0712540000     0.9953100000    -0.8917600000
   15      C       0.9565420000     0.9054110000     0.0721630000
   16      N       1.9868460000     1.8270650000     0.1000560000
   17      H       3.6371240000     0.8908220000     2.7160550000
   18      H      -2.0686610000    -2.6373340000     0.8819690000
   19      H      -3.8026780000    -2.5520780000    -0.9095840000
   20      H      -3.6892700000    -0.8028470000    -2.6631490000
   21      H      -1.8587050000     0.8754560000    -2.6568400000
   22      H       2.0146200000     2.5325020000    -0.6246210000
 ----------------------------------------------------------------

    9    -754.4175710812      3.54e-06  Convergence criterion met
 Total energy in the final basis set =     -754.4175710812

                    Orbital Energies (a.u.)
 --------------------------------------------------------------

 Alpha MOs
 -- Occupied --
-19.1345 -19.1277 -14.3844 -14.3833 -14.3598 -14.3477 -10.3449 -10.3207
-10.2923 -10.2550 -10.2438 -10.2378 -10.1994 -10.1960 -10.1948 -10.1932
 -1.1046  -1.0841  -1.0293  -0.9845  -0.9561  -0.9289  -0.8717  -0.7947
 -0.7752  -0.7235  -0.7000  -0.6784  -0.6378  -0.6257  -0.5894  -0.5854
 -0.5485  -0.5217  -0.5068  -0.5023  -0.4954  -0.4717  -0.4698  -0.4591
 -0.4577  -0.4511  -0.4401  -0.3910  -0.3883  -0.3835  -0.3689  -0.3443
 -0.3287  -0.3263  -0.3139  -0.3061  -0.2832  -0.2725  -0.2551

          Ground-State Mulliken Net Atomic Charges

     Atom                 Charge (a.u.)
  ----------------------------------------
      1 O                    -0.379698
      2 C                     0.404362
      3 N                    -0.459952
      4 C                     0.396918
      5 O                    -0.367733
      6 C                    -0.122467
      7 N                    -0.010315
      8 C                    -0.017303
      9 C                    -0.177849
     10 C                    -0.325059
     11 C                    -0.242267
     12 C                    -0.227963
     13 C                     0.084920
     14 N                    -0.080672
     15 C                     0.236163
     16 N                    -0.463005
     17 H                     0.448412
     18 H                     0.231354
     19 H                     0.225070
     20 H                     0.229657
     21 H                     0.222617
     22 H                     0.394810
  ----------------------------------------
  Sum of atomic charges =     0.000000

                    Cartesian Multipole Moments
 -----------------------------------------------------------------
    Charge (ESU x 10^10)
                -0.0000
    Dipole Moment (Debye)
         X      -4.2869      Y       0.1360      Z      -4.3473
       Tot       6.1070
    Quadrupole Moments (Debye-Ang)
        XX     -89.7822     XY      -0.1439     YY     -97.2435
        XZ       1.4466     YZ       5.9536     ZZ     -96.8923

 Total job time:  31.02s(wall), 227.35s(cpu)
        *  Thank you very much for using Q-Chem.  Have a nice day.  *
