 Gaussian 16, Revision A.03,
 Gaussian 16:  ES64L-G16RevA.03 25-Dec-2016

 --------------------------------------
 #P UB3LYP/6-311++G(d,p) nosym opt freq
 --------------------------------------

 --------
 Oxidized
 --------
 Symbolic Z-matrix:
 Charge =  0 Multiplicity = 1

 SCF Done:  E(UB3LYP) =  -754.393036584     A.U. after   15 cycles
 Optimization completed.
    -- Stationary point found.
 Normal termination of Gaussian 16 at Tue Jan  9 20:30:39 2024.

 ----------------------------------------------------------------------
 #P Geom=AllCheck Guess=TCheck SCRF=Check GenChk UB3LYP/6-311++G(d,p) F
 req
 ----------------------------------------------------------------------

 Structure from the checkpoint file:  "348.chk"
 --------
 Oxidized
 --------
 Charge =  0 Multiplicity = 1

                          Input orientation:
 ---------------------------------------------------------------------
 Center     Atomic      Atomic             Coordinates (Angstroms)
 Number     Number       Type             X           Y           Z
 ---------------------------------------------------------------------
      1          8           0        3.881279    2.694424    1.033011
      2          6           0        2.996068    1.868750    1.045140
      3          7           0        2.904927    0.873619    2.016455
      4          6           0        1.945941   -0.136763    2.153092
      5          8           0        1.998727   -0.935693    3.056426
      6          6           0        0.897258   -0.101848    1.087613
      7          7           0       -0.059639   -0.997184    1.103681
      8          6           0       -0.992625   -0.936648    0.124298
      9          6           0       -2.046669   -1.885675    0.102264
     10          6           0       -2.995400   -1.829603   -0.888002
     11          6           0       -2.929257   -0.828410   -1.890450
     12          6           0       -1.920805    0.105769   -1.897227
     13          6           0       -0.926877    0.074955   -0.889553
     14          7           0        0.071254    0.995310   -0.891760
     15          6           0        0.956542    0.905411    0.072163
     16          7           0        1.986846    1.827065    0.100056
     17          1           0        3.637124    0.890822    2.716055
     18          1           0       -2.068661   -2.637334    0.881969
     19          1           0       -3.802678   -2.552078   -0.909584
     20          1           0       -3.689270   -0.802847   -2.663149
     21          1           0       -1.858705    0.875456   -2.656840
     22          1           0        2.014620    2.532502   -0.624621
 ---------------------------------------------------------------------

 SCF Done:  E(UB3LYP) =  -754.393036584     A.U. after    1 cycles

 Alpha  occ. eigenvalues --  -19.12887 -19.12647 -14.39448 -14.38855 -14.36235
 Alpha  occ. eigenvalues --  -14.35404 -10.34628 -10.31744 -10.29932 -10.25981
 Alpha  occ. eigenvalues --  -10.25175 -10.24471 -10.21246 -10.20755 -10.20657
 Alpha  occ. eigenvalues --  -10.20513  -1.10551  -1.07917  -1.03541  -0.98983
 Alpha  occ. eigenvalues --   -0.96068  -0.93605  -0.88146  -0.80257  -0.78518
 Alpha  occ. eigenvalues --   -0.73139  -0.70791  -0.68479  -0.64647  -0.63455
 Alpha  occ. eigenvalues --   -0.59730  -0.59256  -0.55787  -0.53221  -0.51296
 Alpha  occ. eigenvalues --   -0.50861  -0.50137  -0.47789  -0.46771  -0.46336
 Alpha  occ. eigenvalues --   -0.46156  -0.45456  -0.44007  -0.40134  -0.39835
 Alpha  occ. eigenvalues --   -0.39583  -0.37352  -0.34521  -0.33486  -0.32440
 Alpha  occ. eigenvalues --   -0.31323  -0.30227  -0.28201  -0.28069  -0.26384
 Alpha virt. eigenvalues --   -0.11664  -0.06360  -0.03112  -0.01541  -0.01521
 Alpha virt. eigenvalues --   -0.00893   0.00374   0.01195   0.01238   0.01614
 Alpha virt. eigenvalues --    0.02760   0.03397   0.04189   0.04982   0.05204

  Beta  occ. eigenvalues --  -19.12887 -19.12647 -14.39448 -14.38855 -14.36235
  Beta  occ. eigenvalues --  -14.35404 -10.34628 -10.31744 -10.29932 -10.25981
  Beta  occ. eigenvalues --  -10.25175 -10.24471 -10.21246 -10.20755 -10.20657
  Beta  occ. eigenvalues --  -10.20513  -1.10551  -1.07917  -1.03541  -0.98983
  Beta  occ. eigenvalues --   -0.96068  -0.93605  -0.88146  -0.80257  -0.78518
  Beta  occ. eigenvalues --   -0.73139  -0.70791  -0.68479  -0.64647  -0.63455
  Beta  occ. eigenvalues --   -0.59730  -0.59256  -0.55787  -0.53221  -0.51296
  Beta  occ. eigenvalues --   -0.50861  -0.50137  -0.47789  -0.46771  -0.46336
  Beta  occ. eigenvalues --   -0.46156  -0.45456  -0.44007  -0.40134  -0.39835
  Beta  occ. eigenvalues --   -0.39583  -0.37352  -0.34521  -0.33486  -0.32440
  Beta  occ. eigenvalues --   -0.31323  -0.30227  -0.28201  -0.28069  -0.26384
  Beta virt. eigenvalues --   -0.11664  -0.06360  -0.03112  -0.01541  -0.01521
  Beta virt. eigenvalues --   -0.00893   0.00374   0.01195   0.01238   0.01614
  Beta virt. eigenvalues --    0.02760   0.03397   0.04189   0.04982   0.05204

 Mulliken charges and spin densities:
               1          2
     1  O   -0.294741  -0.000000
     2  C    0.349277   0.000000
     3  N   -0.453217  -0.000000
     4  C    0.397922  -0.000000
     5  O   -0.268475   0.000000
     6  C   -0.195664   0.000000
     7  N    0.076826  -0.000000
     8  C   -0.149663   0.000000
     9  C   -0.075051  -0.000000
    10  C   -0.275936  -0.000000
    11  C   -0.185098   0.000000
    12  C   -0.148967  -0.000000
    13  C   -0.032426   0.000000
    14  N   -0.029721  -0.000000
    15  C    0.223172  -0.000000
    16  N   -0.462198   0.000000
    17  H    0.409439   0.000000
    18  H    0.209398   0.000000
    19  H    0.180894  -0.000000
    20  H    0.184149  -0.000000
    21  H    0.187196   0.000000
    22  H    0.352885   0.000000
 Sum of Mulliken charges =  -0.00000   0.00000

 Dipole moment (field-independent basis, Debye):
    X=             -3.4229    Y=             -0.1966    Z=             -3.1470  Tot=              4.6538
 Quadrupole moment (field-independent basis, Debye-Ang):
   XX=            -90.7864   YY=            -96.1670   ZZ=            -95.3576
   XY=             -0.6157   XZ=              1.1021   YZ=              4.2607

  Exact polarizability: 203.616  62.597 140.349  62.198 -11.315 145.200
 Approx polarizability: 317.549  98.073 237.709  94.768 -35.370 244.939

                      1                      2                      3
                      A                      A                      A
 Frequencies --     60.3916                83.2050               127.3998
 Red. masses --      7.6612                 6.0584                 8.6705
 Frc consts  --      0.0165                 0.0247                 0.0829
 IR Inten    --      0.1174                 0.0374                 1.8789

                      4                      5                      6
                      A                      A                      A
 Frequencies --    149.6324               197.2033               239.9538
 Red. masses --      7.1597                 7.2216                 6.5986
 Frc consts  --      0.0944                 0.1655                 0.2238
 IR Inten    --      1.6674                 2.3402                 0.1923

                      7                      8                      9
                      A                      A                      A
 Frequencies --    320.9683               335.5893               374.1837
 Red. masses --      6.2376                10.2513                 7.6882
 Frc consts  --      0.3786                 0.6802                 0.6342
 IR Inten    --      0.0451                 5.0538                 5.7117

                     10                     11                     12
                      A                      A                      A
 Frequencies --    415.8964               435.7012               493.7528
 Red. masses --      9.2949                 5.2410                 4.0031
 Frc consts  --      0.9472                 0.5862                 0.5750
 IR Inten    --     30.9582                 5.4296                 0.1133

                     13                     14                     15
                      A                      A                      A
 Frequencies --    512.8013               534.9699               539.5705
 Red. masses --      8.9806                10.0109                 3.4607
 Frc consts  --      1.3914                 1.6880                 0.5936
 IR Inten    --     32.4825                 7.2632                 1.4624

                     16                     17                     18
                      A                      A                      A
 Frequencies --    580.0460               582.5331               617.9553
 Red. masses --      6.8842                 1.2060                 7.8739
 Frc consts  --      1.3647                 0.2411                 1.7715
 IR Inten    --      8.0781                35.2338                 3.6869

                     19                     20                     21
                      A                      A                      A
 Frequencies --    645.9131               677.0450               686.2496
 Red. masses --      1.6570                10.1411                 2.2291
 Frc consts  --      0.4073                 2.7389                 0.6185
 IR Inten    --     90.8242                 1.1882                32.3036

                     22                     23                     24
                      A                      A                      A
 Frequencies --    707.0401               738.8066               759.0756
 Red. masses --      6.0764                 8.1963                 5.9904
 Frc consts  --      1.7897                 2.6359                 2.0336
 IR Inten    --      6.5889                50.6130                 4.4332

                     25                     26                     27
                      A                      A                      A
 Frequencies --    781.1180               788.7920               794.2851
 Red. masses --      1.3659                 6.3645                 6.8435
 Frc consts  --      0.4910                 2.3331                 2.5438
 IR Inten    --     85.3796                 8.6747                 0.3476

                     28                     29                     30
                      A                      A                      A
 Frequencies --    871.7065               875.8413               922.7050
 Red. masses --      6.6311                 1.4805                 6.1593
 Frc consts  --      2.9688                 0.6691                 3.0896
 IR Inten    --     13.6366                 0.2142                 2.5635

                     31                     32                     33
                      A                      A                      A
 Frequencies --    983.5914              1002.9157              1017.3468
 Red. masses --      1.3374                 1.2981                 3.0988
 Frc consts  --      0.7624                 0.7693                 1.8896
 IR Inten    --      1.4005                 0.0324                12.7678

                     34                     35                     36
                      A                      A                      A
 Frequencies --   1030.2677              1115.5409              1156.5175
 Red. masses --      2.1050                 3.4293                 1.4913
 Frc consts  --      1.3165                 2.5144                 1.1752
 IR Inten    --      2.9309                18.3416                 8.2046

                     37                     38                     39
                      A                      A                      A
 Frequencies --   1170.7934              1233.8941              1268.9705
 Red. masses --      1.3616                 4.0624                 3.6081
 Frc consts  --      1.0997                 3.6441                 3.4232
 IR Inten    --      7.8692                96.0641                45.9821

                     40                     41                     42
                      A                      A                      A
 Frequencies --   1272.7831              1327.1298              1336.3856
 Red. masses --      2.8448                 2.4989                 3.5642
 Frc consts  --      2.7153                 2.5932                 3.7504
 IR Inten    --     23.9710                51.0754               218.6134

                     43                     44                     45
                      A                      A                      A
 Frequencies --   1379.9420              1396.7423              1413.3987
 Red. masses --      4.3358                 4.7526                 1.7047
 Frc consts  --      4.8646                 5.4628                 2.0064
 IR Inten    --     73.6122               219.5911                11.2049

                     46                     47                     48
                      A                      A                      A
 Frequencies --   1444.5321              1461.5385              1516.8753
 Red. masses --      2.3218                 6.1419                 3.8495
 Frc consts  --      2.8545                 7.7299                 5.2186
 IR Inten    --     19.7815                85.7760                57.4125

                     49                     50                     51
                      A                      A                      A
 Frequencies --   1536.0698              1595.3057              1614.3165
 Red. masses --      3.6512                 8.0658                 7.6705
 Frc consts  --      5.0758                12.0944                11.7775
 IR Inten    --     20.7677                20.1682               344.9654

                     52                     53                     54
                      A                      A                      A
 Frequencies --   1657.7734              1790.9741              1801.4253
 Red. masses --      6.1354                 8.5099                 9.1879
 Frc consts  --      9.9345                16.0826                17.5671
 IR Inten    --     16.4102               612.2422               895.5113

                     55                     56                     57
                      A                      A                      A
 Frequencies --   3172.6645              3185.2373              3196.9184
 Red. masses --      1.0870                 1.0895                 1.0945
 Frc consts  --      6.4468                 6.5129                 6.5907
 IR Inten    --      2.3941                 4.1423                 5.1269

                     58                     59                     60
                      A                      A                      A
 Frequencies --   3201.7017              3595.2864              3605.8338
 Red. masses --      1.0972                 1.0773                 1.0780
 Frc consts  --      6.6268                 8.2045                 8.2578
 IR Inten    --      8.9150               104.4224                81.1000

 - Thermochemistry -
 -------------------
 Temperature   298.150 Kelvin.  Pressure   1.00000 Atm.
 Atom     1 has atomic number  8 and mass  15.99491

 Molecular mass:   214.04908 amu.
 Principal axes and moments of inertia in atomic units:
                           1         2         3
     Eigenvalues --  1326.566355129.900036456.46638
           X            0.82970  -0.03455  -0.55715
           Y            0.37750  -0.70051   0.60562
           Z            0.41121   0.71281   0.56817
 This molecule is an asymmetric top.
 Rotational symmetry number  1.
 Warning -- assumption of classical behavior for rotation
           may cause significant error
 Rotational temperatures (Kelvin)      0.06529     0.01688     0.01342
 Rotational constants (GHZ):           1.36046     0.35181     0.27952
 Zero-point vibrational energy     408722.1 (Joules/Mol)
                                   97.68693 (Kcal/Mol)
 Warning -- explicit consideration of  18 degrees of freedom as
           vibrations may cause significant error
 Vibrational temperatures:     86.89   119.71   183.30   215.29   283.73
          (Kelvin)            345.24   461.80   482.84   538.37   598.38
                              626.88   710.40   737.81   769.70   776.32
                              834.56   838.14   889.10   929.32   974.12
                              987.36  1017.27  1062.98  1092.14  1123.85
                             1134.90  1142.80  1254.19  1260.14  1327.57
                             1415.17  1442.97  1463.74  1482.33  1605.01
                             1663.97  1684.51  1775.30  1825.77  1831.25
                             1909.44  1922.76  1985.43  2009.60  2033.57
                             2078.36  2102.83  2182.45  2210.06  2295.29
                             2322.64  2385.17  2576.81  2591.85  4564.76
                             4582.85  4599.65  4606.53  5172.82  5187.99

 Zero-point correction=                           0.155674 (Hartree/Particle)
 Thermal correction to Energy=                    0.166899
 Thermal correction to Enthalpy=                  0.167844
 Thermal correction to Gibbs Free Energy=         0.117993
 Sum of electronic and zero-point Energies=           -754.237363
 Sum of electronic and thermal Energies=              -754.226137
 Sum of electronic and thermal Enthalpies=            -754.225193
 Sum of electronic and thermal Free Energies=         -754.275044

                     E (Thermal)             CV                S
                      KCal/Mol        Cal/Mol-Kelvin    Cal/Mol-Kelvin
 Total                  104.731             45.220            104.920
 Electronic               0.000              0.000              0.000
 Translational            0.889              2.981             41.987
 Rotational               0.889              2.981             32.152
 Vibrational            102.954             39.258             30.781
 Vibration     1          0.597              1.973              4.444
 Vibration     2          0.600              1.961              3.814
 Vibration     3          0.611              1.926              2.985
 Vibration     4          0.618              1.903              2.677
 Vibration     5          0.637              1.844              2.159
 Vibration     6          0.657              1.779              1.803
 Vibration     7          0.706              1.633              1.305
 Vibration     8          0.717              1.604              1.233
 Vibration     9          0.745              1.525              1.063
 Vibration    10          0.779              1.436              0.906
 Vibration    11          0.796              1.392              0.840
 Vibration    12          0.849              1.264              0.674
 Vibration    13          0.868              1.222              0.627
 Vibration    14          0.890              1.173              0.576
 Vibration    15          0.895              1.163              0.566
 Vibration    16          0.937              1.074              0.485
 Vibration    17          0.939              1.069              0.481
 Vibration    18          0.978              0.994              0.420

 Optimization completed.
    -- Stationary point found.
 Normal termination of Gaussian 16 at Tue Jan  9 20:56:42 2024.
