 Q-Chem 5.4, Q-Chem, Inc., Pleasanton, CA (2021)
 Q-Chem 5.4.0 for Intel X86 EM64T Linux

User input:
--------------------------------------------------------------
$molecule
-1 2
C                 -1.7755410000      2.7813910000     -0.6499010000
C                 -2.8793650000      1.9705980000     -0.4614620000
C                 -2.7006830000      0.5952630000     -0.2143270000
C                 -0.4595480000      2.2760990000     -0.5898460000
C                 -0.2755750000      0.8832000000     -0.3090330000
C                 -1.4199720000      0.0710800000     -0.1452310000
C                  0.6622130000      3.1942340000     -0.8324620000
C                  2.0361980000      2.6099440000     -0.7745310000
C                  2.1404180000      1.2028170000     -0.4388460000
C                  1.0727550000      0.3690170000     -0.2093880000
O                  0.4682310000      4.4063370000     -1.0769250000
O                  3.0599610000      3.2986980000     -0.9814940000
H                 -1.8817580000      3.8402190000     -0.8575840000
H                 -3.8805600000      2.3882510000     -0.5152990000
H                 -3.5602310000     -0.0563230000     -0.0892980000
H                 -1.3058950000     -0.9971380000      0.0084210000
H                  3.1581330000      0.8359950000     -0.3665610000
N                  1.2330800000     -1.0042780000      0.0937240000
C                  2.5526970000     -1.5330360000      0.3929560000
C                  2.4686530000     -3.0146450000      0.7525910000
H                  0.5432270000     -1.3250260000      0.7612790000
H                  3.0476270000     -0.9784630000      1.2084790000
H                  3.1846060000     -1.4076000000     -0.4916570000
H                  1.8533440000     -3.1713620000      1.6458740000
H                  3.4636460000     -3.4173980000      0.9631560000
H                  2.0278480000     -3.5895940000     -0.0664880000
$end
$rem
MAX_SCF_CYCLES=200
BASIS  =  6-311++G(d,p)
GUI  =  2
JOB_TYPE  =  SP
METHOD  =  B3LYP
SOLVENT_METHOD = PCM
$end
$pcm
theory = CPCM
$end
$solvent
dielectric 37.219
opticaldielectric 1.43
$end

--------------------------------------------------------------

             Standard Nuclear Orientation (Angstroms)
    I     Atom           X                Y                Z
 ----------------------------------------------------------------
    1      C      -1.7755410000     2.7813910000    -0.6499010000
    2      C      -2.8793650000     1.9705980000    -0.4614620000
    3      C      -2.7006830000     0.5952630000    -0.2143270000
    4      C      -0.4595480000     2.2760990000    -0.5898460000
    5      C      -0.2755750000     0.8832000000    -0.3090330000
    6      C      -1.4199720000     0.0710800000    -0.1452310000
    7      C       0.6622130000     3.1942340000    -0.8324620000
    8      C       2.0361980000     2.6099440000    -0.7745310000
    9      C       2.1404180000     1.2028170000    -0.4388460000
   10      C       1.0727550000     0.3690170000    -0.2093880000
   11      O       0.4682310000     4.4063370000    -1.0769250000
   12      O       3.0599610000     3.2986980000    -0.9814940000
   13      H      -1.8817580000     3.8402190000    -0.8575840000
   14      H      -3.8805600000     2.3882510000    -0.5152990000
   15      H      -3.5602310000    -0.0563230000    -0.0892980000
   16      H      -1.3058950000    -0.9971380000     0.0084210000
   17      H       3.1581330000     0.8359950000    -0.3665610000
   18      N       1.2330800000    -1.0042780000     0.0937240000
   19      C       2.5526970000    -1.5330360000     0.3929560000
   20      C       2.4686530000    -3.0146450000     0.7525910000
   21      H       0.5432270000    -1.3250260000     0.7612790000
   22      H       3.0476270000    -0.9784630000     1.2084790000
   23      H       3.1846060000    -1.4076000000    -0.4916570000
   24      H       1.8533440000    -3.1713620000     1.6458740000
   25      H       3.4636460000    -3.4173980000     0.9631560000
   26      H       2.0278480000    -3.5895940000    -0.0664880000
 ----------------------------------------------------------------

    9    -669.4319480453      4.60e-06  Convergence criterion met
 Total energy in the final basis set =     -669.4319480453

                    Orbital Energies (a.u.)
 --------------------------------------------------------------

 Alpha MOs
 -- Occupied --
-19.0757 -19.0701 -14.3205 -10.2142 -10.2128 -10.2115 -10.1949 -10.1808
-10.1730 -10.1710 -10.1705 -10.1694 -10.1669 -10.1578 -10.1481  -1.0115
 -0.9843  -0.9324  -0.8564  -0.7968  -0.7580  -0.7357  -0.7242  -0.6710
 -0.6285  -0.6071  -0.5935  -0.5631  -0.5223  -0.4976  -0.4888  -0.4737
 -0.4487  -0.4429  -0.4341  -0.4223  -0.4176  -0.4141  -0.4003  -0.3881
 -0.3790  -0.3741  -0.3656  -0.3581  -0.3471  -0.3447  -0.3346  -0.3180
 -0.2604  -0.2578  -0.2518  -0.2233  -0.2151  -0.1468

 Beta MOs
 -- Occupied --
-19.0692 -19.0655 -14.3193 -10.2126 -10.2103 -10.2095 -10.1950 -10.1797
-10.1733 -10.1707 -10.1698 -10.1692 -10.1664 -10.1578 -10.1490  -1.0015
 -0.9742  -0.9297  -0.8543  -0.7938  -0.7553  -0.7348  -0.7228  -0.6630
 -0.6267  -0.6061  -0.5902  -0.5603  -0.5206  -0.4957  -0.4866  -0.4715
 -0.4471  -0.4412  -0.4326  -0.4205  -0.4108  -0.4025  -0.3968  -0.3859
 -0.3754  -0.3696  -0.3575  -0.3569  -0.3452  -0.3341  -0.3257  -0.3053
 -0.2534  -0.2487  -0.2439  -0.2182  -0.2074

          Ground-State Mulliken Net Atomic Charges

     Atom                 Charge (a.u.)    Spin (a.u.)
  --------------------------------------------------------
      1 C                     0.118927       0.072532
      2 C                    -0.461328       0.003022
      3 C                    -0.458381       0.071427
      4 C                     0.477978       0.015159
      5 C                     0.298519       0.065244
      6 C                    -0.204179      -0.006368
      7 C                    -0.572747       0.144969
      8 C                     0.016294       0.154243
      9 C                    -0.067452      -0.082766
     10 C                    -0.274722       0.100006
     11 O                    -0.520135       0.244291
     12 O                    -0.556919       0.163795
     13 H                     0.171831      -0.004461
     14 H                     0.193231      -0.001140
     15 H                     0.198521      -0.005147
     16 H                     0.161884       0.002080
     17 H                     0.213310       0.002393
     18 N                    -0.006898       0.051956
     19 C                    -0.086109      -0.005464
     20 C                    -0.697787       0.004698
     21 H                     0.257193       0.000901
     22 H                     0.164666       0.007418
     23 H                     0.164726       0.001354
     24 H                     0.151083      -0.000163
     25 H                     0.160186      -0.000387
     26 H                     0.158307       0.000409
  --------------------------------------------------------
  Sum of atomic charges =    -1.000000

                    Cartesian Multipole Moments
 -----------------------------------------------------------------
    Charge (ESU x 10^10)
                -4.8032
    Dipole Moment (Debye)
         X      -8.1378      Y     -21.0067      Z       6.6728
       Tot      23.4953
    Quadrupole Moments (Debye-Ang)
        XX    -111.4904     XY     -35.7515     YY    -168.1751
        XZ      10.6678     YZ      17.9144     ZZ     -99.5957

 Total job time:  52.25s(wall), 321.90s(cpu)
        *  Thank you very much for using Q-Chem.  Have a nice day.  *
