 Q-Chem 5.4, Q-Chem, Inc., Pleasanton, CA (2021)
 Q-Chem 5.4.0 for Intel X86 EM64T Linux

User input:
--------------------------------------------------------------
$molecule
0 1
C                  5.7445380000     -5.2911960000      1.3745770000
C                  6.6991810000     -5.1852120000      0.3727110000
C                  6.5885230000     -4.2181620000     -0.6397380000
C                  4.6456770000     -4.4276110000      1.3919060000
C                  4.5210730000     -3.4549280000      0.3857960000
C                  5.4891410000     -3.3594910000     -0.6162070000
C                  3.6236370000     -4.5446350000      2.4683260000
C                  2.4824190000     -3.5955450000      2.4255910000
C                  2.3609830000     -2.6669220000      1.4673230000
C                  3.3583610000     -2.5188500000      0.3782000000
O                  3.7004180000     -5.3777590000      3.3574530000
O                  3.2151940000     -1.6614070000     -0.4783340000
H                  5.8313280000     -6.0376540000      2.1548370000
H                  7.5477480000     -5.8620450000      0.3707460000
H                  1.7541320000     -3.7046870000      3.2220630000
H                  1.5278570000     -1.9730190000      1.4349360000
C                  7.6360170000     -4.1182990000     -1.7197750000
H                  5.3643570000     -2.5986100000     -1.3780870000
H                  7.7132390000     -5.0558350000     -2.2786810000
H                  8.6221950000     -3.9148210000     -1.2915310000
H                  7.4043010000     -3.3212160000     -2.4276630000
$end
$rem
MAX_SCF_CYCLES=200
BASIS  =  6-311++G(d,p)
GUI  =  2
JOB_TYPE  =  SP
METHOD  =  B3LYP
SOLVENT_METHOD = COSMO
$end
$solvent
dielectric 37.219
opticaldielectric 1.43
$end

--------------------------------------------------------------

             Standard Nuclear Orientation (Angstroms)
    I     Atom           X                Y                Z
 ----------------------------------------------------------------
    1      C      -0.6726395096    -1.7630710287    -0.0000277206
    2      C      -2.0097411834    -1.3909548588     0.0001047667
    3      C      -2.3897141856    -0.0388807521     0.0000802137
    4      C       0.3280175809    -0.7872328140    -0.0001268589
    5      C      -0.0363574577     0.5696483667    -0.0001415239
    6      C      -1.3856400547     0.9298015995    -0.0000520620
    7      C       1.7612985389    -1.1905268626    -0.0001134310
    8      C       2.7716765749    -0.1023573848     0.0000958215
    9      C       2.4271166346     1.1924952654     0.0000893726
   10      C       1.0101276089     1.6341049987    -0.0001240656
   11      O       2.1133886028    -2.3595308457     0.0000201307
   12      O       0.7333818366     2.8227039764     0.0000462043
   13      H      -0.3811678813    -2.8064223632    -0.0000226341
   14      H      -2.7770667966    -2.1586684231     0.0002103345
   15      H       3.8069315417    -0.4262843979     0.0002417621
   16      H       3.1641622245     1.9883677420     0.0002390072
   17      C      -3.8476917409     0.3458238964     0.0000349725
   18      H      -1.6340856518     1.9849067423    -0.0000561127
   19      H      -4.3590992141    -0.0562435847     0.8798741865
   20      H      -4.3582688090    -0.0535310198    -0.8815374727
   21      H      -3.9742857670     1.4293877047     0.0016033387
 ----------------------------------------------------------------

    9    -574.5874884658      2.57e-06  Convergence criterion met
 Total energy in the final basis set =     -574.5874884658
    5    -574.6018845508      2.90e-06  Convergence criterion met
 Total energy in the final basis set =     -574.6018845508

                    Orbital Energies (a.u.)
 --------------------------------------------------------------

 Alpha MOs
 -- Occupied --
-19.1397 -19.1384 -10.2871 -10.2861 -10.2112 -10.2104 -10.2076 -10.2069
-10.2051 -10.1964 -10.1937 -10.1929 -10.1705  -1.0723  -1.0702  -0.8915
 -0.8425  -0.7928  -0.7767  -0.7163  -0.6932  -0.6473  -0.6234  -0.5913
 -0.5397  -0.5235  -0.5108  -0.4771  -0.4657  -0.4613  -0.4549  -0.4485
 -0.4305  -0.4269  -0.4224  -0.4223  -0.3931  -0.3750  -0.3692  -0.3629
 -0.3105  -0.2923  -0.2805  -0.2788  -0.2696

          Ground-State Mulliken Net Atomic Charges

     Atom                 Charge (a.u.)
  ----------------------------------------
      1 C                     0.233509
      2 C                    -0.396610
      3 C                     0.458163
      4 C                     0.121364
      5 C                     0.089394
      6 C                    -0.147676
      7 C                    -0.793563
      8 C                     0.238991
      9 C                     0.013411
     10 C                    -0.429135
     11 O                    -0.316494
     12 O                    -0.308986
     13 H                     0.198590
     14 H                     0.225236
     15 H                     0.255352
     16 H                     0.257247
     17 C                    -0.412639
     18 H                     0.162721
     19 H                     0.184161
     20 H                     0.184318
     21 H                     0.182645
  ----------------------------------------
  Sum of atomic charges =     0.000000

                    Cartesian Multipole Moments
 -----------------------------------------------------------------
    Charge (ESU x 10^10)
                 0.0000
    Dipole Moment (Debye)
         X      -2.8339      Y      -0.3792      Z      -0.0003
       Tot       2.8592
    Quadrupole Moments (Debye-Ang)
        XX     -58.2835     XY       8.8475     YY     -91.7052
        XZ       0.0010     YZ      -0.0016     ZZ     -76.3704

 Total job time:  28.52s(wall), 186.27s(cpu)
        *  Thank you very much for using Q-Chem.  Have a nice day.  *
