 Q-Chem 5.4, Q-Chem, Inc., Pleasanton, CA (2021)
 Q-Chem 5.4.0 for Intel X86 EM64T Linux

User input:
--------------------------------------------------------------
$molecule
-2 1
N                 -4.5338230000     -0.9670600000     -0.7652350000
C                 -3.2386010000     -0.6782160000     -0.2397240000
C                 -3.0436480000     -0.7364740000      1.1701450000
C                 -1.7904220000     -0.5066880000      1.6988710000
C                 -0.6617610000     -0.2312270000      0.8920010000
C                  0.6310620000     -0.0235670000      1.5219440000
O                  0.8011990000     -0.0857720000      2.7881300000
C                  1.7141830000      0.2689830000      0.6009420000
C                  3.0172090000      0.4885840000      1.1091790000
C                  4.0919560000      0.7696770000      0.2885390000
C                  3.8964060000      0.8419360000     -1.1196490000
C                  2.6385200000      0.6336770000     -1.6468460000
C                  1.5128300000      0.3460710000     -0.8320080000
C                  0.2219080000      0.1369680000     -1.4565550000
O                  0.0505780000      0.2032010000     -2.7262300000
C                 -0.8580150000     -0.1596230000     -0.5359370000
C                 -2.1639690000     -0.3807430000     -1.0505230000
H                 -5.2816890000     -0.5321040000     -0.2206830000
H                 -4.6250410000     -0.6604220000     -1.7293300000
H                 -3.8839200000     -0.9822730000      1.8158910000
H                 -1.6228890000     -0.5471120000      2.7706880000
H                  3.1316570000      0.4255410000      2.1871730000
H                  5.0809020000      0.9332060000      0.7130290000
H                  4.7366500000      1.0613920000     -1.7764430000
H                  2.4586320000      0.6830890000     -2.7164180000
H                 -2.2799170000     -0.3010440000     -2.1282800000
$end
$rem
MAX_SCF_CYCLES=200
BASIS  =  6-311++G(d,p)
GUI  =  2
JOB_TYPE  =  SP
METHOD  =  B3LYP
SOLVENT_METHOD = PCM
$end
$pcm
theory = CPCM
$end
$solvent
dielectric 37.219
opticaldielectric 1.43
$end

--------------------------------------------------------------

             Standard Nuclear Orientation (Angstroms)
    I     Atom           X                Y                Z
 ----------------------------------------------------------------
    1      N      -4.5338230000    -0.9670600000    -0.7652350000
    2      C      -3.2386010000    -0.6782160000    -0.2397240000
    3      C      -3.0436480000    -0.7364740000     1.1701450000
    4      C      -1.7904220000    -0.5066880000     1.6988710000
    5      C      -0.6617610000    -0.2312270000     0.8920010000
    6      C       0.6310620000    -0.0235670000     1.5219440000
    7      O       0.8011990000    -0.0857720000     2.7881300000
    8      C       1.7141830000     0.2689830000     0.6009420000
    9      C       3.0172090000     0.4885840000     1.1091790000
   10      C       4.0919560000     0.7696770000     0.2885390000
   11      C       3.8964060000     0.8419360000    -1.1196490000
   12      C       2.6385200000     0.6336770000    -1.6468460000
   13      C       1.5128300000     0.3460710000    -0.8320080000
   14      C       0.2219080000     0.1369680000    -1.4565550000
   15      O       0.0505780000     0.2032010000    -2.7262300000
   16      C      -0.8580150000    -0.1596230000    -0.5359370000
   17      C      -2.1639690000    -0.3807430000    -1.0505230000
   18      H      -5.2816890000    -0.5321040000    -0.2206830000
   19      H      -4.6250410000    -0.6604220000    -1.7293300000
   20      H      -3.8839200000    -0.9822730000     1.8158910000
   21      H      -1.6228890000    -0.5471120000     2.7706880000
   22      H       3.1316570000     0.4255410000     2.1871730000
   23      H       5.0809020000     0.9332060000     0.7130290000
   24      H       4.7366500000     1.0613920000    -1.7764430000
   25      H       2.4586320000     0.6830890000    -2.7164180000
   26      H      -2.2799170000    -0.3010440000    -2.1282800000
 ----------------------------------------------------------------

    9    -744.5743989604      7.30e-06  Convergence criterion met
 Total energy in the final basis set =     -744.5743989604

                    Orbital Energies (a.u.)
 --------------------------------------------------------------

 Alpha MOs
 -- Occupied --
-19.0246 -19.0192 -14.3011 -10.1876 -10.1762 -10.1695 -10.1493 -10.1477
-10.1476 -10.1461 -10.1452 -10.1439 -10.1371 -10.1359 -10.1340 -10.1335
-10.1332  -0.9454  -0.9384  -0.8943  -0.8236  -0.8112  -0.7455  -0.7217
 -0.7194  -0.6985  -0.6321  -0.6095  -0.5837  -0.5628  -0.5260  -0.5091
 -0.4996  -0.4759  -0.4509  -0.4368  -0.4277  -0.4145  -0.4007  -0.3971
 -0.3844  -0.3781  -0.3711  -0.3658  -0.3591  -0.3506  -0.3284  -0.3216
 -0.3180  -0.3149  -0.2995  -0.2771  -0.2329  -0.2252  -0.2217  -0.2057
 -0.1976  -0.1957  -0.1032

          Ground-State Mulliken Net Atomic Charges

     Atom                 Charge (a.u.)
  ----------------------------------------
      1 N                    -0.434312
      2 C                    -0.485508
      3 C                    -0.294031
      4 C                     0.002756
      5 C                     0.199747
      6 C                    -0.351649
      7 O                    -0.675814
      8 C                     0.216579
      9 C                    -0.022836
     10 C                    -0.542010
     11 C                    -0.524158
     12 C                    -0.021636
     13 C                     0.255301
     14 C                    -0.619306
     15 O                    -0.696240
     16 C                     0.422319
     17 C                    -0.078559
     18 H                     0.268426
     19 H                     0.279906
     20 H                     0.194063
     21 H                     0.144451
     22 H                     0.142066
     23 H                     0.169266
     24 H                     0.171285
     25 H                     0.140896
     26 H                     0.138999
  ----------------------------------------
  Sum of atomic charges =    -2.000000

                    Cartesian Multipole Moments
 -----------------------------------------------------------------
    Charge (ESU x 10^10)
                -9.6064
    Dipole Moment (Debye)
         X      -5.8982      Y       0.7129      Z      -0.0310
       Tot       5.9413
    Quadrupole Moments (Debye-Ang)
        XX    -117.5329     XY      -9.0986     YY    -116.3184
        XZ      -4.1759     YZ       1.7430     ZZ    -159.0976

 Total job time:  75.00s(wall), 325.81s(cpu)
        *  Thank you very much for using Q-Chem.  Have a nice day.  *
