 Q-Chem 5.4, Q-Chem, Inc., Pleasanton, CA (2021)
 Q-Chem 5.4.0 for Intel X86 EM64T Linux

User input:
--------------------------------------------------------------
$molecule
-2 1
C                  2.8116100000     -0.4061810000      0.4152590000
O                  1.6484480000      0.2966420000      0.8181500000
C                  0.4544430000     -0.3204880000      0.4312410000
C                 -0.3913240000      0.3887380000     -0.4378800000
O                  0.0928130000      1.5841080000     -0.9790850000
C                 -0.6638360000      2.7250300000     -0.6118210000
C                 -1.6894900000     -0.0885490000     -0.8415670000
O                 -2.4713220000      0.5656480000     -1.6474560000
C                 -2.0165730000     -1.3598080000     -0.2752020000
C                 -1.1655390000     -2.0762110000      0.5667400000
C                  0.1185620000     -1.6074540000      0.9852160000
O                  0.8988960000     -2.2628700000      1.7916700000
H                  2.9040750000     -0.4144550000     -0.6840020000
H                  3.6720840000      0.1347610000      0.8317770000
H                  2.7887580000     -1.4310080000      0.7999930000
H                 -0.2312970000      3.5811470000     -1.1470910000
H                 -0.5852960000      2.9158040000      0.4718760000
H                 -1.7127180000      2.5935170000     -0.8971020000
H                 -2.9847840000     -1.7759950000     -0.5554520000
H                 -1.4775100000     -3.0423760000      0.9647360000
$end
$rem
MAX_SCF_CYCLES=200
BASIS  =  6-311++G(d,p)
GUI  =  2
JOB_TYPE  =  SP
METHOD  =  B3LYP
SOLVENT_METHOD = COSMO
$end
$solvent
dielectric 37.219
opticaldielectric 1.43
$end

--------------------------------------------------------------

             Standard Nuclear Orientation (Angstroms)
    I     Atom           X                Y                Z
 ----------------------------------------------------------------
    1      C      -2.2943832781     1.7760343681     0.6880314046
    2      O      -1.3188001897     1.4770450278    -0.2958741689
    3      C      -0.6933765943     0.2396170734    -0.1119901424
    4      C       0.6934567543     0.2397779532     0.1124823218
    5      O       1.3187528208     1.4772487920     0.2965249152
    6      C       2.2929065551     1.7769659852    -0.6885119731
    7      C       1.4758422170    -0.9648048342     0.2258592771
    8      O       2.7582289275    -0.9655391635     0.4360398107
    9      C       0.6910487043    -2.1529408374     0.0982503927
   10      C      -0.6901733138    -2.1530934983    -0.0981781495
   11      C      -1.4753052545    -0.9652159065    -0.2257921320
   12      O      -2.7576714085    -0.9664252471    -0.4364931603
   13      H      -1.8265531485     1.9011654813     1.6792277301
   14      H      -2.7569996064     2.7296792541     0.3998152350
   15      H      -3.0515253516     0.9859765440     0.7248737690
   16      H       2.7556584647     2.7306119662    -0.4004836929
   17      H       1.8237315688     1.9024120294    -1.6790171779
   18      H       3.0503728143     0.9872690956    -0.7266964826
   19      H       1.2300627021    -3.0967525032     0.1869502901
   20      H      -1.2289233844    -3.0970389619    -0.1871548395
 ----------------------------------------------------------------

   12    -610.6417673469      8.84e-06  Convergence criterion met
 Total energy in the final basis set =     -610.6417673469
    5    -610.9461208383      7.97e-06  Convergence criterion met
 Total energy in the final basis set =     -610.9461208383

                    Orbital Energies (a.u.)
 --------------------------------------------------------------

 Alpha MOs
 -- Occupied --
-19.1141 -19.1140 -19.0207 -19.0207 -10.1894 -10.1894 -10.1790 -10.1785
-10.1730 -10.1730 -10.1234 -10.1228  -1.0332  -1.0156  -0.9313  -0.9289
 -0.7803  -0.7142  -0.6816  -0.6403  -0.6375  -0.5566  -0.5379  -0.4801
 -0.4671  -0.4497  -0.4436  -0.4258  -0.4220  -0.4071  -0.3982  -0.3676
 -0.3542  -0.3474  -0.3412  -0.3272  -0.3192  -0.3149  -0.2636  -0.2616
 -0.2293  -0.2018  -0.1985  -0.1977  -0.1233

          Ground-State Mulliken Net Atomic Charges

     Atom                 Charge (a.u.)
  ----------------------------------------
      1 C                    -0.261301
      2 O                    -0.232057
      3 C                    -0.031985
      4 C                    -0.038210
      5 O                    -0.231631
      6 C                    -0.261173
      7 C                    -0.228713
      8 O                    -0.770041
      9 C                    -0.074029
     10 C                    -0.073554
     11 C                    -0.228332
     12 O                    -0.770154
     13 H                     0.130822
     14 H                     0.146579
     15 H                     0.172780
     16 H                     0.146535
     17 H                     0.130808
     18 H                     0.172704
     19 H                     0.150477
     20 H                     0.150477
  ----------------------------------------
  Sum of atomic charges =    -2.000000

                    Cartesian Multipole Moments
 -----------------------------------------------------------------
    Charge (ESU x 10^10)
                -9.6064
    Dipole Moment (Debye)
         X      -0.0057      Y       7.3073      Z      -0.0006
       Tot       7.3073
    Quadrupole Moments (Debye-Ang)
        XX    -135.4500     XY      -0.0121     YY     -91.5043
        XZ     -14.7536     YZ      -0.0063     ZZ     -81.6096

 Total job time:  32.53s(wall), 219.27s(cpu)
        *  Thank you very much for using Q-Chem.  Have a nice day.  *
