 Q-Chem 5.4, Q-Chem, Inc., Pleasanton, CA (2021)
 Q-Chem 5.4.0 for Intel X86 EM64T Linux

User input:
--------------------------------------------------------------
$molecule
-2 1
C                 -2.9005220000      0.4002460000      0.5264370000
C                 -1.9162850000     -0.4134270000     -0.3393020000
C                 -2.2691510000     -0.3315370000     -1.8390370000
C                 -0.4452810000     -0.1674340000     -0.0231330000
C                  0.2673970000      1.0267980000     -0.2022140000
Br                -0.6348540000      2.6453520000     -0.9431020000
C                  1.6442890000      1.2792010000      0.0868470000
O                  2.2541110000      2.3977560000     -0.0964720000
C                  2.3104880000      0.1102230000      0.6260670000
C                  1.6082310000     -1.0789690000      0.8060700000
Br                 2.5884280000     -2.6407400000      1.5502100000
C                  0.2348820000     -1.3366570000      0.5194090000
O                 -0.3560230000     -2.4651600000      0.7105090000
C                  3.7696520000      0.2711170000      0.9659210000
H                 -2.8449610000      1.4719830000      0.3221830000
H                 -2.6787460000      0.2440250000      1.5869160000
H                 -3.9350160000      0.0686340000      0.3450640000
H                 -2.0413380000     -1.4611370000     -0.0485960000
H                 -2.1609590000      0.6803490000     -2.2363870000
H                 -1.6120990000     -0.9938490000     -2.4116320000
H                 -3.3075640000     -0.6579350000     -2.0070090000
H                  4.4043610000     -0.4235770000      0.3986820000
H                  4.0514200000      1.2985970000      0.7258000000
H                  3.9695420000      0.0761420000      2.0285260000
$end
$rem
MAX_SCF_CYCLES=200
BASIS  =  6-311++G(d,p)
GUI  =  2
JOB_TYPE  =  SP
METHOD  =  B3LYP
SOLVENT_METHOD = COSMO
$end
$solvent
dielectric 37.219
opticaldielectric 1.43
$end

--------------------------------------------------------------

             Standard Nuclear Orientation (Angstroms)
    I     Atom           X                Y                Z
 ----------------------------------------------------------------
    1      C      -2.3471232396     2.2975779057    -1.2776459855
    2      C      -1.5023209024     2.1107273235    -0.0002712909
    3      C      -2.3463145281     2.2977702158     1.2776626559
    4      C      -0.6255426072     0.8634952040    -0.0001237485
    5      C      -1.0571753432    -0.4706199248    -0.0000209721
    6      Br     -3.0045732127    -0.9068887431     0.0000278146
    7      C      -0.2541486894    -1.6530932986     0.0001501067
    8      O      -0.7005805966    -2.8603018513     0.0004294912
    9      C       1.1630421651    -1.3486940608    -0.0001076200
   10      C       1.5981466508    -0.0256567813     0.0000673339
   11      Br      3.5571598459     0.3148229581     0.0000093570
   12      C       0.8018466958     1.1578006500     0.0000612660
   13      O       1.2698714957     2.3578672046     0.0000955737
   14      C       2.0991826232    -2.5294514935    -0.0004643115
   15      H      -3.1180102017     1.5305164035    -1.3814576517
   16      H      -1.7009187151     2.2521599124    -2.1600077156
   17      H      -2.8404058179     3.2822905095    -1.2703039441
   18      H      -0.7587908626     2.9138509043    -0.0005341576
   19      H      -3.1163713164     1.5299968846     1.3827457806
   20      H      -1.6993342108     2.2535308143     2.1595350358
   21      H      -2.8405430222     3.2820127584     1.2701381091
   22      H       2.7561584833    -2.5352837036     0.8801968357
   23      H       1.4870173674    -3.4338937584    -0.0025475323
   24      H       2.7587819933    -2.5325355153    -0.8791108892
 ----------------------------------------------------------------

   11   -5685.9534063947      5.83e-06  Convergence criterion met
 Total energy in the final basis set =    -5685.9534063947
    5   -5686.2249373892      9.86e-06  Convergence criterion met
 Total energy in the final basis set =    -5686.2249373892

                    Orbital Energies (a.u.)
 --------------------------------------------------------------

 Alpha MOs
 -- Occupied --
********-482.7985 -62.4548 -62.4515 -56.2749 -56.2717 -56.2716 -56.2714
-56.2684 -56.2680 -19.0278 -19.0275 -10.1891 -10.1884 -10.1858 -10.1840
-10.1514 -10.1495 -10.1482 -10.1412 -10.1397 -10.1397  -8.6634  -8.6602
 -6.4934  -6.4903  -6.4830  -6.4821  -6.4797  -6.4788  -2.6046  -2.6018
 -2.6014  -2.6011  -2.5985  -2.5979  -2.5928  -2.5927  -2.5894  -2.5894
 -0.9494  -0.9457  -0.8170  -0.7916  -0.7604  -0.7434  -0.7156  -0.6658
 -0.6536  -0.6463  -0.5763  -0.5279  -0.5164  -0.4693  -0.4342  -0.4170
 -0.4073  -0.4066  -0.3931  -0.3835  -0.3732  -0.3693  -0.3642  -0.3564
 -0.3508  -0.3334  -0.3310  -0.3225  -0.3203  -0.3003  -0.2881  -0.2809
 -0.2671  -0.2595  -0.2342  -0.2119  -0.2078  -0.2050  -0.1307

          Ground-State Mulliken Net Atomic Charges

     Atom                 Charge (a.u.)
  ----------------------------------------
      1 C                    -0.730516
      2 C                     0.297487
      3 C                    -0.730367
      4 C                     0.943533
      5 C                     0.259020
      6 Br                   -0.218409
      7 C                    -1.344874
      8 O                    -0.643208
      9 C                     0.723163
     10 C                     0.117407
     11 Br                   -0.312707
     12 C                    -0.950870
     13 O                    -0.627561
     14 C                    -0.329100
     15 H                     0.142095
     16 H                     0.148967
     17 H                     0.142514
     18 H                     0.200856
     19 H                     0.142036
     20 H                     0.149057
     21 H                     0.142472
     22 H                     0.152114
     23 H                     0.175071
     24 H                     0.151823
  ----------------------------------------
  Sum of atomic charges =    -2.000000

                    Cartesian Multipole Moments
 -----------------------------------------------------------------
    Charge (ESU x 10^10)
                -9.6064
    Dipole Moment (Debye)
         X      -2.3010      Y       2.5154      Z      -0.0019
       Tot       3.4091
    Quadrupole Moments (Debye-Ang)
        XX    -153.5744     XY     -23.2457     YY    -168.9724
        XZ       0.0005     YZ      -0.0025     ZZ    -119.2810

 Total job time:  77.01s(wall), 484.83s(cpu)
        *  Thank you very much for using Q-Chem.  Have a nice day.  *
