 Gaussian 16, Revision A.03,
 Gaussian 16:  ES64L-G16RevA.03 25-Dec-2016

 ----------------------------------------------------------------------
 #P UB3LYP/6-311++G(d,p) nosym opt freq SCRF=(PCM,Solvent=n,n-DiMethylF
 ormamide)
 ----------------------------------------------------------------------

 --------
 Oxidized
 --------
 Symbolic Z-matrix:
 Charge =  0 Multiplicity = 1

 SCF Done:  E(UB3LYP) =  -858.899367783     A.U. after   14 cycles
 SCF Done:  E(UB3LYP) =  -858.899382297     A.U. after   10 cycles
 SCF Done:  E(UB3LYP) =  -858.899373560     A.U. after   10 cycles
 SCF Done:  E(UB3LYP) =  -858.899385834     A.U. after   11 cycles
 SCF Done:  E(UB3LYP) =  -858.899388715     A.U. after    9 cycles
 SCF Done:  E(UB3LYP) =  -858.899389069     A.U. after    9 cycles
 SCF Done:  E(UB3LYP) =  -858.899390062     A.U. after   10 cycles
 SCF Done:  E(UB3LYP) =  -858.899390806     A.U. after   11 cycles
 SCF Done:  E(UB3LYP) =  -858.899391314     A.U. after   11 cycles
 SCF Done:  E(UB3LYP) =  -858.899383084     A.U. after   12 cycles
 SCF Done:  E(UB3LYP) =  -858.899390119     A.U. after   11 cycles
 SCF Done:  E(UB3LYP) =  -858.899394897     A.U. after   12 cycles
 SCF Done:  E(UB3LYP) =  -858.899393749     A.U. after   11 cycles
 SCF Done:  E(UB3LYP) =  -858.899185415     A.U. after   15 cycles
 SCF Done:  E(UB3LYP) =  -858.899375495     A.U. after   14 cycles
 SCF Done:  E(UB3LYP) =  -858.899394824     A.U. after   11 cycles
 SCF Done:  E(UB3LYP) =  -858.899396331     A.U. after   11 cycles
 SCF Done:  E(UB3LYP) =  -858.899396564     A.U. after    9 cycles
 SCF Done:  E(UB3LYP) =  -858.899396720     A.U. after   10 cycles
 Optimization completed.
    -- Stationary point found.
 Normal termination of Gaussian 16 at Sun Feb 11 05:19:32 2024.

 ----------------------------------------------------------------------
 #P Geom=AllCheck Guess=TCheck SCRF=Check GenChk UB3LYP/6-311++G(d,p) F
 req
 ----------------------------------------------------------------------

 Structure from the checkpoint file:  "155.chk"
 --------
 Oxidized
 --------
 Charge =  0 Multiplicity = 1

                          Input orientation:
 ---------------------------------------------------------------------
 Center     Atomic      Atomic             Coordinates (Angstroms)
 Number     Number       Type             X           Y           Z
 ---------------------------------------------------------------------
      1          6           0       -2.256942    3.227495    4.112097
      2          6           0       -3.510838    2.681072    4.354503
      3          6           0       -3.938667    1.558217    3.658280
      4          6           0       -3.109418    0.952556    2.702813
      5          6           0       -1.818315    1.495120    2.444342
      6          6           0       -1.418028    2.644597    3.163463
      7          6           0       -0.087404    3.297547    2.942137
      8          6           0       -0.884707    0.891415    1.463631
      9          6           0        0.793502    2.763880    1.912591
     10          6           0        0.405234    1.609601    1.184374
     11          6           0        2.045257    3.388023    1.613294
     12          6           0        2.844755    2.836148    0.580875
     13          6           0        2.435554    1.718373   -0.112474
     14          6           0        1.216784    1.093185    0.186279
     15          8           0        0.216926    4.282806    3.631271
     16          8           0       -1.120209   -0.160804    0.880409
     17          7           0        2.488852    4.480303    2.280380
     18          8           0       -3.498300   -0.133418    2.005975
     19          6           0       -4.803764   -0.681961    2.227073
     20          1           0       -1.915423    4.103764    4.644995
     21          1           0       -4.167540    3.131014    5.090083
     22          1           0       -4.919647    1.153829    3.860805
     23          1           0        3.791359    3.310973    0.346607
     24          1           0        3.066974    1.317779   -0.897450
     25          1           0        0.897331    0.211568   -0.351757
     26          1           0        1.908508    4.879759    3.004832
     27          1           0        3.358289    4.915365    2.019006
     28          1           0       -4.876796   -1.528519    1.548063
     29          1           0       -5.583463    0.046162    1.989569
     30          1           0       -4.917163   -1.029024    3.257175
 ---------------------------------------------------------------------

 SCF Done:  E(UB3LYP) =  -858.899396720     A.U. after    1 cycles

 Alpha  occ. eigenvalues --  -19.17119 -19.12220 -19.11822 -14.33575 -10.27669
 Alpha  occ. eigenvalues --  -10.27589 -10.26551 -10.24795 -10.22868 -10.20814
 Alpha  occ. eigenvalues --  -10.20664 -10.20353 -10.19856 -10.19852 -10.19589
 Alpha  occ. eigenvalues --  -10.19331 -10.19014 -10.18710 -10.18336  -1.08968
 Alpha  occ. eigenvalues --   -1.05465  -1.05154  -0.94559  -0.88534  -0.86495
 Alpha  occ. eigenvalues --   -0.80925  -0.78130  -0.76984  -0.75511  -0.71774
 Alpha  occ. eigenvalues --   -0.68578  -0.66037  -0.65024  -0.60914  -0.58439
 Alpha  occ. eigenvalues --   -0.57551  -0.55901  -0.53387  -0.51525  -0.51181
 Alpha  occ. eigenvalues --   -0.49379  -0.49151  -0.48403  -0.47281  -0.47089
 Alpha  occ. eigenvalues --   -0.45167  -0.45019  -0.44957  -0.43271  -0.42337
 Alpha  occ. eigenvalues --   -0.41483  -0.40188  -0.39991  -0.39003  -0.38326
 Alpha  occ. eigenvalues --   -0.37999  -0.37166  -0.35222  -0.34211  -0.33249
 Alpha  occ. eigenvalues --   -0.28714  -0.28005  -0.27499  -0.26349  -0.24720
 Alpha  occ. eigenvalues --   -0.22594
 Alpha virt. eigenvalues --   -0.11251  -0.05915  -0.03500  -0.00987  -0.00719
 Alpha virt. eigenvalues --   -0.00108   0.00616   0.01367   0.01521   0.03028
 Alpha virt. eigenvalues --    0.03207   0.03462   0.03641   0.03703   0.04516

  Beta  occ. eigenvalues --  -19.17119 -19.12220 -19.11822 -14.33575 -10.27669
  Beta  occ. eigenvalues --  -10.27589 -10.26551 -10.24795 -10.22868 -10.20814
  Beta  occ. eigenvalues --  -10.20664 -10.20353 -10.19856 -10.19852 -10.19589
  Beta  occ. eigenvalues --  -10.19331 -10.19014 -10.18710 -10.18336  -1.08968
  Beta  occ. eigenvalues --   -1.05465  -1.05154  -0.94559  -0.88534  -0.86495
  Beta  occ. eigenvalues --   -0.80925  -0.78130  -0.76984  -0.75511  -0.71774
  Beta  occ. eigenvalues --   -0.68578  -0.66037  -0.65024  -0.60914  -0.58439
  Beta  occ. eigenvalues --   -0.57551  -0.55901  -0.53387  -0.51525  -0.51181
  Beta  occ. eigenvalues --   -0.49379  -0.49151  -0.48403  -0.47281  -0.47089
  Beta  occ. eigenvalues --   -0.45167  -0.45019  -0.44957  -0.43271  -0.42337
  Beta  occ. eigenvalues --   -0.41483  -0.40188  -0.39991  -0.39003  -0.38326
  Beta  occ. eigenvalues --   -0.37999  -0.37166  -0.35222  -0.34211  -0.33249
  Beta  occ. eigenvalues --   -0.28714  -0.28005  -0.27499  -0.26349  -0.24720
  Beta  occ. eigenvalues --   -0.22594
  Beta virt. eigenvalues --   -0.11251  -0.05915  -0.03500  -0.00987  -0.00719
  Beta virt. eigenvalues --   -0.00108   0.00616   0.01367   0.01521   0.03028
  Beta virt. eigenvalues --    0.03207   0.03462   0.03641   0.03703   0.04516

 Mulliken charges and spin densities:
               1          2
     1  C   -0.183857  -0.000000
     2  C   -0.382782   0.000000
     3  C   -0.150433  -0.000000
     4  C   -0.031339  -0.000000
     5  C    0.211343  -0.000000
     6  C    0.264566  -0.000000
     7  C   -0.455106   0.000000
     8  C   -0.596093  -0.000000
     9  C    0.123774   0.000000
    10  C    0.686157   0.000000
    11  C    0.288284  -0.000000
    12  C   -0.166169  -0.000000
    13  C   -0.450171  -0.000000
    14  C   -0.021074  -0.000000
    15  O   -0.336266  -0.000000
    16  O   -0.303109  -0.000000
    17  N   -0.437998   0.000000
    18  O   -0.137461  -0.000000
    19  C   -0.284337   0.000000
    20  H    0.176156  -0.000000
    21  H    0.219574   0.000000
    22  H    0.204151  -0.000000
    23  H    0.184171  -0.000000
    24  H    0.209008  -0.000000
    25  H    0.177125   0.000000
    26  H    0.334601  -0.000000
    27  H    0.314759   0.000000
    28  H    0.204836  -0.000000
    29  H    0.165818   0.000000
    30  H    0.171872  -0.000000
 Sum of Mulliken charges =  -0.00000  -0.00000

 Dipole moment (field-independent basis, Debye):
    X=             -0.6984    Y=              1.7363    Z=              0.7411  Tot=              2.0129
 Quadrupole moment (field-independent basis, Debye-Ang):
   XX=            -65.7518   YY=           -104.2732   ZZ=           -105.2281
   XY=             12.1204   XZ=            -18.0983   YZ=             -0.9673

  Exact polarizability: 369.109  64.497 272.282 -89.517  75.948 252.835
 Approx polarizability: 393.358  69.291 336.259 -87.484 106.676 299.957

                      1                      2                      3
                      A                      A                      A
 Frequencies --     22.6500                44.0444                75.9774
 Red. masses --      7.0571                 5.0674                 8.2370
 Frc consts  --      0.0021                 0.0058                 0.0280
 IR Inten    --     14.6595                 3.1562                25.7551

                      4                      5                      6
                      A                      A                      A
 Frequencies --    106.4040               134.1948               167.2951
 Red. masses --      3.9437                 2.2035                 4.4315
 Frc consts  --      0.0263                 0.0234                 0.0731
 IR Inten    --      5.9413                90.9333                 5.5332

                      7                      8                      9
                      A                      A                      A
 Frequencies --    174.9837               204.7642               223.0423
 Red. masses --      3.1061                 1.7967                 2.5067
 Frc consts  --      0.0560                 0.0444                 0.0735
 IR Inten    --     28.4368               147.0532                13.6380

                     10                     11                     12
                      A                      A                      A
 Frequencies --    258.6033               263.3051               286.0470
 Red. masses --      1.9293                 5.0507                 2.6844
 Frc consts  --      0.0760                 0.2063                 0.1294
 IR Inten    --      0.0823                 0.3612                 0.4298

                     13                     14                     15
                      A                      A                      A
 Frequencies --    314.8843               354.4959               375.8375
 Red. masses --      3.9619                 6.5669                10.3581
 Frc consts  --      0.2314                 0.4862                 0.8620
 IR Inten    --      1.6442                 0.2403                 1.2212

                     16                     17                     18
                      A                      A                      A
 Frequencies --    414.6153               426.6131               434.6396
 Red. masses --      4.3443                10.3273                 4.9917
 Frc consts  --      0.4400                 1.1074                 0.5556
 IR Inten    --      0.7201                51.4710                 1.2588

                     19                     20                     21
                      A                      A                      A
 Frequencies --    467.8437               483.1455               485.2117
 Red. masses --      7.5843                 4.5326                 4.5693
 Frc consts  --      0.9781                 0.6234                 0.6338
 IR Inten    --      8.4710                 3.2868                 4.0583

                     22                     23                     24
                      A                      A                      A
 Frequencies --    545.7746               559.5412               566.5758
 Red. masses --      4.9715                 5.8687                 3.6203
 Frc consts  --      0.8725                 1.0826                 0.6847
 IR Inten    --      8.6855                 4.0329                 4.8275

                     25                     26                     27
                      A                      A                      A
 Frequencies --    600.2678               628.2591               638.1601
 Red. masses --      6.4519                 1.0976                 5.2827
 Frc consts  --      1.3697                 0.2553                 1.2676
 IR Inten    --      9.9906                27.8752                 0.7437

                     28                     29                     30
                      A                      A                      A
 Frequencies --    686.9561               707.1737               721.0476
 Red. masses --      4.1227                 6.5748                 2.5428
 Frc consts  --      1.1463                 1.9372                 0.7789
 IR Inten    --      0.0231                 1.7860                60.6318

                     31                     32                     33
                      A                      A                      A
 Frequencies --    775.1891               775.3172               782.9856
 Red. masses --      2.0026                 6.6555                 3.9574
 Frc consts  --      0.7090                 2.3572                 1.4295
 IR Inten    --     15.7340                38.4844                36.6439

                     34                     35                     36
                      A                      A                      A
 Frequencies --    819.1223               834.7437               851.3856
 Red. masses --      1.8330                 3.7184                 6.9817
 Frc consts  --      0.7246                 1.5266                 2.9817
 IR Inten    --     84.3657                 1.5679                71.1480

                     37                     38                     39
                      A                      A                      A
 Frequencies --    900.5062               916.3865               919.9068
 Red. masses --      6.6447                 1.4489                 1.4240
 Frc consts  --      3.1747                 0.7169                 0.7100
 IR Inten    --     39.7074                 0.5280                 0.0394

                     40                     41                     42
                      A                      A                      A
 Frequencies --    939.8144              1003.1867              1005.7895
 Red. masses --      5.6930                 1.3192                 1.3231
 Frc consts  --      2.9626                 0.7822                 0.7886
 IR Inten    --     19.0585                 0.5704                 1.0044

                     43                     44                     45
                      A                      A                      A
 Frequencies --   1010.8844              1057.8748              1082.4545
 Red. masses --      3.1522                 2.3982                 4.3286
 Frc consts  --      1.8979                 1.5813                 2.9882
 IR Inten    --    241.1581                 7.8264               104.8654

                     46                     47                     48
                      A                      A                      A
 Frequencies --   1101.1925              1134.7561              1163.2498
 Red. masses --      2.2221                 1.8014                 1.2715
 Frc consts  --      1.5876                 1.3667                 1.0137
 IR Inten    --      1.5062                19.1521                 1.2017

                     49                     50                     51
                      A                      A                      A
 Frequencies --   1188.1606              1189.5648              1202.8514
 Red. masses --      1.3073                 1.2318                 1.8773
 Frc consts  --      1.0874                 1.0270                 1.6003
 IR Inten    --     17.2312                27.5761                20.4413

                     52                     53                     54
                      A                      A                      A
 Frequencies --   1207.5951              1221.7812              1261.7340
 Red. masses --      1.4355                 2.4109                 3.9400
 Frc consts  --      1.2334                 2.1204                 3.6956
 IR Inten    --     10.5669               254.5889              1605.9069

                     55                     56                     57
                      A                      A                      A
 Frequencies --   1290.7621              1312.0160              1352.2391
 Red. masses --      3.0295                 3.3979                 7.2361
 Frc consts  --      2.9738                 3.4462                 7.7958
 IR Inten    --    187.1476               294.2936                42.3391

                     58                     59                     60
                      A                      A                      A
 Frequencies --   1365.1277              1397.5045              1455.6364
 Red. masses --      4.8135                 5.7926                 2.4669
 Frc consts  --      5.2851                 6.6654                 3.0797
 IR Inten    --      6.9490                92.7839               201.5169

                     61                     62                     63
                      A                      A                      A
 Frequencies --   1467.9226              1471.7017              1482.2011
 Red. masses --      1.7341                 2.4601                 2.8085
 Frc consts  --      2.2015                 3.1394                 3.6354
 IR Inten    --     59.6412                26.0800                 2.4989

                     64                     65                     66
                      A                      A                      A
 Frequencies --   1488.6916              1494.5511              1497.9650
 Red. masses --      1.0455                 1.8110                 1.1313
 Frc consts  --      1.3651                 2.3833                 1.4956
 IR Inten    --     14.9131                32.0376                33.6534

                     67                     68                     69
                      A                      A                      A
 Frequencies --   1567.9085              1592.7103              1601.6319
 Red. masses --      3.2775                 2.4830                 5.3473
 Frc consts  --      4.7471                 3.7111                 8.0819
 IR Inten    --    541.3099               226.9316                58.4532

                     70                     71                     72
                      A                      A                      A
 Frequencies --   1609.9772              1627.2145              1655.2501
 Red. masses --      3.6116                 4.4379                 7.4171
 Frc consts  --      5.5156                 6.9234                11.9732
 IR Inten    --    215.4743               615.0026               301.1867

                     73                     74                     75
                      A                      A                      A
 Frequencies --   1686.2606              3026.3536              3095.9143
 Red. masses --     11.1524                 1.0326                 1.1076
 Frc consts  --     18.6839                 5.5723                 6.2546
 IR Inten    --    371.0007                83.1808                38.7224

                     76                     77                     78
                      A                      A                      A
 Frequencies --   3148.4032              3168.4077              3181.6427
 Red. masses --      1.1019                 1.0878                 1.0899
 Frc consts  --      6.4352                 6.4342                 6.5004
 IR Inten    --     22.9031                 9.8248                15.7556

                     79                     80                     81
                      A                      A                      A
 Frequencies --   3184.5578              3214.9843              3217.5214
 Red. masses --      1.0944                 1.0920                 1.0917
 Frc consts  --      6.5390                 6.6501                 6.6586
 IR Inten    --     27.4808                 5.4865                 4.1921

                     82                     83                     84
                      A                      A                      A
 Frequencies --   3224.3381              3534.6503              3693.8749
 Red. masses --      1.0922                 1.0496                 1.1020
 Frc consts  --      6.6901                 7.7264                 8.8594
 IR Inten    --      6.5795               135.5347               160.4187

 - Thermochemistry -
 -------------------
 Temperature   298.150 Kelvin.  Pressure   1.00000 Atm.
 Atom     1 has atomic number  6 and mass  12.00000

 Molecular mass:   253.07389 amu.
 Principal axes and moments of inertia in atomic units:
                           1         2         3
     Eigenvalues --  2450.449476249.177578677.69009
           X            0.90088  -0.11212   0.41933
           Y            0.36212   0.72680  -0.58364
           Z           -0.23933   0.67764   0.69536
 This molecule is an asymmetric top.
 Rotational symmetry number  1.
 Warning -- assumption of classical behavior for rotation
           may cause significant error
 Rotational temperatures (Kelvin)      0.03535     0.01386     0.00998
 Rotational constants (GHZ):           0.73649     0.28880     0.20797
 Zero-point vibrational energy     597096.3 (Joules/Mol)
                                  142.70944 (Kcal/Mol)
 Warning -- explicit consideration of  25 degrees of freedom as
           vibrations may cause significant error
 Vibrational temperatures:     32.59    63.37   109.31   153.09   193.08
          (Kelvin)            240.70   251.76   294.61   320.91   372.07
                              378.84   411.56   453.05   510.04   540.75
                              596.54   613.80   625.35   673.12   695.14
                              698.11   785.25   805.05   815.18   863.65
                              903.92   918.17   988.38  1017.47  1037.43
                             1115.32  1115.51  1126.54  1178.53  1201.01
                             1224.95  1295.63  1318.48  1323.54  1352.18
                             1443.36  1447.11  1454.44  1522.05  1557.41
                             1584.37  1632.66  1673.66  1709.50  1711.52
                             1730.63  1737.46  1757.87  1815.35  1857.12
                             1887.70  1945.57  1964.11  2010.70  2094.34
                             2112.01  2117.45  2132.56  2141.90  2150.33
                             2155.24  2255.87  2291.55  2304.39  2316.40
                             2341.20  2381.54  2426.15  4354.25  4454.33
                             4529.85  4558.63  4577.67  4581.87  4625.65
                             4629.30  4639.10  5085.57  5314.66

 Zero-point correction=                           0.227422 (Hartree/Particle)
 Thermal correction to Energy=                    0.242943
 Thermal correction to Enthalpy=                  0.243887
 Thermal correction to Gibbs Free Energy=         0.184054
 Sum of electronic and zero-point Energies=           -858.671975
 Sum of electronic and thermal Energies=              -858.656454
 Sum of electronic and thermal Enthalpies=            -858.655510
 Sum of electronic and thermal Free Energies=         -858.715343

                     E (Thermal)             CV                S
                      KCal/Mol        Cal/Mol-Kelvin    Cal/Mol-Kelvin
 Total                  152.449             60.967            125.928
 Electronic               0.000              0.000              0.000
 Translational            0.889              2.981             42.486
 Rotational               0.889              2.981             33.252
 Vibrational            150.671             55.005             50.191
 Vibration     1          0.593              1.985              6.387
 Vibration     2          0.595              1.980              5.068
 Vibration     3          0.599              1.965              3.992
 Vibration     4          0.605              1.944              3.333
 Vibration     5          0.613              1.919              2.885
 Vibration     6          0.624              1.883              2.466
 Vibration     7          0.627              1.873              2.381
 Vibration     8          0.640              1.833              2.090
 Vibration     9          0.649              1.806              1.934
 Vibration    10          0.667              1.748              1.671
 Vibration    11          0.670              1.740              1.640
 Vibration    12          0.684              1.700              1.497
 Vibration    13          0.702              1.645              1.337
 Vibration    14          0.730              1.566              1.146
 Vibration    15          0.747              1.522              1.056
 Vibration    16          0.778              1.438              0.910
 Vibration    17          0.788              1.412              0.870
 Vibration    18          0.795              1.395              0.844
 Vibration    19          0.825              1.321              0.744
 Vibration    20          0.839              1.287              0.702
 Vibration    21          0.841              1.283              0.696
 Vibration    22          0.901              1.149              0.553
 Vibration    23          0.915              1.119              0.525
 Vibration    24          0.922              1.104              0.511
 Vibration    25          0.958              1.031              0.449

 Optimization completed.
    -- Stationary point found.
 Normal termination of Gaussian 16 at Sun Feb 11 06:24:17 2024.
