 Q-Chem 5.4, Q-Chem, Inc., Pleasanton, CA (2021)
 Q-Chem 5.4.0 for Intel X86 EM64T Linux

User input:
--------------------------------------------------------------
$molecule
-1 2
C                 -3.5472230000      0.1628460000      0.3583190000
O                 -2.6841630000      0.6479940000     -0.6729560000
C                 -1.3580800000      0.3274340000     -0.5530460000
C                 -0.4197790000      1.3295800000     -0.4989850000
Cl                -0.9394520000      3.0109310000     -0.4913790000
C                  1.0122210000      1.0941500000     -0.4688870000
O                  1.8670420000      2.0117050000     -0.4641950000
C                  1.3995320000     -0.3171740000     -0.4372610000
C                  0.4611850000     -1.3193310000     -0.4896430000
Cl                 0.9797830000     -3.0009500000     -0.4737810000
C                 -0.9681050000     -1.0832160000     -0.5817540000
O                 -1.8190070000     -1.9997690000     -0.6737370000
O                  2.7312930000     -0.6362860000     -0.4458780000
C                  3.4991040000     -0.1747400000      0.6683370000
H                 -3.2574440000      0.5881740000      1.3275610000
H                 -4.5477640000      0.5137910000      0.0990680000
H                 -3.5272830000     -0.9267570000      0.4011770000
H                  3.4758660000      0.9137710000      0.7320450000
H                  3.1237360000     -0.6193710000      1.5987690000
H                  4.5185370000     -0.5227810000      0.4921310000
$end

$rem
BASIS  =  6-311++G(d,p)
GUI  =  2
JOB_TYPE  =  SP
METHOD  =  B3LYP
SCF_CONVERGENCE  = 8
SOLVENT_METHOD = sm12
$end

$smx
solvent dimethylformamide
charges CM5
$end

--------------------------------------------------------------

             Standard Nuclear Orientation (Angstroms)
    I     Atom           X                Y                Z
 ----------------------------------------------------------------
    1      C      -3.5472230000     0.1628460000     0.3583190000
    2      O      -2.6841630000     0.6479940000    -0.6729560000
    3      C      -1.3580800000     0.3274340000    -0.5530460000
    4      C      -0.4197790000     1.3295800000    -0.4989850000
    5      Cl     -0.9394520000     3.0109310000    -0.4913790000
    6      C       1.0122210000     1.0941500000    -0.4688870000
    7      O       1.8670420000     2.0117050000    -0.4641950000
    8      C       1.3995320000    -0.3171740000    -0.4372610000
    9      C       0.4611850000    -1.3193310000    -0.4896430000
   10      Cl      0.9797830000    -3.0009500000    -0.4737810000
   11      C      -0.9681050000    -1.0832160000    -0.5817540000
   12      O      -1.8190070000    -1.9997690000    -0.6737370000
   13      O       2.7312930000    -0.6362860000    -0.4458780000
   14      C       3.4991040000    -0.1747400000     0.6683370000
   15      H      -3.2574440000     0.5881740000     1.3275610000
   16      H      -4.5477640000     0.5137910000     0.0990680000
   17      H      -3.5272830000    -0.9267570000     0.4011770000
   18      H       3.4758660000     0.9137710000     0.7320450000
   19      H       3.1237360000    -0.6193710000     1.5987690000
   20      H       4.5185370000    -0.5227810000     0.4921310000
 ----------------------------------------------------------------

   17   -1529.9966186616      5.17e-09  Convergence criterion met
 Total energy in the final basis set =    -1530.0687411428

                    Orbital Energies (a.u.)
 --------------------------------------------------------------

 Alpha MOs
 -- Occupied --
********-101.5441 -19.1423 -19.1423 -19.0819 -19.0819 -10.2347 -10.2347
-10.2324 -10.2324 -10.2213 -10.2213 -10.2114 -10.2114  -9.4580  -9.4580
 -7.2225  -7.2225  -7.2134  -7.2133  -7.2123  -7.2123  -1.0616  -1.0599
 -1.0060  -1.0058  -0.8717  -0.8580  -0.8005  -0.7460  -0.7041  -0.6869
 -0.6595  -0.5855  -0.5798  -0.5283  -0.5086  -0.4981  -0.4703  -0.4591
 -0.4491  -0.4385  -0.4284  -0.4280  -0.4119  -0.4116  -0.3876  -0.3863
 -0.3632  -0.3550  -0.3370  -0.3319  -0.3096  -0.3054  -0.2994  -0.2863
 -0.2655  -0.2468  -0.2453  -0.2284  -0.1653

 Beta MOs
 -- Occupied --
********-101.5440 -19.1420 -19.1420 -19.0749 -19.0749 -10.2334 -10.2334
-10.2308 -10.2308 -10.2207 -10.2206 -10.2113 -10.2113  -9.4580  -9.4580
 -7.2226  -7.2226  -7.2132  -7.2132  -7.2123  -7.2123  -1.0599  -1.0585
 -0.9947  -0.9940  -0.8690  -0.8570  -0.7970  -0.7436  -0.7030  -0.6810
 -0.6548  -0.5821  -0.5763  -0.5264  -0.5074  -0.4957  -0.4649  -0.4567
 -0.4480  -0.4369  -0.4271  -0.4245  -0.4046  -0.4014  -0.3827  -0.3697
 -0.3578  -0.3512  -0.3301  -0.3230  -0.3069  -0.3044  -0.2959  -0.2827
 -0.2423  -0.2401  -0.2393  -0.2229

          Ground-State Mulliken Net Atomic Charges

     Atom                 Charge (a.u.)    Spin (a.u.)
  --------------------------------------------------------
      1 C                    -0.056737       0.003405
      2 O                    -0.083165       0.001507
      3 C                    -1.754133       0.151400
      4 C                     1.996952       0.019153
      5 Cl                    0.449872       0.003440
      6 C                    -1.228600       0.062502
      7 O                    -0.324360       0.258024
      8 C                    -1.752821       0.151651
      9 C                     1.997289       0.018808
     10 Cl                    0.449440       0.003444
     11 C                    -1.231662       0.062580
     12 O                    -0.324376       0.257932
     13 O                    -0.082928       0.001515
     14 C                    -0.057016       0.003437
     15 H                     0.131678       0.001083
     16 H                     0.230867       0.000263
     17 H                     0.138535      -0.000747
     18 H                     0.138646      -0.000747
     19 H                     0.131728       0.001084
     20 H                     0.230791       0.000266
  --------------------------------------------------------
  Sum of atomic charges =    -1.000000

                    Cartesian Multipole Moments
 -----------------------------------------------------------------
    Charge (ESU x 10^10)
                -4.8032
    Dipole Moment (Debye)
         X      -0.2063      Y      -0.0508      Z       4.8086
       Tot       4.8133
    Quadrupole Moments (Debye-Ang)
        XX    -109.2291     XY      -7.8188     YY    -130.1767
        XZ      -0.5025     YZ      -0.6906     ZZ    -100.0916

 Total job time:  316.24s(wall), 2338.74s(cpu)
        *  Thank you very much for using Q-Chem.  Have a nice day.  *
