 Q-Chem 5.4, Q-Chem, Inc., Pleasanton, CA (2021)
 Q-Chem 5.4.0 for Intel X86 EM64T Linux

User input:
--------------------------------------------------------------
$molecule
-1 2
C                  1.4744550000      3.4216550000     -0.3428850000
C                  0.7170300000      3.1436470000     -1.4678150000
C                  0.0386360000      1.9165120000     -1.5706900000
C                  1.5733130000      2.4912030000      0.7072090000
C                  0.8909880000      1.2557660000      0.6038770000
C                  0.1279770000      0.9886310000     -0.5475360000
C                  2.3965760000      2.8359290000      1.8919280000
C                  2.4202050000      1.8213830000      2.9190120000
C                  1.7643590000      0.6043840000      2.8200240000
C                  0.9710240000      0.2448720000      1.6805200000
O                  3.0218840000      3.9159220000      1.9562070000
O                  0.3766780000     -0.8591610000      1.5940800000
S                  3.3280270000      2.1437750000      4.4350600000
O                  2.9014090000      3.4087180000      5.0506510000
O                  3.2812430000      0.9102610000      5.2472560000
C                  5.0657490000      2.3402780000      3.9438930000
C                  5.5367720000      3.5864330000      3.5361040000
C                  5.9091270000      1.2336290000      4.0188550000
C                  6.8814570000      3.7180090000      3.1939650000
C                  7.7373740000      2.6181800000      3.2599520000
C                  7.2512490000      1.3769040000      3.6713620000
H                  2.0088240000      4.3583590000     -0.2358490000
H                  0.6466880000      3.8718220000     -2.2700370000
H                 -0.5552690000      1.6978970000     -2.4530440000
H                 -0.3829580000      0.0341470000     -0.5994920000
H                  1.8357210000     -0.1142870000      3.6268890000
H                  4.8475310000      4.4165730000      3.4712120000
H                  5.5114570000      0.2851680000      4.3578760000
H                  7.2593550000      4.6822500000      2.8713670000
H                  8.7825310000      2.7277290000      2.9891960000
H                  7.9162290000      0.5216620000      3.7277440000
$end
$rem
MAX_SCF_CYCLES=200
BASIS  =  6-311++G(d,p)
GUI  =  2
JOB_TYPE  =  SP
METHOD  =  B3LYP
SOLVENT_METHOD = COSMO
$end
$solvent
dielectric 37.219
opticaldielectric 1.43
$end

--------------------------------------------------------------

             Standard Nuclear Orientation (Angstroms)
    I     Atom           X                Y                Z
 ----------------------------------------------------------------
    1      C       2.7592067440    -2.0006158037     0.4561176715
    2      C       4.0746635854    -2.2183656227     0.0838181975
    3      C       4.8111871622    -1.1867879843    -0.5244930631
    4      C       2.1453628283    -0.7541838832     0.2374527400
    5      C       2.8862089694     0.2842646816    -0.3751817860
    6      C       4.2210404519     0.0448141848    -0.7495975492
    7      C       0.7339373718    -0.5700182705     0.6547275882
    8      C       0.2027852719     0.7483717826     0.4007815833
    9      C       0.9181524487     1.7667074412    -0.2093507423
   10      C       2.2801656394     1.6090725615    -0.6302663864
   11      O       0.0798759437    -1.5053167560     1.1635960939
   12      O       2.9265770225     2.5347355910    -1.1824513065
   13      S      -1.4758663040     1.1213225118     0.9199304677
   14      O      -1.6714646241     0.8154142754     2.3444294809
   15      O      -1.7940643721     2.4814207566     0.4379650881
   16      C      -2.5506679022     0.0034096208    -0.0259069882
   17      C      -2.8134801284    -1.2786249840     0.4519777520
   18      C      -3.1235697514     0.4701759628    -1.2072157601
   19      C      -3.6661242176    -2.1061568082    -0.2765400758
   20      C      -4.2440748192    -1.6545024310    -1.4633650207
   21      C      -3.9722992924    -0.3676161386    -1.9285569654
   22      H       2.1665662386    -2.7767176486     0.9260798772
   23      H       4.5375295539    -3.1843533152     0.2609335211
   24      H       5.8428997164    -1.3572815157    -0.8170087203
   25      H       4.7636085229     0.8581631426    -1.2174405438
   26      H       0.4505135525     2.7287580970    -0.3778264613
   27      H      -2.3342982055    -1.6120710349     1.3617002169
   28      H      -2.9106566096     1.4791094772    -1.5379363272
   29      H      -3.8756007851    -3.1078104716     0.0832467783
   30      H      -4.9046784241    -2.3056439362    -2.0266416552
   31      H      -4.4243806284    -0.0130097752    -2.8487161916
 ----------------------------------------------------------------

    9   -1315.0943950647      9.18e-06  Convergence criterion met
 Total energy in the final basis set =    -1315.0943950647
    5   -1315.1809243840      3.34e-06  Convergence criterion met
 Total energy in the final basis set =    -1315.1809243840

                    Orbital Energies (a.u.)
 --------------------------------------------------------------

 Alpha MOs
 -- Occupied --
-89.0556 -19.1236 -19.1216 -19.0943 -19.0942 -10.2497 -10.2388 -10.2124
-10.2058 -10.1925 -10.1898 -10.1867 -10.1865 -10.1862 -10.1853 -10.1853
-10.1846 -10.1799 -10.1793 -10.1778 -10.1771  -8.1194  -6.0824  -6.0811
 -6.0802  -1.1154  -1.0250  -1.0186  -1.0114  -0.8758  -0.8695  -0.8297
 -0.7810  -0.7620  -0.7592  -0.7582  -0.7113  -0.6732  -0.6331  -0.6247
 -0.6207  -0.5909  -0.5710  -0.5441  -0.5224  -0.5173  -0.4970  -0.4855
 -0.4783  -0.4704  -0.4567  -0.4534  -0.4441  -0.4384  -0.4325  -0.4316
 -0.4293  -0.4234  -0.4055  -0.3979  -0.3852  -0.3795  -0.3645  -0.3632
 -0.3581  -0.3494  -0.3471  -0.3343  -0.3194  -0.3073  -0.3010  -0.2768
 -0.2708  -0.2642  -0.2622  -0.2609  -0.2522  -0.1747

 Beta MOs
 -- Occupied --
-89.0556 -19.1235 -19.1217 -19.0891 -19.0874 -10.2486 -10.2376 -10.2124
-10.2042 -10.1924 -10.1898 -10.1867 -10.1862 -10.1853 -10.1852 -10.1846
-10.1829 -10.1798 -10.1791 -10.1778 -10.1769  -8.1194  -6.0824  -6.0811
 -6.0803  -1.1152  -1.0164  -1.0109  -1.0064  -0.8757  -0.8675  -0.8242
 -0.7803  -0.7619  -0.7577  -0.7569  -0.7043  -0.6688  -0.6316  -0.6227
 -0.6201  -0.5900  -0.5690  -0.5432  -0.5201  -0.5158  -0.4942  -0.4849
 -0.4778  -0.4692  -0.4563  -0.4532  -0.4428  -0.4372  -0.4314  -0.4265
 -0.4189  -0.4179  -0.4028  -0.3877  -0.3794  -0.3704  -0.3631  -0.3581
 -0.3556  -0.3485  -0.3462  -0.3336  -0.3177  -0.3062  -0.2817  -0.2715
 -0.2657  -0.2586  -0.2569  -0.2556  -0.2471

          Ground-State Mulliken Net Atomic Charges

     Atom                 Charge (a.u.)    Spin (a.u.)
  --------------------------------------------------------
      1 C                     0.223813       0.023105
      2 C                    -0.438816       0.019824
      3 C                    -0.368117       0.005014
      4 C                     0.096600      -0.032255
      5 C                     0.409603       0.013872
      6 C                     0.059674       0.025058
      7 C                    -0.434812       0.070813
      8 C                    -0.155973       0.107307
      9 C                    -0.089037       0.239366
     10 C                    -0.513573       0.100211
     11 O                    -0.376234       0.195532
     12 O                    -0.477924       0.248470
     13 S                     0.429632      -0.021775
     14 O                    -0.230352       0.006133
     15 O                    -0.266428      -0.002735
     16 C                     0.314982       0.004458
     17 C                    -0.286548       0.015103
     18 C                     0.149892       0.010439
     19 C                    -0.447468      -0.006355
     20 C                    -0.357054       0.005688
     21 C                    -0.515722      -0.002400
     22 H                     0.181947      -0.001462
     23 H                     0.211636      -0.001580
     24 H                     0.214985      -0.000594
     25 H                     0.177245      -0.003508
     26 H                     0.267365      -0.018019
     27 H                     0.286846      -0.000706
     28 H                     0.261338       0.001053
     29 H                     0.234550       0.000128
     30 H                     0.209527      -0.000317
     31 H                     0.228422       0.000129
  --------------------------------------------------------
  Sum of atomic charges =    -1.000001

                    Cartesian Multipole Moments
 -----------------------------------------------------------------
    Charge (ESU x 10^10)
                -4.8032
    Dipole Moment (Debye)
         X      -3.0981      Y      -8.5955      Z      -4.8449
       Tot      10.3418
    Quadrupole Moments (Debye-Ang)
        XX    -137.3957     XY      -6.4497     YY    -152.6486
        XZ      20.7365     YZ       3.7999     ZZ    -145.1983

 Total job time:  118.87s(wall), 898.67s(cpu)
        *  Thank you very much for using Q-Chem.  Have a nice day.  *
