 Q-Chem 5.4, Q-Chem, Inc., Pleasanton, CA (2021)
 Q-Chem 5.4.0 for Intel X86 EM64T Linux

User input:
--------------------------------------------------------------
$molecule
-2 1
C                  2.9981910000     -2.4719480000     -3.4581330000
C                  2.4830520000     -3.2224560000     -4.5002500000
C                  1.1660580000     -2.9781160000     -4.9564860000
C                  2.2417940000     -1.4594900000     -2.8279630000
C                  0.9077010000     -1.2150490000     -3.2881940000
C                  0.4045610000     -1.9923450000     -4.3539240000
C                  2.8309510000     -0.6888390000     -1.7337740000
C                  1.9793760000      0.3134490000     -1.1477570000
C                  0.6746410000      0.5588400000     -1.6092490000
C                  0.0706950000     -0.1817260000     -2.6834650000
O                  4.0284380000     -0.9058950000     -1.3383770000
O                 -1.1177890000      0.0489120000     -3.0978610000
H                  3.0866580000     -3.9978980000     -4.9671990000
H                  0.7547290000     -3.5644560000     -5.7753690000
C                  2.5667360000      1.1099340000     -0.0061950000
H                  4.0046290000     -2.6337160000     -3.0860130000
H                 -0.6092130000     -1.7809900000     -4.6783590000
H                  2.7848200000      2.1500520000     -0.2936960000
H                  3.5086730000      0.6462630000      0.2924950000
H                  1.8929690000      1.1531330000      0.8576450000
C                 -0.1813740000      1.6674000000     -1.0161000000
C                 -1.0797460000      1.2110840000      0.1084350000
C                 -1.3094640000      1.7839070000      1.3009160000
C                 -2.3044870000      1.1768750000      2.2740260000
C                 -0.6576550000      3.0665170000      1.7653170000
C                 -1.7000200000      0.6983490000      3.6188860000
C                 -2.7245700000      0.0649150000      4.5207200000
C                 -3.1321130000      0.4495450000      5.7391290000
C                 -2.6093250000      1.6508070000      6.4888170000
C                 -4.1978300000     -0.3173170000      6.4866960000
H                 -0.8393160000      2.0080160000     -1.8268150000
H                  0.4410600000      2.5099800000     -0.7048470000
H                 -1.6248840000      0.2984320000     -0.1260620000
H                 -2.8043630000      0.3305790000      1.7917570000
H                 -3.0893830000      1.9126690000      2.5041630000
H                 -0.0254640000      3.5104060000      0.9966310000
H                 -0.0334110000      2.9081390000      2.6538580000
H                 -1.4182700000      3.8075470000      2.0475950000
H                 -1.2052500000      1.5331180000      4.1196140000
H                 -0.9160960000     -0.0356860000      3.3913340000
H                 -3.2016440000     -0.8225860000      4.1034030000
H                 -1.8533620000      2.2129180000      5.9386430000
H                 -2.1726400000      1.3453160000      7.4486350000
H                 -3.4304390000      2.3372670000      6.7356580000
H                 -4.5536690000     -1.1863280000      5.9259310000
H                 -5.0635770000      0.3220290000      6.7086110000
H                 -3.8260430000     -0.6685770000      7.4581720000
$end

$rem
BASIS  =  6-311++G(d,p)
GUI  =  2
JOB_TYPE  =  SP
METHOD  =  B3LYP
SCF_CONVERGENCE  = 8
SOLVENT_METHOD = sm12
$end

$smx
solvent dimethylformamide
charges CM5
$end

--------------------------------------------------------------

             Standard Nuclear Orientation (Angstroms)
    I     Atom           X                Y                Z
 ----------------------------------------------------------------
    1      C       2.9981910000    -2.4719480000    -3.4581330000
    2      C       2.4830520000    -3.2224560000    -4.5002500000
    3      C       1.1660580000    -2.9781160000    -4.9564860000
    4      C       2.2417940000    -1.4594900000    -2.8279630000
    5      C       0.9077010000    -1.2150490000    -3.2881940000
    6      C       0.4045610000    -1.9923450000    -4.3539240000
    7      C       2.8309510000    -0.6888390000    -1.7337740000
    8      C       1.9793760000     0.3134490000    -1.1477570000
    9      C       0.6746410000     0.5588400000    -1.6092490000
   10      C       0.0706950000    -0.1817260000    -2.6834650000
   11      O       4.0284380000    -0.9058950000    -1.3383770000
   12      O      -1.1177890000     0.0489120000    -3.0978610000
   13      H       3.0866580000    -3.9978980000    -4.9671990000
   14      H       0.7547290000    -3.5644560000    -5.7753690000
   15      C       2.5667360000     1.1099340000    -0.0061950000
   16      H       4.0046290000    -2.6337160000    -3.0860130000
   17      H      -0.6092130000    -1.7809900000    -4.6783590000
   18      H       2.7848200000     2.1500520000    -0.2936960000
   19      H       3.5086730000     0.6462630000     0.2924950000
   20      H       1.8929690000     1.1531330000     0.8576450000
   21      C      -0.1813740000     1.6674000000    -1.0161000000
   22      C      -1.0797460000     1.2110840000     0.1084350000
   23      C      -1.3094640000     1.7839070000     1.3009160000
   24      C      -2.3044870000     1.1768750000     2.2740260000
   25      C      -0.6576550000     3.0665170000     1.7653170000
   26      C      -1.7000200000     0.6983490000     3.6188860000
   27      C      -2.7245700000     0.0649150000     4.5207200000
   28      C      -3.1321130000     0.4495450000     5.7391290000
   29      C      -2.6093250000     1.6508070000     6.4888170000
   30      C      -4.1978300000    -0.3173170000     6.4866960000
   31      H      -0.8393160000     2.0080160000    -1.8268150000
   32      H       0.4410600000     2.5099800000    -0.7048470000
   33      H      -1.6248840000     0.2984320000    -0.1260620000
   34      H      -2.8043630000     0.3305790000     1.7917570000
   35      H      -3.0893830000     1.9126690000     2.5041630000
   36      H      -0.0254640000     3.5104060000     0.9966310000
   37      H      -0.0334110000     2.9081390000     2.6538580000
   38      H      -1.4182700000     3.8075470000     2.0475950000
   39      H      -1.2052500000     1.5331180000     4.1196140000
   40      H      -0.9160960000    -0.0356860000     3.3913340000
   41      H      -3.2016440000    -0.8225860000     4.1034030000
   42      H      -1.8533620000     2.2129180000     5.9386430000
   43      H      -2.1726400000     1.3453160000     7.4486350000
   44      H      -3.4304390000     2.3372670000     6.7356580000
   45      H      -4.5536690000    -1.1863280000     5.9259310000
   46      H      -5.0635770000     0.3220290000     6.7086110000
   47      H      -3.8260430000    -0.6685770000     7.4581720000
 ----------------------------------------------------------------

   18    -965.3335019808      5.20e-09  Convergence criterion met
 Total energy in the final basis set =     -965.6247282976

                    Orbital Energies (a.u.)
 --------------------------------------------------------------

 Alpha MOs
 -- Occupied --
-19.0201 -19.0199 -10.1802 -10.1781 -10.1770 -10.1743 -10.1733 -10.1726
-10.1725 -10.1721 -10.1686 -10.1674 -10.1673 -10.1655 -10.1650 -10.1643
-10.1641 -10.1628 -10.1596 -10.1494 -10.1490 -10.1407 -10.1385  -0.9431
 -0.9402  -0.8435  -0.8291  -0.8129  -0.7929  -0.7605  -0.7430  -0.7409
 -0.7266  -0.6935  -0.6889  -0.6794  -0.6512  -0.6335  -0.6092  -0.5891
 -0.5713  -0.5380  -0.5255  -0.5155  -0.4960  -0.4825  -0.4758  -0.4641
 -0.4476  -0.4463  -0.4427  -0.4329  -0.4275  -0.4212  -0.4184  -0.4133
 -0.4010  -0.3972  -0.3867  -0.3844  -0.3838  -0.3801  -0.3756  -0.3744
 -0.3724  -0.3692  -0.3628  -0.3564  -0.3510  -0.3437  -0.3369  -0.3264
 -0.3228  -0.3217  -0.3169  -0.3148  -0.2473  -0.2462  -0.2370  -0.2342
 -0.2170  -0.2023  -0.1933  -0.1138

          Ground-State Mulliken Net Atomic Charges

     Atom                 Charge (a.u.)
  ----------------------------------------
      1 C                    -0.299503
      2 C                     1.521801
      3 C                     1.398720
      4 C                    -2.383678
      5 C                    -1.551377
      6 C                    -0.388511
      7 C                    -2.391941
      8 C                    -0.228955
      9 C                    -1.085569
     10 C                    -2.640130
     11 O                    -0.330054
     12 O                    -0.256081
     13 H                     0.398518
     14 H                     0.397626
     15 C                     1.063639
     16 H                     0.096374
     17 H                     0.091902
     18 H                     0.203067
     19 H                     0.184604
     20 H                     0.074198
     21 C                    -0.558713
     22 C                     0.580634
     23 C                    -0.550086
     24 C                     1.768339
     25 C                     0.544130
     26 C                    -1.709520
     27 C                    -0.232044
     28 C                     1.086372
     29 C                     0.116251
     30 C                     0.133201
     31 H                     0.170051
     32 H                    -0.295020
     33 H                     0.066910
     34 H                     0.208562
     35 H                     0.311882
     36 H                     0.420015
     37 H                     0.220316
     38 H                     0.257908
     39 H                    -0.039621
     40 H                     0.169900
     41 H                     0.123448
     42 H                     0.270437
     43 H                     0.194345
     44 H                     0.197978
     45 H                     0.260280
     46 H                     0.214495
     47 H                     0.194904
  ----------------------------------------
  Sum of atomic charges =    -2.000000

                    Cartesian Multipole Moments
 -----------------------------------------------------------------
    Charge (ESU x 10^10)
                -9.6064
    Dipole Moment (Debye)
         X     -13.9631      Y       6.4807      Z      23.1810
       Tot      27.8267
    Quadrupole Moments (Debye-Ang)
        XX    -222.8296     XY      21.4099     YY    -171.7096
        XZ      21.0921     YZ     -22.6392     ZZ    -226.0935

 Total job time:  2892.04s(wall), 20455.72s(cpu)
        *  Thank you very much for using Q-Chem.  Have a nice day.  *
