 Q-Chem 5.4, Q-Chem, Inc., Pleasanton, CA (2021)
 Q-Chem 5.4.0 for Intel X86 EM64T Linux

User input:
--------------------------------------------------------------
$molecule
-1 2
C                  1.6267570000      0.9139680000     -0.6697280000
C                  0.3491510000      1.5684090000     -0.5268430000
C                 -0.7787370000      0.9095740000     -0.1161100000
C                 -0.7749320000     -0.5010990000      0.1960440000
C                  0.4982510000     -1.1994090000      0.0338980000
C                  1.6217150000     -0.5205760000     -0.3833380000
O                  2.6767640000      1.5392460000     -1.0053360000
O                 -1.8163850000     -1.1085840000      0.5802470000
C                  0.5196080000     -2.6694840000      0.3561880000
O                  2.8211580000     -1.2160370000     -0.4482100000
C                  3.4883820000     -1.1929920000     -1.7081490000
H                  0.3339260000      2.6326000000     -0.7459310000
H                 -1.7268370000      1.4281380000     -0.0038680000
H                  0.4340560000     -2.8328850000      1.4377290000
H                  1.4423270000     -3.1367620000      0.0116640000
H                 -0.3464510000     -3.1644900000     -0.0920940000
H                  4.3989480000     -1.7843500000     -1.5814370000
H                  3.7368310000     -0.1709610000     -1.9982530000
H                  2.8641760000     -1.6610000000     -2.4828620000
$end
$rem
MAX_SCF_CYCLES=200
BASIS  =  6-311++G(d,p)
GUI  =  2
JOB_TYPE  =  SP
METHOD  =  B3LYP
SOLVENT_METHOD = PCM
$end
$pcm
theory = CPCM
$end
$solvent
dielectric 37.219
opticaldielectric 1.43
$end

--------------------------------------------------------------

             Standard Nuclear Orientation (Angstroms)
    I     Atom           X                Y                Z
 ----------------------------------------------------------------
    1      C       1.6267570000     0.9139680000    -0.6697280000
    2      C       0.3491510000     1.5684090000    -0.5268430000
    3      C      -0.7787370000     0.9095740000    -0.1161100000
    4      C      -0.7749320000    -0.5010990000     0.1960440000
    5      C       0.4982510000    -1.1994090000     0.0338980000
    6      C       1.6217150000    -0.5205760000    -0.3833380000
    7      O       2.6767640000     1.5392460000    -1.0053360000
    8      O      -1.8163850000    -1.1085840000     0.5802470000
    9      C       0.5196080000    -2.6694840000     0.3561880000
   10      O       2.8211580000    -1.2160370000    -0.4482100000
   11      C       3.4883820000    -1.1929920000    -1.7081490000
   12      H       0.3339260000     2.6326000000    -0.7459310000
   13      H      -1.7268370000     1.4281380000    -0.0038680000
   14      H       0.4340560000    -2.8328850000     1.4377290000
   15      H       1.4423270000    -3.1367620000     0.0116640000
   16      H      -0.3464510000    -3.1644900000    -0.0920940000
   17      H       4.3989480000    -1.7843500000    -1.5814370000
   18      H       3.7368310000    -0.1709610000    -1.9982530000
   19      H       2.8641760000    -1.6610000000    -2.4828620000
 ----------------------------------------------------------------

    9    -535.6084765332      6.57e-06  Convergence criterion met
 Total energy in the final basis set =     -535.6084765332

                    Orbital Energies (a.u.)
 --------------------------------------------------------------

 Alpha MOs
 -- Occupied --
-19.1352 -19.0789 -19.0778 -10.2215 -10.2196 -10.2159 -10.2019 -10.1685
-10.1618 -10.1607 -10.1527  -1.0489  -0.9987  -0.9957  -0.8230  -0.7633
 -0.7119  -0.6667  -0.6634  -0.5790  -0.5616  -0.4976  -0.4870  -0.4574
 -0.4553  -0.4314  -0.4170  -0.4154  -0.4009  -0.3960  -0.3870  -0.3687
 -0.3634  -0.3614  -0.3412  -0.2935  -0.2795  -0.2445  -0.2395  -0.2320
 -0.1623

 Beta MOs
 -- Occupied --
-19.1350 -19.0720 -19.0713 -10.2197 -10.2180 -10.2151 -10.2019 -10.1677
-10.1607 -10.1592 -10.1527  -1.0478  -0.9872  -0.9838  -0.8174  -0.7606
 -0.7089  -0.6634  -0.6560  -0.5754  -0.5580  -0.4960  -0.4838  -0.4542
 -0.4520  -0.4295  -0.4124  -0.4089  -0.3984  -0.3922  -0.3719  -0.3608
 -0.3595  -0.3440  -0.3378  -0.2901  -0.2497  -0.2380  -0.2332  -0.2252

          Ground-State Mulliken Net Atomic Charges

     Atom                 Charge (a.u.)    Spin (a.u.)
  --------------------------------------------------------
      1 C                    -0.001561       0.107389
      2 C                    -0.078107       0.093453
      3 C                     0.204975       0.112894
      4 C                    -1.086475       0.098986
      5 C                     1.994306       0.056104
      6 C                    -1.589679       0.051093
      7 O                    -0.521506       0.244921
      8 O                    -0.512334       0.234194
      9 C                    -0.243641       0.007470
     10 O                    -0.225485       0.001172
     11 C                    -0.315489       0.003324
     12 H                     0.200421      -0.007209
     13 H                     0.194100      -0.009605
     14 H                     0.178615       0.003869
     15 H                     0.169892      -0.000147
     16 H                     0.157476       0.002595
     17 H                     0.158315       0.000343
     18 H                     0.173132      -0.001009
     19 H                     0.143044       0.000163
  --------------------------------------------------------
  Sum of atomic charges =    -1.000000

                    Cartesian Multipole Moments
 -----------------------------------------------------------------
    Charge (ESU x 10^10)
                -4.8032
    Dipole Moment (Debye)
         X      -2.1820      Y      -0.7282      Z      -0.4765
       Tot       2.3491
    Quadrupole Moments (Debye-Ang)
        XX     -96.1579     XY     -17.1680     YY     -76.3081
        XZ       4.9468     YZ       7.1424     ZZ     -69.3709

 Total job time:  22.46s(wall), 150.79s(cpu)
        *  Thank you very much for using Q-Chem.  Have a nice day.  *
