 Q-Chem 5.4, Q-Chem, Inc., Pleasanton, CA (2021)
 Q-Chem 5.4.0 for Intel X86 EM64T Linux

User input:
--------------------------------------------------------------
$molecule
-2 1
C                 -4.0105950000     -1.0259210000      0.2419760000
C                 -2.6274870000     -0.4203500000      0.2477490000
C                 -2.4545280000      0.9972800000      0.4246250000
C                 -3.6539990000      1.8961260000      0.6065790000
C                 -1.1840990000      1.5462300000      0.4292160000
O                 -1.0052420000      2.8900630000      0.5962010000
C                 -0.0156670000      0.7202910000      0.2586710000
C                  1.2841250000      1.3239270000      0.2690480000
O                  1.4316710000      2.6265870000      0.4323920000
C                  2.4004160000      0.4530740000      0.0953140000
C                  3.7240350000      0.9724870000      0.0935110000
C                  4.8277310000      0.1651430000     -0.0712220000
C                  4.6561430000     -1.2415830000     -0.2472430000
C                  3.3882840000     -1.7797800000     -0.2508190000
C                  2.2258330000     -0.9782490000     -0.0836830000
C                  0.9304210000     -1.5755390000     -0.0933680000
O                  0.7605870000     -2.8755360000     -0.2550890000
C                 -0.1886120000     -0.6973200000      0.0816060000
C                 -1.5239520000     -1.2388320000      0.0816570000
O                 -1.6737190000     -2.5861920000     -0.0870090000
H                 -3.9392760000     -2.1046920000      0.0955460000
H                 -4.6442940000     -0.6142640000     -0.5588620000
H                 -4.5506700000     -0.8447810000      1.1842840000
H                 -4.2488990000      1.6258070000      1.4928300000
H                 -3.3248630000      2.9297570000      0.7231860000
H                 -4.3435410000      1.8525600000     -0.2507540000
H                  0.0372550000      2.9976280000      0.5550790000
H                  3.8262650000      2.0445720000      0.2292050000
H                  5.8278270000      0.5951480000     -0.0676490000
H                  5.5254430000     -1.8837490000     -0.3778200000
H                  3.2297190000     -2.8454800000     -0.3826240000
H                 -0.6863130000     -2.9244150000     -0.1840850000
$end
$rem
MAX_SCF_CYCLES=200
BASIS  =  6-311++G(d,p)
GUI  =  2
JOB_TYPE  =  SP
METHOD  =  B3LYP
SOLVENT_METHOD = COSMO
$end
$solvent
dielectric 37.219
opticaldielectric 1.43
$end

--------------------------------------------------------------

             Standard Nuclear Orientation (Angstroms)
    I     Atom           X                Y                Z
 ----------------------------------------------------------------
    1      C       4.1214483656    -1.4829792684    -0.0002542268
    2      C       2.8188311730    -0.7194835700     0.0000128221
    3      C       2.8188261328     0.7195698436     0.0001700495
    4      C       4.1213507935     1.4832396425     0.0000426791
    5      C       1.6214625710     1.4135997600     0.0001722830
    6      O       1.6066388472     2.7794479229     0.0002138562
    7      C       0.3586825212     0.7194234781     0.0001195187
    8      C      -0.8612460414     1.4715655011    -0.0000393658
    9      O      -0.8499082729     2.7926429445    -0.0001003734
   10      C      -2.0776051477     0.7264852561    -0.0000327123
   11      C      -3.3314540691     1.3970247107    -0.0003404060
   12      C      -4.5275731364     0.7141006062    -0.0003226120
   13      C      -4.5276425376    -0.7139413229     0.0000197098
   14      C      -3.3315482488    -1.3969447117     0.0002758753
   15      C      -2.0776741145    -0.7265132347     0.0002145481
   16      C      -0.8613268871    -1.4717922500     0.0002831927
   17      O      -0.8501601635    -2.7927255462     0.0002564444
   18      C       0.3586630686    -0.7196327867     0.0001511563
   19      C       1.6215266707    -1.4135662422    -0.0000640258
   20      O       1.6070015664    -2.7795992690    -0.0004307241
   21      H       3.9194729230    -2.5551173629     0.0006633799
   22      H       4.7419599962    -1.2521406209     0.8795504365
   23      H       4.7408156054    -1.2535284550    -0.8812613883
   24      H       4.7404845420     1.2544730054    -0.8812963215
   25      H       3.9192413946     2.5553729159     0.0017094170
   26      H       4.7421850202     1.2519766889     0.8795131722
   27      H       0.5824838331     3.0056507681     0.0000619793
   28      H      -3.3030040434     2.4821148424    -0.0006302155
   29      H      -5.4703941804     1.2583409018    -0.0005578134
   30      H      -5.4705000611    -1.2581193311     0.0000375871
   31      H      -3.3031693940    -2.4820375617     0.0005100477
   32      H       0.5835218646    -3.0060466776    -0.0002648218
 ----------------------------------------------------------------

   11    -918.1264781032      3.83e-06  Convergence criterion met
 Total energy in the final basis set =     -918.1264781032
    5    -918.3837973589      7.88e-06  Convergence criterion met
 Total energy in the final basis set =     -918.3837973589

                    Orbital Energies (a.u.)
 --------------------------------------------------------------

 Alpha MOs
 -- Occupied --
-19.0959 -19.0957 -19.0512 -19.0511 -10.1968 -10.1968 -10.1908 -10.1908
-10.1549 -10.1545 -10.1535 -10.1535 -10.1499 -10.1495 -10.1479 -10.1475
-10.1475 -10.1471 -10.1466 -10.1466  -1.0160  -1.0143  -0.9560  -0.9537
 -0.8369  -0.8203  -0.7763  -0.7344  -0.7296  -0.7252  -0.6850  -0.6647
 -0.6331  -0.5980  -0.5944  -0.5617  -0.5453  -0.5142  -0.4933  -0.4804
 -0.4777  -0.4467  -0.4380  -0.4277  -0.4223  -0.4119  -0.4055  -0.3951
 -0.3907  -0.3894  -0.3859  -0.3851  -0.3725  -0.3632  -0.3597  -0.3585
 -0.3438  -0.3393  -0.3287  -0.3260  -0.3241  -0.3195  -0.3105  -0.2735
 -0.2400  -0.2365  -0.2341  -0.2206  -0.2150  -0.1866  -0.1201

          Ground-State Mulliken Net Atomic Charges

     Atom                 Charge (a.u.)
  ----------------------------------------
      1 C                    -0.562476
      2 C                     0.413066
      3 C                     0.412968
      4 C                    -0.562451
      5 C                    -0.561506
      6 O                    -0.560736
      7 C                     0.397073
      8 C                    -0.213357
      9 O                    -0.697721
     10 C                     0.094476
     11 C                    -0.115889
     12 C                    -0.469562
     13 C                    -0.468898
     14 C                    -0.115713
     15 C                     0.100012
     16 C                    -0.214090
     17 O                    -0.698543
     18 C                     0.398054
     19 C                    -0.559845
     20 O                    -0.559717
     21 H                     0.179649
     22 H                     0.152101
     23 H                     0.152272
     24 H                     0.152210
     25 H                     0.179643
     26 H                     0.152052
     27 H                     0.436979
     28 H                     0.167859
     29 H                     0.184156
     30 H                     0.184294
     31 H                     0.167809
     32 H                     0.435831
  ----------------------------------------
  Sum of atomic charges =    -2.000000

                    Cartesian Multipole Moments
 -----------------------------------------------------------------
    Charge (ESU x 10^10)
                -9.6064
    Dipole Moment (Debye)
         X       2.1682      Y       0.0073      Z      -0.0026
       Tot       2.1682
    Quadrupole Moments (Debye-Ang)
        XX    -151.1844     XY      -0.0161     YY    -187.1434
        XZ       0.0056     YZ      -0.0015     ZZ    -128.4097

 Total job time:  98.25s(wall), 746.89s(cpu)
        *  Thank you very much for using Q-Chem.  Have a nice day.  *
