 Q-Chem 5.4, Q-Chem, Inc., Pleasanton, CA (2021)
 Q-Chem 5.4.0 for Intel X86 EM64T Linux

User input:
--------------------------------------------------------------
$molecule
0 1
Br                -3.1225130000     -1.1508900000      0.0156470000
C                 -1.3858860000     -0.4191810000      0.0071530000
C                 -1.1307250000      0.9033170000      0.0090440000
Br                -2.4708740000      2.2280860000      0.0203270000
C                  0.2762040000      1.4318280000      0.0020650000
O                  0.5040470000      2.6166980000      0.0038200000
C                  1.3857900000      0.4191990000     -0.0071540000
C                  1.1306890000     -0.9033620000     -0.0090480000
Br                 2.4706940000     -2.2279030000     -0.0203070000
C                 -0.2761760000     -1.4316630000     -0.0020940000
O                 -0.5038790000     -2.6165790000     -0.0038300000
Br                 3.1226290000      1.1504500000     -0.0156210000
$end
$rem
MAX_SCF_CYCLES=200
BASIS  =  6-311++G(d,p)
GUI  =  2
JOB_TYPE  =  SP
METHOD  =  B3LYP
SOLVENT_METHOD = COSMO
$end
$solvent
dielectric 37.219
opticaldielectric 1.43
$end

--------------------------------------------------------------

             Standard Nuclear Orientation (Angstroms)
    I     Atom           X                Y                Z
 ----------------------------------------------------------------
    1      Br      2.8489082894    -1.7200190295    -0.0000376319
    2      C       1.2817603187    -0.6734098469     0.0000125294
    3      C       1.2810454811     0.6734795916    -0.0000208447
    4      Br      2.8473717110     1.7212208243     0.0000303483
    5      C      -0.0007244745     1.4582646418    -0.0000465474
    6      O      -0.0006140765     2.6648434457    -0.0001327003
    7      C      -1.2816640923     0.6734861597     0.0000029963
    8      C      -1.2810200935    -0.6734538130     0.0000388534
    9      Br     -2.8471616959    -1.7209983236    -0.0000349028
   10      C       0.0007265293    -1.4580205886     0.0000897112
   11      O       0.0004700850    -2.6646180885     0.0001559160
   12      Br     -2.8491065925     1.7196856795     0.0000237316
 ----------------------------------------------------------------

    8  -10675.7015335682      5.05e-06  Convergence criterion met
 Total energy in the final basis set =   -10675.7015335682
    4  -10675.7134446805      6.11e-06  Convergence criterion met
 Total energy in the final basis set =   -10675.7134446805

                    Orbital Energies (a.u.)
 --------------------------------------------------------------

 Alpha MOs
 -- Occupied --
********-482.8617-482.8617-482.8617 -62.5144 -62.5144 -62.5144 -62.5144
-56.3351 -56.3351 -56.3351 -56.3351 -56.3311 -56.3311 -56.3311 -56.3311
-56.3306 -56.3306 -56.3306 -56.3306 -19.1677 -19.1677 -10.3250 -10.3250
-10.2853 -10.2852 -10.2845 -10.2845  -8.7232  -8.7232  -8.7232  -8.7232
 -6.5553  -6.5553  -6.5553  -6.5553  -6.5420  -6.5420  -6.5420  -6.5420
 -6.5404  -6.5404  -6.5404  -6.5404  -2.6660  -2.6660  -2.6660  -2.6660
 -2.6628  -2.6627  -2.6627  -2.6627  -2.6614  -2.6614  -2.6614  -2.6614
 -2.6508  -2.6508  -2.6508  -2.6507  -2.6506  -2.6506  -2.6506  -2.6506
 -1.1080  -1.1061  -0.9198  -0.8904  -0.8319  -0.8316  -0.8041  -0.7482
 -0.7170  -0.6286  -0.6281  -0.5737  -0.5161  -0.4991  -0.4885  -0.4598
 -0.4582  -0.4549  -0.4531  -0.4270  -0.3984  -0.3753  -0.3376  -0.3354
 -0.3307  -0.3296  -0.3236  -0.3211  -0.3076  -0.2962  -0.2924  -0.2750

          Ground-State Mulliken Net Atomic Charges

     Atom                 Charge (a.u.)
  ----------------------------------------
      1 Br                   -0.039718
      2 C                     0.473773
      3 C                     0.478337
      4 Br                   -0.039317
      5 C                    -0.713320
      6 O                    -0.159042
      7 C                     0.473261
      8 C                     0.478371
      9 Br                   -0.039325
     10 C                    -0.714271
     11 O                    -0.158948
     12 Br                   -0.039800
  ----------------------------------------
  Sum of atomic charges =     0.000000

                    Cartesian Multipole Moments
 -----------------------------------------------------------------
    Charge (ESU x 10^10)
                 0.0000
    Dipole Moment (Debye)
         X       0.0004      Y      -0.0016      Z       0.0002
       Tot       0.0016
    Quadrupole Moments (Debye-Ang)
        XX    -107.5378     XY       0.0118     YY    -132.8384
        XZ       0.0012     YZ       0.0002     ZZ    -115.6130

 Total job time:  25.36s(wall), 186.75s(cpu)
        *  Thank you very much for using Q-Chem.  Have a nice day.  *
