 Gaussian 16, Revision A.03,
 Gaussian 16:  ES64L-G16RevA.03 25-Dec-2016

 --------------------------------------
 #P UB3LYP/6-311++G(d,p) nosym opt freq
 --------------------------------------

 -------
 Reduced
 -------
 Symbolic Z-matrix:
 Charge = -2 Multiplicity = 1

 SCF Done:  E(UB3LYP) =  -534.238320747     A.U. after   25 cycles
 SCF Done:  E(UB3LYP) =  -534.238319949     A.U. after   15 cycles
 SCF Done:  E(UB3LYP) =  -534.238321152     A.U. after   14 cycles
 SCF Done:  E(UB3LYP) =  -534.238320481     A.U. after   15 cycles
 SCF Done:  E(UB3LYP) =  -534.237474585     A.U. after   18 cycles
 SCF Done:  E(UB3LYP) =  -534.233737268     A.U. after   18 cycles
 SCF Done:  E(UB3LYP) =  -534.230971437     A.U. after   20 cycles
 SCF Done:  E(UB3LYP) =  -534.238321150     A.U. after    7 cycles
 SCF Done:  E(UB3LYP) =  -534.238602901     A.U. after   20 cycles
 SCF Done:  E(UB3LYP) =  -534.231848754     A.U. after   21 cycles
 SCF Done:  E(UB3LYP) =  -534.240044430     A.U. after   19 cycles
 SCF Done:  E(UB3LYP) =  -534.240097838     A.U. after   20 cycles
 SCF Done:  E(UB3LYP) =  -534.240272306     A.U. after   18 cycles
 SCF Done:  E(UB3LYP) =  -534.240345665     A.U. after   18 cycles
 SCF Done:  E(UB3LYP) =  -534.240363620     A.U. after   17 cycles
 SCF Done:  E(UB3LYP) =  -534.240378209     A.U. after   17 cycles
 SCF Done:  E(UB3LYP) =  -534.240387872     A.U. after   17 cycles
 SCF Done:  E(UB3LYP) =  -534.240388886     A.U. after   15 cycles
 SCF Done:  E(UB3LYP) =  -534.240388995     A.U. after   15 cycles
 Optimization completed.
    -- Stationary point found.
 Normal termination of Gaussian 16 at Sat Jan  6 06:45:33 2024.

 ----------------------------------------------------------------------
 #P Geom=AllCheck Guess=TCheck SCRF=Check GenChk UB3LYP/6-311++G(d,p) F
 req
 ----------------------------------------------------------------------

 Structure from the checkpoint file:  "056-an.chk"
 -------
 Reduced
 -------
 Charge = -2 Multiplicity = 1

                          Input orientation:
 ---------------------------------------------------------------------
 Center     Atomic      Atomic             Coordinates (Angstroms)
 Number     Number       Type             X           Y           Z
 ---------------------------------------------------------------------
      1          6           0       -0.522268    1.174869   -0.354853
      2          6           0       -1.405401    0.099313   -0.778553
      3          6           0       -1.165532   -1.236149   -0.557981
      4          6           0        0.007415   -1.739025    0.129915
      5          6           0        0.875984   -0.713053    0.548792
      6          6           0        0.676640    0.706892    0.345441
      7          8           0       -0.833772    2.382450   -0.607185
      8          8           0        0.191229   -3.016277    0.315297
      9          6           0        1.670070    1.636742    0.840440
     10          6           0        2.907997    1.046604    1.570994
     11          8           0        1.656337    2.881342    0.751835
     12          1           0       -2.306245    0.421365   -1.302689
     13          1           0       -1.879515   -1.985266   -0.908310
     14          1           0        1.766866   -1.051535    1.068393
     15          1           0        3.482323    0.372449    0.924395
     16          1           0        2.623360    0.470694    2.459641
     17          1           0        3.537172    1.889152    1.869039
 ---------------------------------------------------------------------

 SCF Done:  E(UB3LYP) =  -534.240388995     A.U. after    1 cycles

 Alpha  occ. eigenvalues --  -18.80215 -18.75817 -18.73912  -9.95875  -9.92208
 Alpha  occ. eigenvalues --   -9.91368  -9.90245  -9.87863  -9.87185  -9.86841
 Alpha  occ. eigenvalues --   -9.85337  -0.72586  -0.67531  -0.64723  -0.51876
 Alpha  occ. eigenvalues --   -0.48041  -0.43666  -0.38535  -0.32827  -0.28234
 Alpha  occ. eigenvalues --   -0.22792  -0.18257  -0.17301  -0.17157  -0.16290
 Alpha  occ. eigenvalues --   -0.14743  -0.11914  -0.10357  -0.09541  -0.08616
 Alpha  occ. eigenvalues --   -0.06653  -0.06501  -0.05120  -0.04035   0.03315
 Alpha  occ. eigenvalues --    0.03839   0.04622   0.08085   0.08380   0.14573
 Alpha virt. eigenvalues --    0.17934   0.19663   0.21094   0.21541   0.21889
 Alpha virt. eigenvalues --    0.24150   0.24546   0.25560   0.28061   0.28424
 Alpha virt. eigenvalues --    0.28987   0.30597   0.30682   0.31145   0.31216

  Beta  occ. eigenvalues --  -18.80215 -18.75817 -18.73912  -9.95875  -9.92208
  Beta  occ. eigenvalues --   -9.91368  -9.90245  -9.87863  -9.87185  -9.86841
  Beta  occ. eigenvalues --   -9.85337  -0.72586  -0.67531  -0.64723  -0.51876
  Beta  occ. eigenvalues --   -0.48041  -0.43666  -0.38535  -0.32827  -0.28234
  Beta  occ. eigenvalues --   -0.22792  -0.18257  -0.17301  -0.17157  -0.16290
  Beta  occ. eigenvalues --   -0.14743  -0.11914  -0.10357  -0.09541  -0.08616
  Beta  occ. eigenvalues --   -0.06653  -0.06501  -0.05120  -0.04035   0.03315
  Beta  occ. eigenvalues --    0.03839   0.04622   0.08085   0.08380   0.14573
  Beta virt. eigenvalues --    0.17934   0.19663   0.21094   0.21541   0.21889
  Beta virt. eigenvalues --    0.24150   0.24546   0.25560   0.28061   0.28424
  Beta virt. eigenvalues --    0.28987   0.30597   0.30682   0.31145   0.31216

 Mulliken charges and spin densities:
               1          2
     1  C   -0.995692   0.000000
     2  C    0.291637  -0.000000
     3  C    0.307054   0.000000
     4  C   -1.078425   0.000000
     5  C   -0.843520  -0.000000
     6  C    2.024095  -0.000000
     7  O   -0.464739  -0.000000
     8  O   -0.605314   0.000000
     9  C   -0.332031   0.000000
    10  C   -0.365899  -0.000000
    11  O   -0.380077  -0.000000
    12  H    0.052989  -0.000000
    13  H    0.051486   0.000000
    14  H    0.043381  -0.000000
    15  H    0.100106   0.000000
    16  H    0.100171   0.000000
    17  H    0.094781  -0.000000
 Sum of Mulliken charges =  -2.00000  -0.00000

 Dipole moment (field-independent basis, Debye):
    X=             -2.0988    Y=             -1.8493    Z=             -1.1783  Tot=              3.0353
 Quadrupole moment (field-independent basis, Debye-Ang):
   XX=            -87.6940   YY=           -146.1991   ZZ=            -77.7736
   XY=             -3.5231   XZ=             -7.9251   YZ=              2.7400

  Exact polarizability: 193.598  21.956 181.256  54.847   6.549 123.080
 Approx polarizability: 291.375  35.020 290.823  90.098   8.890 175.816

                      1                      2                      3
                      A                      A                      A
 Frequencies --     35.9645                81.8463               147.7060
 Red. masses --      4.3239                 5.8129                 6.7609
 Frc consts  --      0.0033                 0.0229                 0.0869
 IR Inten    --      5.6943                 3.2296                 5.0105

                      4                      5                      6
                      A                      A                      A
 Frequencies --    163.6129               199.5539               317.3747
 Red. masses --      1.0714                 6.4577                 6.2867
 Frc consts  --      0.0169                 0.1515                 0.3731
 IR Inten    --      0.0659                 2.1123                 0.4325

                      7                      8                      9
                      A                      A                      A
 Frequencies --    322.6232               394.2550               416.3026
 Red. masses --      8.4335                 4.3800                 4.0329
 Frc consts  --      0.5172                 0.4011                 0.4118
 IR Inten    --      0.2517                23.8519                 1.5332

                     10                     11                     12
                      A                      A                      A
 Frequencies --    422.8131               474.2340               516.9742
 Red. masses --      9.4711                10.8477                 1.9958
 Frc consts  --      0.9976                 1.4374                 0.3143
 IR Inten    --      6.7913                12.9968                18.9888

                     13                     14                     15
                      A                      A                      A
 Frequencies --    529.8877               608.2942               624.0904
 Red. masses --      4.3004                 2.7241                 4.3189
 Frc consts  --      0.7114                 0.5939                 0.9911
 IR Inten    --      3.6955                 1.0141                 9.1044

                     16                     17                     18
                      A                      A                      A
 Frequencies --    693.0953               713.2253               777.7559
 Red. masses --      6.4736                 1.8515                 2.0939
 Frc consts  --      1.8322                 0.5549                 0.7463
 IR Inten    --     12.3705                 0.5362                19.5477

                     19                     20                     21
                      A                      A                      A
 Frequencies --    802.2055               824.4275               891.0397
 Red. masses --      5.4581                 2.5888                 5.5491
 Frc consts  --      2.0695                 1.0367                 2.5958
 IR Inten    --     43.1349                33.2687                55.1811

                     22                     23                     24
                      A                      A                      A
 Frequencies --    902.3690               928.0494               998.1812
 Red. masses --      1.2464                 2.6142                 1.7877
 Frc consts  --      0.5980                 1.3266                 1.0494
 IR Inten    --      0.3827                70.8569                 1.1605

                     25                     26                     27
                      A                      A                      A
 Frequencies --   1027.2815              1101.5085              1169.6679
 Red. masses --      1.8852                 1.5927                 2.3533
 Frc consts  --      1.1721                 1.1386                 1.8969
 IR Inten    --     39.6018                 5.7914               243.2655

                     28                     29                     30
                      A                      A                      A
 Frequencies --   1221.6599              1255.3299              1311.9453
 Red. masses --      1.8960                 3.8856                 2.4289
 Frc consts  --      1.6672                 3.6076                 2.4632
 IR Inten    --    129.5341               135.3832                38.9928

                     31                     32                     33
                      A                      A                      A
 Frequencies --   1333.6048              1351.6259              1416.6844
 Red. masses --      1.3523                 4.8262                 4.8766
 Frc consts  --      1.4170                 5.1948                 5.7665
 IR Inten    --     12.3886               203.3189               209.0183

                     34                     35                     36
                      A                      A                      A
 Frequencies --   1459.0504              1466.3858              1469.6211
 Red. masses --      3.8253                 1.3187                 1.0533
 Frc consts  --      4.7979                 1.6707                 1.3404
 IR Inten    --    409.7923                 7.9623                 0.7267

                     37                     38                     39
                      A                      A                      A
 Frequencies --   1479.6145              1585.7829              1632.6920
 Red. masses --      3.1889                 5.9619                 7.9054
 Frc consts  --      4.1133                 8.8333                12.4160
 IR Inten    --    276.0343               743.9581               174.2964

                     40                     41                     42
                      A                      A                      A
 Frequencies --   2987.6738              3040.0704              3057.2765
 Red. masses --      1.0342                 1.0997                 1.0832
 Frc consts  --      5.4388                 5.9882                 5.9653
 IR Inten    --    122.3911                97.3446                77.1729

                     43                     44                     45
                      A                      A                      A
 Frequencies --   3076.7476              3093.4040              3147.2537
 Red. masses --      1.1013                 1.0924                 1.0847
 Frc consts  --      6.1427                 6.1588                 6.3302
 IR Inten    --     41.4382               165.4762                36.3276

 - Thermochemistry -
 -------------------
 Temperature   298.150 Kelvin.  Pressure   1.00000 Atm.
 Atom     1 has atomic number  6 and mass  12.00000

 Molecular mass:   150.03169 amu.
 Principal axes and moments of inertia in atomic units:
                           1         2         3
     Eigenvalues --  1052.543091951.602502992.97262
           X            0.41962   0.76595  -0.48708
           Y            0.89031  -0.45184   0.05647
           Z            0.17683   0.45735   0.87153
 This molecule is an asymmetric top.
 Rotational symmetry number  1.
 Warning -- assumption of classical behavior for rotation
           may cause significant error
 Rotational temperatures (Kelvin)      0.08229     0.04438     0.02894
 Rotational constants (GHZ):           1.71465     0.92475     0.60299
 Zero-point vibrational energy     307863.5 (Joules/Mol)
                                   73.58115 (Kcal/Mol)
 Warning -- explicit consideration of  14 degrees of freedom as
           vibrations may cause significant error
 Vibrational temperatures:     51.74   117.76   212.52   235.40   287.11
          (Kelvin)            456.63   464.18   567.24   598.97   608.33
                              682.32   743.81   762.39   875.20   897.93
                              997.21  1026.17  1119.02  1154.19  1186.17
                             1282.01  1298.31  1335.26  1436.16  1478.03
                             1584.83  1682.89  1757.70  1806.14  1887.60
                             1918.76  1944.69  2038.29  2099.25  2109.80
                             2114.46  2128.84  2281.59  2349.08  4298.60
                             4373.98  4398.74  4426.75  4450.72  4528.20

 Zero-point correction=                           0.117259 (Hartree/Particle)
 Thermal correction to Energy=                    0.127027
 Thermal correction to Enthalpy=                  0.127972
 Thermal correction to Gibbs Free Energy=         0.081360
 Sum of electronic and zero-point Energies=           -534.123130
 Sum of electronic and thermal Energies=              -534.113362
 Sum of electronic and thermal Enthalpies=            -534.112417
 Sum of electronic and thermal Free Energies=         -534.159029

                     E (Thermal)             CV                S
                      KCal/Mol        Cal/Mol-Kelvin    Cal/Mol-Kelvin
 Total                   79.711             36.442             98.103
 Electronic               0.000              0.000              0.000
 Translational            0.889              2.981             40.927
 Rotational               0.889              2.981             30.198
 Vibrational             77.933             30.480             26.977
 Vibration     1          0.594              1.982              5.470
 Vibration     2          0.600              1.962              3.846
 Vibration     3          0.617              1.905              2.702
 Vibration     4          0.623              1.887              2.508
 Vibration     5          0.638              1.841              2.137
 Vibration     6          0.704              1.640              1.324
 Vibration     7          0.708              1.630              1.297
 Vibration     8          0.761              1.482              0.984
 Vibration     9          0.780              1.435              0.905
 Vibration    10          0.785              1.421              0.882
 Vibration    11          0.831              1.307              0.726
 Vibration    12          0.872              1.212              0.617
 Vibration    13          0.885              1.184              0.587
 Vibration    14          0.967              1.014              0.436

 Optimization completed.
    -- Stationary point found.
 Normal termination of Gaussian 16 at Sat Jan  6 07:01:38 2024.
