 Q-Chem 5.4, Q-Chem, Inc., Pleasanton, CA (2021)
 Q-Chem 5.4.0 for Intel X86 EM64T Linux

User input:
--------------------------------------------------------------
$molecule
-2 1
C                 -0.5222680000      1.1748690000     -0.3548530000
C                 -1.4054010000      0.0993130000     -0.7785530000
C                 -1.1655320000     -1.2361490000     -0.5579810000
C                  0.0074150000     -1.7390250000      0.1299150000
C                  0.8759840000     -0.7130530000      0.5487920000
C                  0.6766400000      0.7068920000      0.3454410000
O                 -0.8337720000      2.3824500000     -0.6071850000
O                  0.1912290000     -3.0162770000      0.3152970000
C                  1.6700700000      1.6367420000      0.8404400000
C                  2.9079970000      1.0466040000      1.5709940000
O                  1.6563370000      2.8813420000      0.7518350000
H                 -2.3062450000      0.4213650000     -1.3026890000
H                 -1.8795150000     -1.9852660000     -0.9083100000
H                  1.7668660000     -1.0515350000      1.0683930000
H                  3.4823230000      0.3724490000      0.9243950000
H                  2.6233600000      0.4706940000      2.4596410000
H                  3.5371720000      1.8891520000      1.8690390000
$end
$rem
MAX_SCF_CYCLES=200
BASIS  =  6-311++G(d,p)
GUI  =  2
JOB_TYPE  =  SP
METHOD  =  B3LYP
SOLVENT_METHOD = COSMO
$end
$solvent
dielectric 37.219
opticaldielectric 1.43
$end

--------------------------------------------------------------

             Standard Nuclear Orientation (Angstroms)
    I     Atom           X                Y                Z
 ----------------------------------------------------------------
    1      C       0.1461818809    -1.4095439792     0.0000009967
    2      C      -1.2850537412    -1.6699875703    -0.0001565007
    3      C      -2.2529559832    -0.6938660884    -0.0001403819
    4      C      -1.9619089702     0.7264090393     0.0000617950
    5      C      -0.5807996405     1.0003170688     0.0001287937
    6      C       0.4820709158     0.0166303098     0.0000724271
    7      O       0.9641119104    -2.3841970039    -0.0000062457
    8      O      -2.9152540820     1.6155995886     0.0001562761
    9      C       1.8586911901     0.4654786325     0.0000429741
   10      C       2.1164988450     1.9977874521    -0.0003539665
   11      O       2.8877244436    -0.2403252371     0.0002924447
   12      H      -1.5620620478    -2.7250810813    -0.0003315357
   13      H      -3.3096718284    -0.9714089022    -0.0002864508
   14      H      -0.3235254553     2.0548482224     0.0003316745
   15      H       1.6838800920     2.4861517540     0.8809898417
   16      H       1.6823837106     2.4861223215    -0.8809544128
   17      H       3.1999903735     2.1413997166    -0.0012257422
 ----------------------------------------------------------------

   12    -534.2404275715      4.59e-06  Convergence criterion met
 Total energy in the final basis set =     -534.2404275715
    6    -534.5445560915      5.29e-06  Convergence criterion met
 Total energy in the final basis set =     -534.5445560915

                    Orbital Energies (a.u.)
 --------------------------------------------------------------

 Alpha MOs
 -- Occupied --
-19.0743 -19.0399 -19.0261 -10.2277 -10.1977 -10.1789 -10.1461 -10.1446
-10.1408 -10.1373 -10.1276  -0.9988  -0.9589  -0.9351  -0.7908  -0.7370
 -0.6899  -0.6604  -0.5966  -0.5491  -0.4941  -0.4477  -0.4428  -0.4290
 -0.4148  -0.4036  -0.3901  -0.3730  -0.3678  -0.3565  -0.3447  -0.3365
 -0.3252  -0.3238  -0.2420  -0.2414  -0.2296  -0.2083  -0.1968  -0.1369

          Ground-State Mulliken Net Atomic Charges

     Atom                 Charge (a.u.)
  ----------------------------------------
      1 C                    -0.584949
      2 C                    -0.039621
      3 C                     0.007128
      4 C                    -0.410885
      5 C                    -1.058447
      6 C                     1.618806
      7 O                    -0.639467
      8 O                    -0.789014
      9 C                    -0.082278
     10 C                    -0.516419
     11 O                    -0.488881
     12 H                     0.166708
     13 H                     0.174532
     14 H                     0.135927
     15 H                     0.166613
     16 H                     0.166403
     17 H                     0.173846
  ----------------------------------------
  Sum of atomic charges =    -2.000000

                    Cartesian Multipole Moments
 -----------------------------------------------------------------
    Charge (ESU x 10^10)
                -9.6064
    Dipole Moment (Debye)
         X       2.5314      Y       2.9416      Z      -0.0039
       Tot       3.8808
    Quadrupole Moments (Debye-Ang)
        XX    -129.5072     XY      32.8464     YY    -100.8708
        XZ       0.0030     YZ      -0.0011     ZZ     -71.6786

 Total job time:  20.43s(wall), 143.08s(cpu)
        *  Thank you very much for using Q-Chem.  Have a nice day.  *
