 Q-Chem 5.4, Q-Chem, Inc., Pleasanton, CA (2021)
 Q-Chem 5.4.0 for Intel X86 EM64T Linux

User input:
--------------------------------------------------------------
$molecule
-2 1
C                 -3.3701960000      3.4889980000      0.0186090000
C                 -4.5921430000      2.8502890000      0.0810380000
C                 -4.6063410000      1.4235080000      0.1225030000
C                 -2.1313130000      2.7945670000      0.0103590000
C                 -2.1590180000      1.3508980000      0.0682060000
C                 -3.4232210000      0.7144630000      0.1109320000
C                 -0.8955900000      3.5522240000     -0.0414590000
C                  0.3099950000      2.7458100000     -0.0372760000
C                  0.2822540000      1.3021490000      0.0206590000
C                 -0.9533830000      0.5430400000      0.0774600000
C                  1.5749930000      3.3901990000     -0.0779490000
C                  2.7719730000      2.7031590000     -0.0626240000
C                  2.7307850000      1.2769230000     -0.0204160000
C                  1.5207410000      0.6157070000      0.0147330000
O                 -0.8707860000      4.8331190000     -0.0807220000
O                 -0.9780180000     -0.7360440000      0.1232280000
C                 -5.8936420000      3.6162600000      0.0880550000
H                 -5.5593940000      0.8976040000      0.1676040000
H                 -3.4182140000     -0.3707760000      0.1443920000
H                  1.4736840000     -0.4684850000      0.0493680000
C                  4.1022890000      3.4165540000     -0.1070990000
H                  3.6631050000      0.7133380000     -0.0119630000
H                 -3.3110830000      4.5729750000     -0.0263220000
H                  1.5575140000      4.4757010000     -0.1215220000
H                 -5.7184370000      4.6955390000      0.0391770000
H                 -6.4834270000      3.4166800000      0.9920530000
H                 -6.5399240000      3.3468540000     -0.7660060000
H                  3.9685170000      4.5020020000     -0.1499660000
H                  4.7034180000      3.1222140000     -0.9855570000
H                  4.7185220000      3.1929120000      0.7733160000
$end

$rem
BASIS  =  6-311++G(d,p)
GUI  =  2
JOB_TYPE  =  SP
METHOD  =  B3LYP
SCF_CONVERGENCE  = 8
SOLVENT_METHOD = sm12
$end

$smx
solvent dimethylformamide
charges CM5
$end

--------------------------------------------------------------

             Standard Nuclear Orientation (Angstroms)
    I     Atom           X                Y                Z
 ----------------------------------------------------------------
    1      C      -3.3701960000     3.4889980000     0.0186090000
    2      C      -4.5921430000     2.8502890000     0.0810380000
    3      C      -4.6063410000     1.4235080000     0.1225030000
    4      C      -2.1313130000     2.7945670000     0.0103590000
    5      C      -2.1590180000     1.3508980000     0.0682060000
    6      C      -3.4232210000     0.7144630000     0.1109320000
    7      C      -0.8955900000     3.5522240000    -0.0414590000
    8      C       0.3099950000     2.7458100000    -0.0372760000
    9      C       0.2822540000     1.3021490000     0.0206590000
   10      C      -0.9533830000     0.5430400000     0.0774600000
   11      C       1.5749930000     3.3901990000    -0.0779490000
   12      C       2.7719730000     2.7031590000    -0.0626240000
   13      C       2.7307850000     1.2769230000    -0.0204160000
   14      C       1.5207410000     0.6157070000     0.0147330000
   15      O      -0.8707860000     4.8331190000    -0.0807220000
   16      O      -0.9780180000    -0.7360440000     0.1232280000
   17      C      -5.8936420000     3.6162600000     0.0880550000
   18      H      -5.5593940000     0.8976040000     0.1676040000
   19      H      -3.4182140000    -0.3707760000     0.1443920000
   20      H       1.4736840000    -0.4684850000     0.0493680000
   21      C       4.1022890000     3.4165540000    -0.1070990000
   22      H       3.6631050000     0.7133380000    -0.0119630000
   23      H      -3.3110830000     4.5729750000    -0.0263220000
   24      H       1.5575140000     4.4757010000    -0.1215220000
   25      H      -5.7184370000     4.6955390000     0.0391770000
   26      H      -6.4834270000     3.4166800000     0.9920530000
   27      H      -6.5399240000     3.3468540000    -0.7660060000
   28      H       3.9685170000     4.5020020000    -0.1499660000
   29      H       4.7034180000     3.1222140000    -0.9855570000
   30      H       4.7185220000     3.1929120000     0.7733160000
 ----------------------------------------------------------------

   17    -767.5650182861      7.29e-09  Convergence criterion met
 Total energy in the final basis set =     -767.8537827668

                    Orbital Energies (a.u.)
 --------------------------------------------------------------

 Alpha MOs
 -- Occupied --
-19.0318 -19.0255 -10.1897 -10.1839 -10.1764 -10.1764 -10.1759 -10.1759
-10.1690 -10.1690 -10.1684 -10.1683 -10.1618 -10.1618 -10.1512 -10.1512
-10.1508 -10.1507  -0.9508  -0.9443  -0.8474  -0.8450  -0.7841  -0.7631
 -0.7465  -0.7345  -0.7024  -0.6793  -0.6444  -0.6130  -0.5943  -0.5771
 -0.5432  -0.5139  -0.5045  -0.4639  -0.4509  -0.4464  -0.4381  -0.4231
 -0.4217  -0.4184  -0.4176  -0.4017  -0.3951  -0.3894  -0.3768  -0.3754
 -0.3689  -0.3627  -0.3464  -0.3353  -0.3342  -0.3309  -0.3133  -0.3072
 -0.2521  -0.2393  -0.2314  -0.2286  -0.2089  -0.2008  -0.1152

          Ground-State Mulliken Net Atomic Charges

     Atom                 Charge (a.u.)
  ----------------------------------------
      1 C                    -1.303659
      2 C                     2.702395
      3 C                     1.924653
      4 C                    -1.738835
      5 C                    -3.536295
      6 C                    -0.120067
      7 C                    -1.501504
      8 C                    -1.738502
      9 C                    -3.534937
     10 C                    -4.513664
     11 C                    -1.303224
     12 C                     2.698930
     13 C                     1.923591
     14 C                    -0.122233
     15 O                    -0.354266
     16 O                    -0.290507
     17 C                     3.050142
     18 H                     0.323079
     19 H                     0.174138
     20 H                     0.174031
     21 C                     3.049027
     22 H                     0.323049
     23 H                    -0.118314
     24 H                    -0.118270
     25 H                     0.426306
     26 H                     0.276452
     27 H                     0.272938
     28 H                     0.426163
     29 H                     0.272988
     30 H                     0.276394
  ----------------------------------------
  Sum of atomic charges =    -2.000000

                    Cartesian Multipole Moments
 -----------------------------------------------------------------
    Charge (ESU x 10^10)
                -9.6064
    Dipole Moment (Debye)
         X       8.8801      Y     -19.5548      Z      -0.1748
       Tot      21.4774
    Quadrupole Moments (Debye-Ang)
        XX    -155.1617     XY      17.6926     YY    -207.5927
        XZ       0.7032     YZ       1.3127     ZZ    -120.6575

 Total job time:  838.78s(wall), 6387.76s(cpu)
        *  Thank you very much for using Q-Chem.  Have a nice day.  *
