 Q-Chem 5.4, Q-Chem, Inc., Pleasanton, CA (2021)
 Q-Chem 5.4.0 for Intel X86 EM64T Linux

User input:
--------------------------------------------------------------
$molecule
-2 1
C                 -1.1973360000      2.6367070000     -0.6037770000
C                 -2.2624070000      2.0088500000     -0.0048080000
C                 -2.1313680000      0.6578310000      0.4526720000
C                  0.0572350000      1.9821140000     -0.7936250000
C                  0.1863160000      0.6060540000     -0.3345710000
C                 -0.9400310000     -0.0084370000      0.2857100000
C                  1.1577250000      2.5975260000     -1.4001740000
C                  2.3899000000      1.9600170000     -1.5878490000
C                  2.5098690000      0.5705950000     -1.1223780000
C                  1.4113150000     -0.0498810000     -0.5185290000
C                  3.4810560000      2.6929640000     -2.2252150000
C                  4.7624540000      1.9559360000     -2.4028590000
C                  4.8032160000      0.5876630000     -1.9325100000
C                  3.7522320000     -0.0783020000     -1.3304260000
O                  3.3420810000      3.8911920000     -2.6041310000
O                  5.7808290000      2.4810410000     -2.9378560000
H                 -1.2938200000      3.6633790000     -0.9502130000
H                 -3.2054520000      2.5333220000      0.1256810000
H                 -2.9740000000      0.1641170000      0.9292260000
H                 -0.8377080000     -1.0346540000      0.6327520000
H                  1.0833400000      3.6227020000     -1.7518330000
H                  1.5168860000     -1.0749360000     -0.1774680000
H                  5.7581090000      0.0968720000     -2.0897010000
O                  3.8112310000     -1.4202580000     -0.9270430000
C                  5.0878780000     -2.0190270000     -0.8182780000
C                  4.9196690000     -3.4397660000     -0.3660410000
C                  5.6896520000     -4.0486890000      0.5339800000
H                  5.7281650000     -1.4600320000     -0.1200490000
H                  5.5914380000     -2.0109240000     -1.7971890000
H                  4.1137460000     -3.9859850000     -0.8524860000
H                  6.4905510000     -3.5208450000      1.0453070000
H                  5.5552080000     -5.0936430000      0.8004120000
$end
$rem
MAX_SCF_CYCLES=200
BASIS  =  6-311++G(d,p)
GUI  =  2
JOB_TYPE  =  SP
METHOD  =  B3LYP
SOLVENT_METHOD = COSMO
$end
$solvent
dielectric 37.219
opticaldielectric 1.43
$end

--------------------------------------------------------------

             Standard Nuclear Orientation (Angstroms)
    I     Atom           X                Y                Z
 ----------------------------------------------------------------
    1      C       4.1639138616     0.0397358880     0.0982873420
    2      C       4.8299520941     1.2411129581     0.0775335761
    3      C       4.0923711095     2.4667070266     0.0026671699
    4      C       2.7391824981    -0.0361070208     0.0447051809
    5      C       1.9912293526     1.2106940700    -0.0388815123
    6      C       2.7186981772     2.4360837268    -0.0535297470
    7      C       2.0356936655    -1.2454173901     0.0642947733
    8      C       0.6389335197    -1.3247237948     0.0126570859
    9      C      -0.1071155277    -0.0607536951    -0.0730150378
   10      C       0.5920198831     1.1504896091    -0.0963454420
   11      C      -0.0015111312    -2.6372413623     0.0472464336
   12      C      -1.4888138467    -2.6532352838    -0.0192616468
   13      C      -2.1552728966    -1.3719721437    -0.1154792421
   14      C      -1.5198164669    -0.1447936869    -0.1439406819
   15      O       0.6744704013    -3.7024818362     0.1306336409
   16      O      -2.1594513787    -3.7250088957     0.0050553705
   17      H       4.7218168083    -0.8922850423     0.1571409509
   18      H       5.9157759822     1.2668705487     0.1194282123
   19      H       4.6209776449     3.4160721724    -0.0102505212
   20      H       2.1559812868     3.3657026439    -0.1099907713
   21      H       2.5732456863    -2.1875485290     0.1243759990
   22      H       0.0265933912     2.0750751179    -0.1566788002
   23      H      -3.2370101391    -1.4415384800    -0.1645762946
   24      O      -2.1943578181     1.0768896706    -0.2836846338
   25      C      -3.5886930107     1.0893370087    -0.0473456029
   26      C      -4.1002176424     2.4866931085    -0.2398303022
   27      C      -4.9991926715     3.0829060850     0.5412412850
   28      H      -3.8212213038     0.7240526966     0.9638242904
   29      H      -4.0964412954     0.4198277765    -0.7585798440
   30      H      -3.7014315176     3.0080307748    -1.1079734241
   31      H      -5.4006867139     2.5897636581     1.4227892860
   32      H      -5.3710552707     4.0836945329     0.3384341061
 ----------------------------------------------------------------

   24    -880.8854568464      2.29e-06  Convergence criterion met
 Total energy in the final basis set =     -880.8854568464
    6    -881.1652151022      6.49e-06  Convergence criterion met
 Total energy in the final basis set =     -881.1652151022

                    Orbital Energies (a.u.)
 --------------------------------------------------------------

 Alpha MOs
 -- Occupied --
-19.1319 -19.0295 -19.0248 -10.2163 -10.1945 -10.1756 -10.1753 -10.1689
-10.1645 -10.1626 -10.1617 -10.1615 -10.1612 -10.1603 -10.1590 -10.1539
-10.1533 -10.1445 -10.1425 -10.1340  -1.0422  -0.9636  -0.9366  -0.8549
 -0.8154  -0.7883  -0.7610  -0.7566  -0.7125  -0.7041  -0.6831  -0.6346
 -0.6151  -0.5838  -0.5749  -0.5612  -0.5436  -0.5092  -0.5008  -0.4923
 -0.4745  -0.4602  -0.4463  -0.4372  -0.4311  -0.4192  -0.4086  -0.4019
 -0.3971  -0.3876  -0.3829  -0.3731  -0.3669  -0.3635  -0.3577  -0.3407
 -0.3361  -0.3324  -0.3179  -0.3116  -0.3052  -0.2898  -0.2735  -0.2669
 -0.2445  -0.2218  -0.2079  -0.1959  -0.1910  -0.1095

          Ground-State Mulliken Net Atomic Charges

     Atom                 Charge (a.u.)
  ----------------------------------------
      1 C                    -0.184554
      2 C                    -0.350280
      3 C                    -0.414202
      4 C                     0.092356
      5 C                     0.055911
      6 C                    -0.180068
      7 C                    -0.094084
      8 C                     0.421608
      9 C                     0.198341
     10 C                    -0.182077
     11 C                    -0.470253
     12 C                    -0.052269
     13 C                     0.128595
     14 C                    -0.518555
     15 O                    -0.723192
     16 O                    -0.715712
     17 H                     0.166796
     18 H                     0.189641
     19 H                     0.191591
     20 H                     0.167430
     21 H                     0.125271
     22 H                     0.128035
     23 H                     0.178368
     24 O                    -0.182176
     25 C                    -0.504782
     26 C                     0.219394
     27 C                    -0.570257
     28 H                     0.177701
     29 H                     0.150727
     30 H                     0.212059
     31 H                     0.156934
     32 H                     0.181703
  ----------------------------------------
  Sum of atomic charges =    -2.000000

                    Cartesian Multipole Moments
 -----------------------------------------------------------------
    Charge (ESU x 10^10)
                -9.6064
    Dipole Moment (Debye)
         X       1.1452      Y      24.9937      Z      -0.1546
       Tot      25.0204
    Quadrupole Moments (Debye-Ang)
        XX    -146.2460     XY     -24.8036     YY    -225.1237
        XZ      -1.7261     YZ       1.2881     ZZ    -128.5677

 Total job time:  168.37s(wall), 1315.81s(cpu)
        *  Thank you very much for using Q-Chem.  Have a nice day.  *
