 Gaussian 16, Revision A.03,
 Gaussian 16:  ES64L-G16RevA.03 25-Dec-2016

 --------------------------------------
 #P UB3LYP/6-311++G(d,p) nosym opt freq
 --------------------------------------

 -------
 Reduced
 -------
 Symbolic Z-matrix:
 Charge = -2 Multiplicity = 1

 SCF Done:  E(UB3LYP) =  -1144.81354399     A.U. after  126 cycles
 SCF Done:  E(UB3LYP) =  -1144.83462740     A.U. after   35 cycles
 SCF Done:  E(UB3LYP) =  -1144.83773513     A.U. after   39 cycles
 SCF Done:  E(UB3LYP) =  -1144.83809005     A.U. after   28 cycles
 SCF Done:  E(UB3LYP) =  -1144.83768658     A.U. after   32 cycles
 SCF Done:  E(UB3LYP) =  -1144.83837803     A.U. after   35 cycles
 SCF Done:  E(UB3LYP) =  -1144.83843013     A.U. after   34 cycles
 SCF Done:  E(UB3LYP) =  -1144.83856479     A.U. after   31 cycles
 SCF Done:  E(UB3LYP) =  -1144.83870246     A.U. after   29 cycles
 SCF Done:  E(UB3LYP) =  -1144.83882624     A.U. after   27 cycles
 SCF Done:  E(UB3LYP) =  -1144.83906748     A.U. after   26 cycles
 SCF Done:  E(UB3LYP) =  -1144.83909466     A.U. after   26 cycles
 SCF Done:  E(UB3LYP) =  -1144.83912142     A.U. after   28 cycles
 SCF Done:  E(UB3LYP) =  -1144.83915149     A.U. after   27 cycles
 SCF Done:  E(UB3LYP) =  -1144.83919821     A.U. after   32 cycles
 SCF Done:  E(UB3LYP) =  -1144.83921009     A.U. after   25 cycles
 SCF Done:  E(UB3LYP) =  -1144.83921060     A.U. after   27 cycles
 SCF Done:  E(UB3LYP) =  -1144.83921067     A.U. after   27 cycles
 SCF Done:  E(UB3LYP) =  -1144.83921069     A.U. after   21 cycles
 Optimization completed.
    -- Stationary point found.
 Normal termination of Gaussian 16 at Thu Dec 21 12:19:04 2023.

 ----------------------------------------------------------------------
 #P Geom=AllCheck Guess=TCheck SCRF=Check GenChk UB3LYP/6-311++G(d,p) F
 req
 ----------------------------------------------------------------------

 Structure from the checkpoint file:  "148-an.chk"
 -------
 Reduced
 -------
 Charge = -2 Multiplicity = 1

                          Input orientation:
 ---------------------------------------------------------------------
 Center     Atomic      Atomic             Coordinates (Angstroms)
 Number     Number       Type             X           Y           Z
 ---------------------------------------------------------------------
      1          6           0       -2.983431    3.767750    0.541947
      2          6           0       -4.230279    3.201815    0.587193
      3          6           0       -4.424896    1.808302    0.439932
      4          6           0       -1.828709    2.969578    0.350466
      5          6           0       -1.998421    1.544179    0.196000
      6          6           0       -3.310870    1.016727    0.252690
      7          6           0       -0.530908    3.617005    0.301606
      8          6           0        0.585043    2.715055    0.084813
      9          6           0        0.420158    1.289102   -0.070031
     10          6           0       -0.880063    0.643131   -0.022370
     11          6           0        1.892943    3.253567    0.005061
     12          6           0        2.976475    2.442014   -0.205860
     13          6           0        2.843522    1.041890   -0.359487
     14          6           0        1.576617    0.501425   -0.284726
     15          8           0       -0.383538    4.877668    0.432856
     16          8           0       -1.028424   -0.615247   -0.164126
     17          1           0       -3.407821   -0.057491    0.135798
     18          1           0        1.422760   -0.566828   -0.395078
     19          1           0       -2.847049    4.838634    0.640932
     20          1           0        2.004699    4.327086    0.106342
     21          1           0        3.715449    0.419279   -0.516668
     22          8           0        4.235899    3.086660   -0.382323
     23          6           0        5.344470    2.700717    0.272997
     24          6           0        6.536242    3.515092   -0.191920
     25          8           0        5.419671    1.808473    1.087465
     26          8           0       -5.338484    4.095041    0.671633
     27          1           0        6.239717    4.510655   -0.521918
     28          1           0        7.015770    3.006125   -1.038812
     29          1           0        7.267374    3.578967    0.613566
     30          6           0       -6.330013    3.933720    1.565185
     31          6           0       -7.402622    4.983908    1.349985
     32          8           0       -6.404028    3.061817    2.401355
     33          1           0       -5.419516    1.382633    0.487578
     34          1           0       -6.986685    5.906891    0.946048
     35          1           0       -7.917456    5.173928    2.291373
     36          1           0       -8.143809    4.604903    0.633664
 ---------------------------------------------------------------------

 SCF Done:  E(UB3LYP) =  -1144.83921069     A.U. after    3 cycles

 Alpha  occ. eigenvalues --  -18.99384 -18.99376 -18.93795 -18.93787 -18.82122
 Alpha  occ. eigenvalues --  -18.82115 -10.13280 -10.13276 -10.02335 -10.02332
 Alpha  occ. eigenvalues --  -10.02246 -10.02245  -9.98029  -9.97976  -9.96326
 Alpha  occ. eigenvalues --   -9.96322  -9.95686  -9.95685  -9.95676  -9.95674
 Alpha  occ. eigenvalues --   -9.94481  -9.94480  -9.94111  -9.94108  -0.93081
 Alpha  occ. eigenvalues --   -0.93081  -0.85022  -0.85019  -0.74257  -0.73890
 Alpha  occ. eigenvalues --   -0.64313  -0.64012  -0.59761  -0.59321  -0.55868
 Alpha  occ. eigenvalues --   -0.53836  -0.53825  -0.52163  -0.46622  -0.44650
 Alpha  occ. eigenvalues --   -0.43686  -0.39475  -0.38588  -0.36385  -0.33538
 Alpha  occ. eigenvalues --   -0.32827  -0.32429  -0.30960  -0.30841  -0.30671
 Alpha  occ. eigenvalues --   -0.30412  -0.28399  -0.28385  -0.25724  -0.25490
 Alpha  occ. eigenvalues --   -0.25389  -0.24921  -0.23219  -0.23015  -0.22104
 Alpha  occ. eigenvalues --   -0.21685  -0.20785  -0.20402  -0.19161  -0.18567
 Alpha  occ. eigenvalues --   -0.18560  -0.17587  -0.16199  -0.15727  -0.14710
 Alpha  occ. eigenvalues --   -0.14102  -0.13735  -0.12444  -0.12352  -0.10918
 Alpha  occ. eigenvalues --   -0.10752  -0.10732  -0.09997  -0.04095  -0.02960
 Alpha  occ. eigenvalues --   -0.02108  -0.01962   0.00104   0.00771   0.10222
 Alpha virt. eigenvalues --    0.11318   0.11435   0.14409   0.14416   0.15782
 Alpha virt. eigenvalues --    0.15818   0.16573   0.16821   0.16859   0.17275
 Alpha virt. eigenvalues --    0.18032   0.18373   0.18729   0.19900   0.20255

  Beta  occ. eigenvalues --  -18.99384 -18.99376 -18.93795 -18.93787 -18.82122
  Beta  occ. eigenvalues --  -18.82115 -10.13280 -10.13276 -10.02335 -10.02332
  Beta  occ. eigenvalues --  -10.02246 -10.02245  -9.98029  -9.97976  -9.96326
  Beta  occ. eigenvalues --   -9.96322  -9.95686  -9.95685  -9.95676  -9.95674
  Beta  occ. eigenvalues --   -9.94481  -9.94480  -9.94111  -9.94108  -0.93081
  Beta  occ. eigenvalues --   -0.93081  -0.85022  -0.85019  -0.74257  -0.73890
  Beta  occ. eigenvalues --   -0.64313  -0.64012  -0.59761  -0.59321  -0.55868
  Beta  occ. eigenvalues --   -0.53836  -0.53825  -0.52163  -0.46622  -0.44650
  Beta  occ. eigenvalues --   -0.43686  -0.39475  -0.38588  -0.36385  -0.33538
  Beta  occ. eigenvalues --   -0.32827  -0.32429  -0.30960  -0.30841  -0.30671
  Beta  occ. eigenvalues --   -0.30412  -0.28399  -0.28385  -0.25724  -0.25490
  Beta  occ. eigenvalues --   -0.25389  -0.24921  -0.23219  -0.23015  -0.22104
  Beta  occ. eigenvalues --   -0.21685  -0.20785  -0.20402  -0.19161  -0.18567
  Beta  occ. eigenvalues --   -0.18560  -0.17587  -0.16199  -0.15727  -0.14710
  Beta  occ. eigenvalues --   -0.14102  -0.13735  -0.12444  -0.12352  -0.10918
  Beta  occ. eigenvalues --   -0.10752  -0.10732  -0.09997  -0.04095  -0.02960
  Beta  occ. eigenvalues --   -0.02108  -0.01962   0.00104   0.00771   0.10222
  Beta virt. eigenvalues --    0.11318   0.11435   0.14409   0.14416   0.15782
  Beta virt. eigenvalues --    0.15818   0.16573   0.16821   0.16859   0.17275
  Beta virt. eigenvalues --    0.18032   0.18373   0.18729   0.19900   0.20255

 Mulliken charges and spin densities:
               1          2
     1  C   -0.090440  -0.000000
     2  C   -0.681817   0.000000
     3  C    0.017137   0.000000
     4  C    0.516543  -0.000000
     5  C    0.461594  -0.000000
     6  C    0.115973  -0.000000
     7  C   -0.908865   0.000000
     8  C    0.516829   0.000000
     9  C    0.462686   0.000000
    10  C   -0.817100   0.000000
    11  C   -0.094489   0.000000
    12  C   -0.677302  -0.000000
    13  C    0.015149   0.000000
    14  C    0.111152   0.000000
    15  O   -0.457198   0.000000
    16  O   -0.456254   0.000000
    17  H    0.147195   0.000000
    18  H    0.147140  -0.000000
    19  H    0.166321  -0.000000
    20  H    0.166280   0.000000
    21  H    0.153476  -0.000000
    22  O   -0.029752  -0.000000
    23  C   -0.343967  -0.000001
    24  C    0.418791   0.000001
    25  O   -0.285466  -0.000000
    26  O   -0.029588   0.000000
    27  H    0.019279  -0.000000
    28  H   -0.226398  -0.000000
    29  H   -0.034592  -0.000000
    30  C   -0.351584   0.000001
    31  C    0.426943  -0.000001
    32  O   -0.284647   0.000000
    33  H    0.152734   0.000000
    34  H    0.017812   0.000000
    35  H   -0.037324   0.000000
    36  H   -0.226250   0.000000
 Sum of Mulliken charges =  -2.00000  -0.00000

 Dipole moment (field-independent basis, Debye):
    X=              6.1356    Y=            -23.1200    Z=             -4.7215  Tot=             24.3818
 Quadrupole moment (field-independent basis, Debye-Ang):
   XX=           -337.9380   YY=           -254.6631   ZZ=           -167.5734
   XY=             29.2839   XZ=             21.8899   YZ=            -13.7239

  Exact polarizability:********-978.686 858.996******** 213.114 571.058
 Approx polarizability:****************1874.224******** 224.210 646.309

                      1                      2                      3
                      A                      A                      A
 Frequencies --     18.0986                23.9576                38.4183
 Red. masses --      8.6382                 7.6509                 6.7681
 Frc consts  --      0.0017                 0.0026                 0.0059
 IR Inten    --      0.9692                 9.2819                 5.2850

                      4                      5                      6
                      A                      A                      A
 Frequencies --     54.1007                57.8215                68.5209
 Red. masses --      4.4127                 3.8721                 1.0692
 Frc consts  --      0.0076                 0.0076                 0.0030
 IR Inten    --      0.5619                 0.1630                 6.2227

                      7                      8                      9
                      A                      A                      A
 Frequencies --     69.5173                81.2843                83.0038
 Red. masses --      1.0597                 4.4151                 6.6769
 Frc consts  --      0.0030                 0.0172                 0.0271
 IR Inten    --      2.8003                11.6644                 2.9741

                     10                     11                     12
                      A                      A                      A
 Frequencies --    139.9273               152.1267               164.8640
 Red. masses --      4.6509                 6.1834                 9.0641
 Frc consts  --      0.0537                 0.0843                 0.1452
 IR Inten    --     11.9406                 4.1148                 5.6792

                     13                     14                     15
                      A                      A                      A
 Frequencies --    180.6362               201.8195               232.2214
 Red. masses --      8.2898                 7.4813                 4.9578
 Frc consts  --      0.1594                 0.1795                 0.1575
 IR Inten    --      4.0777                45.9990                 1.0977

                     16                     17                     18
                      A                      A                      A
 Frequencies --    246.4172               284.1381               304.8699
 Red. masses --      9.9133                 5.4809                 6.6474
 Frc consts  --      0.3547                 0.2607                 0.3640
 IR Inten    --      6.0635                81.9935                 4.4888

                     19                     20                     21
                      A                      A                      A
 Frequencies --    342.0724               377.3492               393.0261
 Red. masses --      5.7016                10.1681                 5.1991
 Frc consts  --      0.3931                 0.8531                 0.4732
 IR Inten    --      0.1344                 5.0305                23.6448

                     22                     23                     24
                      A                      A                      A
 Frequencies --    396.0114               412.8638               423.2397
 Red. masses --      4.9874                 5.5069                 4.3422
 Frc consts  --      0.4608                 0.5531                 0.4583
 IR Inten    --      0.5836                62.1595                 0.8862

                     25                     26                     27
                      A                      A                      A
 Frequencies --    457.1533               463.1766               475.1080
 Red. masses --      5.4779                 4.7524                 3.2216
 Frc consts  --      0.6745                 0.6007                 0.4285
 IR Inten    --      7.3970               138.7979                50.3944

                     28                     29                     30
                      A                      A                      A
 Frequencies --    486.1089               551.7527               558.1671
 Red. masses --      9.1780                 4.8925                 4.8983
 Frc consts  --      1.2778                 0.8775                 0.8991
 IR Inten    --     74.5291                 5.4650                 1.0363

                     31                     32                     33
                      A                      A                      A
 Frequencies --    568.4717               598.1439               608.9172
 Red. masses --      4.6720                 3.1085                 3.1989
 Frc consts  --      0.8896                 0.6553                 0.6988
 IR Inten    --     96.1960                 5.0731               383.0167

                     34                     35                     36
                      A                      A                      A
 Frequencies --    632.4626               642.7975               671.6020
 Red. masses --      3.6513                 7.0030                 5.0898
 Frc consts  --      0.8605                 1.7048                 1.3526
 IR Inten    --     14.7585                13.3429                11.9904

                     37                     38                     39
                      A                      A                      A
 Frequencies --    687.0403               705.8885               711.1366
 Red. masses --      6.2378                 5.7206                 4.3797
 Frc consts  --      1.7348                 1.6794                 1.3050
 IR Inten    --    136.5986                12.5769                59.3912

                     40                     41                     42
                      A                      A                      A
 Frequencies --    716.4585               752.4406               762.5773
 Red. masses --      3.4800                 7.1774                 2.0632
 Frc consts  --      1.0525                 2.3942                 0.7069
 IR Inten    --     23.7451                10.9193                11.0582

                     43                     44                     45
                      A                      A                      A
 Frequencies --    770.1354               789.8489               821.7804
 Red. masses --      1.5376                 5.8076                 4.4820
 Frc consts  --      0.5373                 2.1347                 1.7833
 IR Inten    --    226.3060               785.7842                 6.5358

                     46                     47                     48
                      A                      A                      A
 Frequencies --    869.3670               906.0227               924.2683
 Red. masses --      5.5679                 2.9697                 1.7588
 Frc consts  --      2.4794                 1.4363                 0.8853
 IR Inten    --      5.3176               251.8225                13.4090

                     49                     50                     51
                      A                      A                      A
 Frequencies --    929.4100               936.3833               950.0372
 Red. masses --      2.7013                 3.2439                 3.5334
 Frc consts  --      1.3748                 1.6758                 1.8790
 IR Inten    --     77.1219                15.9276                64.0137

                     52                     53                     54
                      A                      A                      A
 Frequencies --    969.7922               973.7772               998.6196
 Red. masses --      1.3035                 1.3335                 2.6141
 Frc consts  --      0.7223                 0.7450                 1.5359
 IR Inten    --     18.1099                 7.8531               559.1257

                     55                     56                     57
                      A                      A                      A
 Frequencies --   1018.2320              1019.3628              1044.6578
 Red. masses --      1.6894                 1.6545                 1.7525
 Frc consts  --      1.0320                 1.0129                 1.1268
 IR Inten    --     33.3134               339.3721               493.3198

                     58                     59                     60
                      A                      A                      A
 Frequencies --   1045.1440              1085.5488              1106.9536
 Red. masses --      1.7460                 2.1210                 1.5941
 Frc consts  --      1.1237                 1.4726                 1.1508
 IR Inten    --    130.1540                16.8296               211.0408

                     61                     62                     63
                      A                      A                      A
 Frequencies --   1118.6821              1120.8752              1180.8523
 Red. masses --      1.8321                 3.0352                 1.8980
 Frc consts  --      1.3509                 2.2467                 1.5593
 IR Inten    --      9.6116              1315.4698                 8.3631

                     64                     65                     66
                      A                      A                      A
 Frequencies --   1199.3623              1199.6751              1204.9483
 Red. masses --      7.4795                 8.0220                 1.7000
 Frc consts  --      6.3390                 6.8024                 1.4542
 IR Inten    --     31.6451               212.3005                98.0418

                     67                     68                     69
                      A                      A                      A
 Frequencies --   1224.9803              1227.7999              1238.3677
 Red. masses --      3.0986                 5.0099                 2.2719
 Frc consts  --      2.7395                 4.4497                 2.0527
 IR Inten    --    240.7633              6335.2544                57.8182

                     70                     71                     72
                      A                      A                      A
 Frequencies --   1313.8381              1343.0355              1355.6993
 Red. masses --      2.2858                 7.4343                 6.7502
 Frc consts  --      2.3247                 7.9007                 7.3096
 IR Inten    --      7.5795               302.1156               681.9219

                     73                     74                     75
                      A                      A                      A
 Frequencies --   1371.8616              1372.4767              1379.9692
 Red. masses --      1.2902                 2.5693                 1.6075
 Frc consts  --      1.4307                 2.8515                 1.8036
 IR Inten    --   8729.3513               235.5318               323.0073

                     76                     77                     78
                      A                      A                      A
 Frequencies --   1447.7933              1463.2359              1464.2118
 Red. masses --      3.3951                 3.2506                 1.0631
 Frc consts  --      4.1929                 4.1005                 1.3429
 IR Inten    --      0.5799               421.4825               192.5665

                     79                     80                     81
                      A                      A                      A
 Frequencies --   1464.2538              1474.2197              1474.4151
 Red. masses --      1.1082                 1.0896                 1.0685
 Frc consts  --      1.3999                 1.3952                 1.3685
 IR Inten    --     52.1808                34.1050                63.8809

                     82                     83                     84
                      A                      A                      A
 Frequencies --   1478.2060              1483.4339              1497.2878
 Red. masses --      5.8659                 4.6802                 5.4064
 Frc consts  --      7.5518                 6.0681                 7.1411
 IR Inten    --    237.9152                70.1457               556.6570

                     85                     86                     87
                      A                      A                      A
 Frequencies --   1535.5200              1569.6895              1599.7901
 Red. masses --      6.4278                 7.7873                 7.2810
 Frc consts  --      8.9295                11.3049                10.9792
 IR Inten    --      8.1834               680.0639                39.6722

                     88                     89                     90
                      A                      A                      A
 Frequencies --   1601.1125              1753.6771              1754.4268
 Red. masses --      6.5619                11.3199                11.3091
 Frc consts  --      9.9112                20.5112                20.5093
 IR Inten    --     95.1601               324.3774               491.9955

                     91                     92                     93
                      A                      A                      A
 Frequencies --   2993.1139              2993.9950              3089.3824
 Red. masses --      1.0550                 1.0547                 1.0772
 Frc consts  --      5.5685                 5.5702                 6.0573
 IR Inten    --   1703.1235               346.1828              1362.9303

                     94                     95                     96
                      A                      A                      A
 Frequencies --   3089.8471              3138.6757              3138.7046
 Red. masses --      1.0775                 1.1054                 1.1054
 Frc consts  --      6.0610                 6.4162                 6.4162
 IR Inten    --     17.7585                70.9139                10.6248

                     97                     98                     99
                      A                      A                      A
 Frequencies --   3164.3626              3164.6083              3182.0492
 Red. masses --      1.0863                 1.0863                 1.0897
 Frc consts  --      6.4085                 6.4098                 6.5007
 IR Inten    --      3.2044                 5.6738                42.3962

                    100                    101                    102
                      A                      A                      A
 Frequencies --   3182.5180              3185.6911              3186.2422
 Red. masses --      1.0898                 1.0935                 1.0935
 Frc consts  --      6.5037                 6.5387                 6.5407
 IR Inten    --      4.6331                31.1584                39.9524

 - Thermochemistry -
 -------------------
 Temperature   298.150 Kelvin.  Pressure   1.00000 Atm.
 Atom     1 has atomic number  6 and mass  12.00000

 Molecular mass:   324.06339 amu.
 Principal axes and moments of inertia in atomic units:
                           1         2         3
     Eigenvalues --  2648.61896********************
           X            0.98852   0.11917   0.09286
           Y           -0.10436   0.98306  -0.15067
           Z           -0.10924   0.13925   0.98421
 This molecule is an asymmetric top.
 Rotational symmetry number  1.
 Warning -- assumption of classical behavior for rotation
           may cause significant error
 Rotational temperatures (Kelvin)      0.03270     0.00449     0.00405
 Rotational constants (GHZ):           0.68139     0.09347     0.08440
 Zero-point vibrational energy     672169.3 (Joules/Mol)
                                  160.65233 (Kcal/Mol)
 Warning -- explicit consideration of  33 degrees of freedom as
           vibrations may cause significant error
 Vibrational temperatures:     26.04    34.47    55.28    77.84    83.19
          (Kelvin)             98.59   100.02   116.95   119.42   201.32
                              218.88   237.20   259.90   290.37   334.11
                              354.54   408.81   438.64   492.17   542.92
                              565.48   569.77   594.02   608.95   657.74
                              666.41   683.57   699.40   793.85   803.08
                              817.90   860.60   876.10   909.97   924.84
                              966.29   988.50  1015.62  1023.17  1030.82
                             1082.59  1097.18  1108.05  1136.42  1182.36
                             1250.83  1303.56  1329.82  1337.21  1347.25
                             1366.89  1395.31  1401.05  1436.79  1465.01
                             1466.64  1503.03  1503.73  1561.86  1592.66
                             1609.53  1612.69  1698.98  1725.61  1726.06
                             1733.65  1762.47  1766.53  1781.73  1890.32
                             1932.33  1950.55  1973.80  1974.69  1985.47
                             2083.05  2105.27  2106.67  2106.73  2121.07
                             2121.35  2126.81  2134.33  2154.26  2209.27
                             2258.43  2301.74  2303.64  2523.15  2524.23
                             4306.42  4307.69  4444.93  4445.60  4515.85
                             4515.90  4552.81  4553.17  4578.26  4578.93
                             4583.50  4584.29

 Zero-point correction=                           0.256016 (Hartree/Particle)
 Thermal correction to Energy=                    0.277130
 Thermal correction to Enthalpy=                  0.278074
 Thermal correction to Gibbs Free Energy=         0.202885
 Sum of electronic and zero-point Energies=          -1144.583195
 Sum of electronic and thermal Energies=             -1144.562081
 Sum of electronic and thermal Enthalpies=           -1144.561136
 Sum of electronic and thermal Free Energies=        -1144.636325

                     E (Thermal)             CV                S
                      KCal/Mol        Cal/Mol-Kelvin    Cal/Mol-Kelvin
 Total                  173.902             78.839            158.248
 Electronic               0.000              0.000              0.000
 Translational            0.889              2.981             43.223
 Rotational               0.889              2.981             35.346
 Vibrational            172.124             72.877             79.680
 Vibration     1          0.593              1.986              6.833
 Vibration     2          0.593              1.985              6.276
 Vibration     3          0.594              1.982              5.339
 Vibration     4          0.596              1.976              4.662
 Vibration     5          0.596              1.974              4.530
 Vibration     6          0.598              1.969              4.195
 Vibration     7          0.598              1.969              4.167
 Vibration     8          0.600              1.962              3.860
 Vibration     9          0.600              1.961              3.819
 Vibration    10          0.615              1.913              2.805
 Vibration    11          0.619              1.900              2.645
 Vibration    12          0.623              1.886              2.493
 Vibration    13          0.630              1.866              2.322
 Vibration    14          0.639              1.837              2.116
 Vibration    15          0.653              1.792              1.862
 Vibration    16          0.661              1.769              1.756
 Vibration    17          0.683              1.703              1.509
 Vibration    18          0.696              1.664              1.390
 Vibration    19          0.721              1.591              1.202
 Vibration    20          0.748              1.518              1.050
 Vibration    21          0.760              1.485              0.989
 Vibration    22          0.763              1.479              0.977
 Vibration    23          0.777              1.442              0.917
 Vibration    24          0.785              1.420              0.881
 Vibration    25          0.815              1.345              0.774
 Vibration    26          0.821              1.332              0.757
 Vibration    27          0.832              1.305              0.723
 Vibration    28          0.842              1.281              0.694
 Vibration    29          0.907              1.136              0.541
 Vibration    30          0.914              1.122              0.528
 Vibration    31          0.924              1.099              0.507
 Vibration    32          0.956              1.036              0.453
 Vibration    33          0.968              1.013              0.435

                           ! Non-Optimized Parameters !
 Normal termination of Gaussian 16 at Thu Dec 21 13:34:09 2023.
