 Gaussian 16, Revision A.03,
 Gaussian 16:  ES64L-G16RevA.03 25-Dec-2016

 ----------------------------------------------------------------
 #P UB3LYP/6-311++G(d,p) SCRF=(PCM,Solvent=n,n-DiMethylFormamide)
 ----------------------------------------------------------------

 -------
 Reduced
 -------
 Symbolic Z-matrix:
 Charge = -2 Multiplicity = 1

                         Standard orientation:
 ---------------------------------------------------------------------
 Center     Atomic      Atomic             Coordinates (Angstroms)
 Number     Number       Type             X           Y           Z
 ---------------------------------------------------------------------
      1          6           0       -2.347123    2.297578   -1.277646
      2          6           0       -1.502321    2.110727   -0.000271
      3          6           0       -2.346315    2.297770    1.277663
      4          6           0       -0.625543    0.863495   -0.000124
      5          6           0       -1.057175   -0.470620   -0.000021
      6         35           0       -3.004573   -0.906889    0.000028
      7          6           0       -0.254149   -1.653093    0.000150
      8          8           0       -0.700581   -2.860302    0.000429
      9          6           0        1.163042   -1.348694   -0.000108
     10          6           0        1.598147   -0.025657    0.000067
     11         35           0        3.557160    0.314823    0.000009
     12          6           0        0.801847    1.157801    0.000061
     13          8           0        1.269871    2.357867    0.000096
     14          6           0        2.099183   -2.529451   -0.000464
     15          1           0       -3.118010    1.530516   -1.381458
     16          1           0       -1.700919    2.252160   -2.160008
     17          1           0       -2.840406    3.282291   -1.270304
     18          1           0       -0.758791    2.913851   -0.000534
     19          1           0       -3.116371    1.529997    1.382746
     20          1           0       -1.699334    2.253531    2.159535
     21          1           0       -2.840543    3.282013    1.270138
     22          1           0        2.756158   -2.535284    0.880197
     23          1           0        1.487017   -3.433894   -0.002548
     24          1           0        2.758782   -2.532536   -0.879111
 ---------------------------------------------------------------------

 SCF Done:  E(UB3LYP) =  -5686.21846554     A.U. after   16 cycles

 The electronic state is 1-A.
 Alpha  occ. eigenvalues -- -482.79884-482.79568 -62.45164 -62.44855 -56.27157
 Alpha  occ. eigenvalues --  -56.26850 -56.26845 -56.26814 -56.26534 -56.26502
 Alpha  occ. eigenvalues --  -19.02012 -19.01929 -10.18339 -10.18254 -10.18103
 Alpha  occ. eigenvalues --  -10.17946 -10.15033 -10.14528 -10.14390 -10.14066
 Alpha  occ. eigenvalues --  -10.14066 -10.14040  -8.66113  -8.65810  -6.49107
 Alpha  occ. eigenvalues --   -6.48812  -6.48073  -6.47982  -6.47767  -6.47674
 Alpha  occ. eigenvalues --   -2.60224  -2.59946  -2.59927  -2.59878  -2.59648
 Alpha  occ. eigenvalues --   -2.59577  -2.59055  -2.59055  -2.58747  -2.58746
 Alpha  occ. eigenvalues --   -0.94160  -0.93764  -0.81260  -0.78890  -0.75846
 Alpha  occ. eigenvalues --   -0.74008  -0.71291  -0.66651  -0.65061  -0.64178
 Alpha  occ. eigenvalues --   -0.57424  -0.52312  -0.51336  -0.46559  -0.43155
 Alpha  occ. eigenvalues --   -0.41645  -0.40420  -0.40390  -0.39305  -0.37667
 Alpha  occ. eigenvalues --   -0.37357  -0.36572  -0.35914  -0.35337  -0.34662
 Alpha  occ. eigenvalues --   -0.32740  -0.32676  -0.32236  -0.31797  -0.29796
 Alpha  occ. eigenvalues --   -0.28382  -0.27672  -0.26397  -0.25673  -0.22708
 Alpha  occ. eigenvalues --   -0.20405  -0.20366  -0.19745  -0.12348
 Alpha virt. eigenvalues --   -0.00835  -0.00048   0.00737   0.01229   0.01565
 Alpha virt. eigenvalues --    0.02696   0.02709   0.03158   0.03764   0.04101
 Alpha virt. eigenvalues --    0.05065   0.05365   0.05563   0.05997   0.06139

  Beta  occ. eigenvalues -- -482.79884-482.79568 -62.45164 -62.44855 -56.27157
  Beta  occ. eigenvalues --  -56.26850 -56.26845 -56.26814 -56.26534 -56.26502
  Beta  occ. eigenvalues --  -19.02012 -19.01929 -10.18339 -10.18254 -10.18103
  Beta  occ. eigenvalues --  -10.17946 -10.15033 -10.14528 -10.14390 -10.14066
  Beta  occ. eigenvalues --  -10.14066 -10.14040  -8.66113  -8.65810  -6.49107
  Beta  occ. eigenvalues --   -6.48812  -6.48073  -6.47982  -6.47767  -6.47674
  Beta  occ. eigenvalues --   -2.60224  -2.59946  -2.59927  -2.59878  -2.59648
  Beta  occ. eigenvalues --   -2.59577  -2.59055  -2.59055  -2.58747  -2.58746
  Beta  occ. eigenvalues --   -0.94160  -0.93764  -0.81260  -0.78890  -0.75846
  Beta  occ. eigenvalues --   -0.74008  -0.71291  -0.66651  -0.65061  -0.64178
  Beta  occ. eigenvalues --   -0.57424  -0.52312  -0.51336  -0.46559  -0.43155
  Beta  occ. eigenvalues --   -0.41645  -0.40420  -0.40390  -0.39305  -0.37667
  Beta  occ. eigenvalues --   -0.37357  -0.36572  -0.35914  -0.35337  -0.34662
  Beta  occ. eigenvalues --   -0.32740  -0.32676  -0.32236  -0.31797  -0.29796
  Beta  occ. eigenvalues --   -0.28382  -0.27672  -0.26397  -0.25673  -0.22708
  Beta  occ. eigenvalues --   -0.20405  -0.20366  -0.19745  -0.12348
  Beta virt. eigenvalues --   -0.00835  -0.00048   0.00737   0.01229   0.01565
  Beta virt. eigenvalues --    0.02696   0.02709   0.03158   0.03764   0.04101
  Beta virt. eigenvalues --    0.05065   0.05365   0.05563   0.05997   0.06139

 Mulliken charges and spin densities:
               1          2
     1  C   -0.702524   0.000000
     2  C    0.275944  -0.000000
     3  C   -0.702807  -0.000000
     4  C    0.897323   0.000000
     5  C    0.149121   0.000000
     6  Br  -0.224301  -0.000000
     7  C   -1.202038  -0.000000
     8  O   -0.609512   0.000000
     9  C    0.808708   0.000000
    10  C   -0.017702  -0.000000
    11  Br  -0.276521   0.000000
    12  C   -0.929069  -0.000000
    13  O   -0.594965  -0.000000
    14  C   -0.369028  -0.000000
    15  H    0.141308   0.000000
    16  H    0.141533  -0.000000
    17  H    0.132188   0.000000
    18  H    0.204406   0.000000
    19  H    0.141308   0.000000
    20  H    0.141550  -0.000000
    21  H    0.132185   0.000000
    22  H    0.144983  -0.000000
    23  H    0.173171   0.000000
    24  H    0.144740  -0.000000
 Sum of Mulliken charges =  -2.00000   0.00000

 Dipole moment (field-independent basis, Debye):
    X=             -2.2547    Y=              2.4138    Z=             -0.0021  Tot=              3.3030
 Quadrupole moment (field-independent basis, Debye-Ang):
   XX=           -155.4159   YY=           -168.4992   ZZ=           -119.7319
   XY=            -21.9848   XZ=             -0.0003   YZ=              0.0034

 Normal termination of Gaussian 16 at Sun Jan 21 07:35:10 2024.
