 Gaussian 16, Revision A.03,
 Gaussian 16:  ES64L-G16RevA.03 25-Dec-2016

 ----------------------------------------------------------------
 #P UB3LYP/6-311++G(d,p) SCRF=(PCM,Solvent=n,n-DiMethylFormamide)
 ----------------------------------------------------------------

 ------------------
 Radical PCM in DMF
 ------------------
 Symbolic Z-matrix:
 Charge = -1 Multiplicity = 2

                         Standard orientation:
 ---------------------------------------------------------------------
 Center     Atomic      Atomic             Coordinates (Angstroms)
 Number     Number       Type             X           Y           Z
 ---------------------------------------------------------------------
      1          8           0        1.302001    2.477914   -0.350411
      2          6           0        0.710118    1.366353   -0.196597
      3          6           0       -0.718075    1.289840   -0.046403
      4          6           0       -1.443404    0.115994    0.043231
      5          7           0       -2.851359    0.112296    0.083543
      6          6           0       -3.552880    1.367983   -0.133282
      7          6           0       -5.082901    1.149983   -0.153490
      8          6           0       -5.428775   -0.263692   -0.631574
      9          6           0       -4.843729   -1.304324    0.347814
     10          6           0       -3.553837   -0.777190    1.007880
     11          6           0       -0.731136   -1.169618   -0.016073
     12          8           0       -1.330893   -2.288298   -0.007670
     13          6           0        0.702176   -1.090791   -0.088434
     14          6           0        1.428648    0.084388   -0.169411
     15          7           0        2.825447    0.084115   -0.326723
     16          6           0        3.484911   -1.180724   -0.615378
     17          6           0        4.971706   -0.958272   -0.899354
     18          6           0        5.703178   -0.406005    0.344764
     19          6           0        4.738298    0.427597    1.215103
     20          6           0        3.649334    1.093174    0.363515
     21          1           0       -1.209621    2.255026   -0.037409
     22          1           0       -3.217911    1.780749   -1.090871
     23          1           0       -3.305221    2.121438    0.638735
     24          1           0       -5.544987    1.911478   -0.790677
     25          1           0       -5.495934    1.296996    0.851674
     26          1           0       -6.513624   -0.386488   -0.728642
     27          1           0       -5.000763   -0.416777   -1.627118
     28          1           0       -5.575931   -1.543943    1.129766
     29          1           0       -4.618500   -2.232307   -0.184889
     30          1           0       -2.895804   -1.605058    1.252713
     31          1           0       -3.796198   -0.231911    1.940628
     32          1           0        1.193359   -2.056224   -0.095723
     33          1           0        3.383882   -1.908479    0.213272
     34          1           0        2.994040   -1.637568   -1.480722
     35          1           0        5.424954   -1.898820   -1.229450
     36          1           0        5.061850   -0.253049   -1.732134
     37          1           0        6.554107    0.207545    0.027856
     38          1           0        6.118748   -1.230818    0.934998
     39          1           0        5.286636    1.195734    1.771945
     40          1           0        4.256019   -0.214797    1.960016
     41          1           0        2.999823    1.713627    0.973624
     42          1           0        4.111807    1.773656   -0.364556
 ---------------------------------------------------------------------

 SCF Done:  E(UB3LYP) =  -883.247519933     A.U. after   19 cycles

 The electronic state is 2-A.
 Alpha  occ. eigenvalues --  -19.05977 -19.05899 -14.31532 -14.31367 -10.20855
 Alpha  occ. eigenvalues --  -10.20826 -10.19264 -10.19183 -10.19064 -10.18980
 Alpha  occ. eigenvalues --  -10.18453 -10.18032 -10.16301 -10.16265 -10.16138
 Alpha  occ. eigenvalues --  -10.16042 -10.15925 -10.15669 -10.13933 -10.13795
 Alpha  occ. eigenvalues --   -0.98641  -0.98277  -0.93171  -0.93065  -0.81349
 Alpha  occ. eigenvalues --   -0.79602  -0.77269  -0.74954  -0.74626  -0.71793
 Alpha  occ. eigenvalues --   -0.67701  -0.65452  -0.63566  -0.62681  -0.61784
 Alpha  occ. eigenvalues --   -0.58005  -0.55794  -0.53331  -0.52415  -0.50576
 Alpha  occ. eigenvalues --   -0.49513  -0.49130  -0.48431  -0.46903  -0.44779
 Alpha  occ. eigenvalues --   -0.43667  -0.42757  -0.42332  -0.41249  -0.40848
 Alpha  occ. eigenvalues --   -0.40178  -0.39979  -0.39699  -0.39400  -0.38778
 Alpha  occ. eigenvalues --   -0.38048  -0.37770  -0.36904  -0.36166  -0.35665
 Alpha  occ. eigenvalues --   -0.35528  -0.34702  -0.33512  -0.32982  -0.31872
 Alpha  occ. eigenvalues --   -0.31426  -0.31363  -0.31195  -0.27929  -0.27607
 Alpha  occ. eigenvalues --   -0.22889  -0.22606  -0.21368  -0.19082  -0.13600
 Alpha virt. eigenvalues --   -0.00680  -0.00113   0.00904   0.00918   0.01360
 Alpha virt. eigenvalues --    0.01457   0.01712   0.02078   0.02762   0.03279
 Alpha virt. eigenvalues --    0.03504   0.03873   0.03973   0.04363   0.04625

  Beta  occ. eigenvalues --  -19.05387 -19.05363 -14.31369 -14.31236 -10.20655
  Beta  occ. eigenvalues --  -10.20625 -10.19083 -10.19074 -10.18994 -10.18988
  Beta  occ. eigenvalues --  -10.18451 -10.18027 -10.16299 -10.16264 -10.16139
  Beta  occ. eigenvalues --  -10.16036 -10.15925 -10.15668 -10.13963 -10.13839
  Beta  occ. eigenvalues --   -0.97695  -0.97295  -0.92883  -0.92718  -0.81009
  Beta  occ. eigenvalues --   -0.79523  -0.77054  -0.74923  -0.74602  -0.71633
  Beta  occ. eigenvalues --   -0.67034  -0.65357  -0.63499  -0.62634  -0.61443
  Beta  occ. eigenvalues --   -0.57798  -0.55496  -0.53240  -0.52327  -0.50485
  Beta  occ. eigenvalues --   -0.49381  -0.48941  -0.48175  -0.46740  -0.44616
  Beta  occ. eigenvalues --   -0.43550  -0.42539  -0.42182  -0.40989  -0.40688
  Beta  occ. eigenvalues --   -0.40038  -0.39838  -0.39600  -0.38518  -0.38334
  Beta  occ. eigenvalues --   -0.37737  -0.37404  -0.36450  -0.36075  -0.35605
  Beta  occ. eigenvalues --   -0.34482  -0.34020  -0.32981  -0.32769  -0.31748
  Beta  occ. eigenvalues --   -0.31390  -0.31307  -0.31038  -0.27210  -0.25654
  Beta  occ. eigenvalues --   -0.22363  -0.22068  -0.20000  -0.18233
  Beta virt. eigenvalues --   -0.07022  -0.00656  -0.00094   0.00932   0.01039
  Beta virt. eigenvalues --    0.01374   0.01599   0.01750   0.02766   0.02918
  Beta virt. eigenvalues --    0.03293   0.03567   0.03958   0.04289   0.04381

 Mulliken charges and spin densities:
               1          2
     1  O   -0.512020   0.213592
     2  C   -0.265793   0.147112
     3  C    0.113927  -0.065208
     4  C   -0.362551   0.178439
     5  N    0.355039   0.045273
     6  C   -0.123168   0.002182
     7  C   -0.568731  -0.002604
     8  C   -0.245586  -0.001140
     9  C   -0.302569   0.012686
    10  C   -0.410845  -0.002645
    11  C   -0.081935   0.129327
    12  O   -0.525385   0.196461
    13  C    0.080810  -0.098898
    14  C   -0.404084   0.163854
    15  N    0.252142   0.057617
    16  C   -0.087927  -0.002025
    17  C   -0.497155  -0.004382
    18  C   -0.498263   0.001336
    19  C   -0.333048  -0.000831
    20  C   -0.212728   0.016255
    21  H    0.211940  -0.003322
    22  H    0.168325   0.000876
    23  H    0.130572   0.007005
    24  H    0.167878   0.000310
    25  H    0.143884  -0.000600
    26  H    0.176766   0.000086
    27  H    0.135673   0.000467
    28  H    0.132336   0.001293
    29  H    0.146565   0.000593
    30  H    0.204018  -0.007620
    31  H    0.162084   0.007861
    32  H    0.205004  -0.002858
    33  H    0.126754   0.007827
    34  H    0.187633   0.001304
    35  H    0.170722   0.000460
    36  H    0.169957   0.000309
    37  H    0.148474  -0.000099
    38  H    0.147214  -0.000157
    39  H    0.171896   0.001275
    40  H    0.157650   0.000048
    41  H    0.202428  -0.003923
    42  H    0.162097   0.002464
 Sum of Mulliken charges =  -1.00000   1.00000

 Dipole moment (field-independent basis, Debye):
    X=              0.7889    Y=             -0.3686    Z=              1.8097  Tot=              2.0083
 Quadrupole moment (field-independent basis, Debye-Ang):
   XX=           -118.9478   YY=           -156.8366   ZZ=           -127.4187
   XY=            -19.8754   XZ=              0.6796   YZ=              2.5414

 Normal termination of Gaussian 16 at Wed Jan 24 23:00:19 2024.
