 Gaussian 16, Revision A.03,
 Gaussian 16:  ES64L-G16RevA.03 25-Dec-2016

 --------------------------------------
 #P UB3LYP/6-311++G(d,p) nosym opt freq
 --------------------------------------

 --------
 Oxidized
 --------
 Symbolic Z-matrix:
 Charge =  0 Multiplicity = 1

 SCF Done:  E(UB3LYP) =  -1144.83263572     A.U. after   16 cycles
 SCF Done:  E(UB3LYP) =  -1144.84109731     A.U. after   14 cycles
 SCF Done:  E(UB3LYP) =  -1144.84155912     A.U. after   12 cycles
 SCF Done:  E(UB3LYP) =  -1144.84146232     A.U. after   12 cycles
 SCF Done:  E(UB3LYP) =  -1144.84167299     A.U. after   12 cycles
 SCF Done:  E(UB3LYP) =  -1144.84174192     A.U. after   12 cycles
 SCF Done:  E(UB3LYP) =  -1144.84186985     A.U. after   13 cycles
 SCF Done:  E(UB3LYP) =  -1144.84198327     A.U. after   16 cycles
 SCF Done:  E(UB3LYP) =  -1144.84225239     A.U. after   12 cycles
 SCF Done:  E(UB3LYP) =  -1144.84242840     A.U. after   12 cycles
 SCF Done:  E(UB3LYP) =  -1144.84247702     A.U. after   12 cycles
 SCF Done:  E(UB3LYP) =  -1144.84251884     A.U. after   11 cycles
 SCF Done:  E(UB3LYP) =  -1144.84252658     A.U. after   11 cycles
 SCF Done:  E(UB3LYP) =  -1144.84253107     A.U. after   11 cycles
 SCF Done:  E(UB3LYP) =  -1144.84253468     A.U. after   11 cycles
 SCF Done:  E(UB3LYP) =  -1144.84253694     A.U. after   11 cycles
 SCF Done:  E(UB3LYP) =  -1144.84253784     A.U. after   11 cycles
 SCF Done:  E(UB3LYP) =  -1144.84253792     A.U. after    9 cycles
 SCF Done:  E(UB3LYP) =  -1144.84253794     A.U. after    8 cycles
 Optimization completed.
    -- Stationary point found.
 Normal termination of Gaussian 16 at Thu Dec 21 10:07:25 2023.

 ----------------------------------------------------------------------
 #P Geom=AllCheck Guess=TCheck SCRF=Check GenChk UB3LYP/6-311++G(d,p) F
 req
 ----------------------------------------------------------------------

 Structure from the checkpoint file:  "148.chk"
 --------
 Oxidized
 --------
 Charge =  0 Multiplicity = 1

                          Input orientation:
 ---------------------------------------------------------------------
 Center     Atomic      Atomic             Coordinates (Angstroms)
 Number     Number       Type             X           Y           Z
 ---------------------------------------------------------------------
      1          6           0       -3.015298    3.770292    0.407516
      2          6           0       -4.271831    3.195411    0.522565
      3          6           0       -4.440281    1.809646    0.478032
      4          6           0       -1.895240    2.952656    0.249328
      5          6           0       -2.045872    1.555767    0.208256
      6          6           0       -3.323991    0.999973    0.323370
      7          6           0       -0.552624    3.592719    0.125950
      8          6           0        0.623583    2.687099   -0.028633
      9          6           0        0.470656    1.290455   -0.069502
     10          6           0       -0.871924    0.653003    0.041072
     11          6           0        1.895244    3.252574   -0.134479
     12          6           0        3.000925    2.428660   -0.280287
     13          6           0        2.866536    1.039296   -0.328647
     14          6           0        1.600868    0.480768   -0.220349
     15          8           0       -0.422042    4.804978    0.151160
     16          8           0       -1.004706   -0.559582   -0.003732
     17          1           0       -3.423871   -0.077615    0.287017
     18          1           0        1.466292   -0.593159   -0.252986
     19          1           0       -2.895684    4.845668    0.435564
     20          1           0        2.008728    4.328596   -0.105787
     21          1           0        3.738346    0.410214   -0.442030
     22          8           0        4.226440    3.060227   -0.458930
     23          6           0        5.327992    2.687774    0.281687
     24          6           0        6.509902    3.528945   -0.111844
     25          8           0        5.307768    1.825293    1.113605
     26          8           0       -5.350033    4.069728    0.598466
     27          1           0        6.301260    4.580116    0.100457
     28          1           0        6.691025    3.441994   -1.185282
     29          1           0        7.385661    3.204583    0.445713
     30          6           0       -6.317139    3.916148    1.568924
     31          6           0       -7.356646    4.991834    1.421711
     32          8           0       -6.295093    3.049731    2.396698
     33          1           0       -5.426493    1.376497    0.569912
     34          1           0       -6.895204    5.971863    1.563989
     35          1           0       -8.140305    4.840288    2.160596
     36          1           0       -7.777159    4.971729    0.414075
 ---------------------------------------------------------------------

 SCF Done:  E(UB3LYP) =  -1144.84253794     A.U. after    1 cycles

 Alpha  occ. eigenvalues --  -19.19836 -19.19834 -19.13833 -19.13832 -19.13254
 Alpha  occ. eigenvalues --  -19.12768 -10.33096 -10.33095 -10.28499 -10.28095
 Alpha  occ. eigenvalues --  -10.26954 -10.26953 -10.21627 -10.21627 -10.21165
 Alpha  occ. eigenvalues --  -10.21164 -10.20800 -10.20800 -10.20536 -10.20536
 Alpha  occ. eigenvalues --  -10.20515 -10.20515 -10.19957 -10.19957  -1.13766
 Alpha  occ. eigenvalues --   -1.13765  -1.06695  -1.06164  -1.05729  -1.05726
 Alpha  occ. eigenvalues --   -0.90222  -0.89185  -0.82643  -0.80241  -0.79434
 Alpha  occ. eigenvalues --   -0.78687  -0.77234  -0.75892  -0.70371  -0.68382
 Alpha  occ. eigenvalues --   -0.67741  -0.63576  -0.63353  -0.60774  -0.59221
 Alpha  occ. eigenvalues --   -0.55371  -0.54493  -0.52519  -0.51844  -0.51486
 Alpha  occ. eigenvalues --   -0.50737  -0.50590  -0.50482  -0.48869  -0.48515
 Alpha  occ. eigenvalues --   -0.46862  -0.46332  -0.45874  -0.45813  -0.45732
 Alpha  occ. eigenvalues --   -0.45525  -0.43830  -0.43721  -0.43439  -0.43324
 Alpha  occ. eigenvalues --   -0.41872  -0.41693  -0.41613  -0.40580  -0.39863
 Alpha  occ. eigenvalues --   -0.39529  -0.38462  -0.38349  -0.36870  -0.35014
 Alpha  occ. eigenvalues --   -0.34590  -0.30883  -0.30834  -0.28901  -0.28732
 Alpha  occ. eigenvalues --   -0.28618  -0.27694  -0.27497  -0.27125
 Alpha virt. eigenvalues --   -0.11966  -0.07822  -0.04629  -0.03503  -0.02492
 Alpha virt. eigenvalues --   -0.01549  -0.01465  -0.01325   0.00202   0.01038
 Alpha virt. eigenvalues --    0.01168   0.02158   0.02289   0.02878   0.02898

  Beta  occ. eigenvalues --  -19.19836 -19.19834 -19.13833 -19.13832 -19.13254
  Beta  occ. eigenvalues --  -19.12768 -10.33096 -10.33095 -10.28499 -10.28095
  Beta  occ. eigenvalues --  -10.26954 -10.26953 -10.21627 -10.21627 -10.21165
  Beta  occ. eigenvalues --  -10.21164 -10.20800 -10.20800 -10.20536 -10.20536
  Beta  occ. eigenvalues --  -10.20515 -10.20515 -10.19957 -10.19957  -1.13766
  Beta  occ. eigenvalues --   -1.13765  -1.06695  -1.06164  -1.05729  -1.05726
  Beta  occ. eigenvalues --   -0.90222  -0.89185  -0.82643  -0.80241  -0.79434
  Beta  occ. eigenvalues --   -0.78687  -0.77234  -0.75892  -0.70371  -0.68382
  Beta  occ. eigenvalues --   -0.67741  -0.63576  -0.63353  -0.60774  -0.59221
  Beta  occ. eigenvalues --   -0.55371  -0.54493  -0.52519  -0.51844  -0.51486
  Beta  occ. eigenvalues --   -0.50737  -0.50590  -0.50482  -0.48869  -0.48515
  Beta  occ. eigenvalues --   -0.46862  -0.46332  -0.45874  -0.45813  -0.45732
  Beta  occ. eigenvalues --   -0.45525  -0.43830  -0.43721  -0.43439  -0.43324
  Beta  occ. eigenvalues --   -0.41872  -0.41693  -0.41613  -0.40580  -0.39863
  Beta  occ. eigenvalues --   -0.39529  -0.38462  -0.38349  -0.36870  -0.35014
  Beta  occ. eigenvalues --   -0.34590  -0.30883  -0.30834  -0.28901  -0.28732
  Beta  occ. eigenvalues --   -0.28618  -0.27694  -0.27497  -0.27125
  Beta virt. eigenvalues --   -0.11966  -0.07822  -0.04629  -0.03503  -0.02492
  Beta virt. eigenvalues --   -0.01549  -0.01465  -0.01325   0.00202   0.01038
  Beta virt. eigenvalues --    0.01168   0.02158   0.02289   0.02878   0.02898

 Mulliken charges and spin densities:
               1          2
     1  C    0.026335  -0.000000
     2  C   -0.559916  -0.000000
     3  C    0.069087   0.000000
     4  C    0.469711   0.000000
     5  C    0.359056  -0.000000
     6  C    0.204808  -0.000000
     7  C   -0.935650  -0.000000
     8  C    0.469816   0.000000
     9  C    0.358934  -0.000000
    10  C   -0.769809   0.000000
    11  C    0.026172   0.000000
    12  C   -0.559028  -0.000000
    13  C    0.068464   0.000000
    14  C    0.203777  -0.000000
    15  O   -0.199404   0.000000
    16  O   -0.206603  -0.000000
    17  H    0.195293  -0.000000
    18  H    0.195268   0.000000
    19  H    0.208111  -0.000000
    20  H    0.208104  -0.000000
    21  H    0.217686   0.000000
    22  O   -0.027484   0.000000
    23  C    0.114681   0.000000
    24  C   -0.543472  -0.000000
    25  O   -0.219312   0.000000
    26  O   -0.027423  -0.000000
    27  H    0.181054   0.000000
    28  H    0.180515   0.000000
    29  H    0.180188  -0.000000
    30  C    0.114493  -0.000000
    31  C   -0.543742   0.000000
    32  O   -0.219209   0.000000
    33  H    0.217672  -0.000000
    34  H    0.181203   0.000000
    35  H    0.180159  -0.000000
    36  H    0.180466   0.000000
 Sum of Mulliken charges =  -0.00000   0.00000

 Dipole moment (field-independent basis, Debye):
    X=              0.0163    Y=              2.5485    Z=             -2.2863  Tot=              3.4238
 Quadrupole moment (field-independent basis, Debye-Ang):
   XX=            -97.8659   YY=           -128.2445   ZZ=           -145.7321
   XY=             -5.6888   XZ=             -3.2222   YZ=              0.2058

  Exact polarizability: 365.742 -14.204 233.437 -26.196   1.953 131.134
 Approx polarizability: 453.809  -2.052 446.223 -27.668  -8.148 214.272

                      1                      2                      3
                      A                      A                      A
 Frequencies --     17.6801                28.1457                37.5547
 Red. masses --      8.5353                 6.6618                 5.4167
 Frc consts  --      0.0016                 0.0031                 0.0045
 IR Inten    --      0.5547                 0.3319                 6.9384

                      4                      5                      6
                      A                      A                      A
 Frequencies --     47.7796                51.2564                67.2082
 Red. masses --      2.7764                 2.3655                 1.8351
 Frc consts  --      0.0037                 0.0037                 0.0049
 IR Inten    --      0.0787                 1.1743                 0.8486

                      7                      8                      9
                      A                      A                      A
 Frequencies --     71.0791                77.4833                85.5164
 Red. masses --      4.9536                 1.5331                 2.1312
 Frc consts  --      0.0147                 0.0054                 0.0092
 IR Inten    --      0.3572                 0.4943                 1.8856

                     10                     11                     12
                      A                      A                      A
 Frequencies --    133.2617               136.8312               147.5707
 Red. masses --      5.6972                 4.8232                 9.3556
 Frc consts  --      0.0596                 0.0532                 0.1200
 IR Inten    --      2.0535                 3.6136                 6.2586

                     13                     14                     15
                      A                      A                      A
 Frequencies --    180.1615               190.2955               231.9357
 Red. masses --      8.6501                 7.5903                 5.0237
 Frc consts  --      0.1654                 0.1619                 0.1592
 IR Inten    --      0.3651                 0.2836                 1.8232

                     16                     17                     18
                      A                      A                      A
 Frequencies --    247.6530               292.3467               293.2531
 Red. masses --     10.2135                 4.9587                 5.8877
 Frc consts  --      0.3691                 0.2497                 0.2983
 IR Inten    --      2.5092                 1.8641                 2.3284

                     19                     20                     21
                      A                      A                      A
 Frequencies --    333.6669               393.3037               396.6331
 Red. masses --      5.7673                 4.4243                 6.4200
 Frc consts  --      0.3783                 0.4032                 0.5951
 IR Inten    --      0.2478                 2.4091                 2.2037

                     22                     23                     24
                      A                      A                      A
 Frequencies --    401.8133               417.8927               421.3267
 Red. masses --      8.0589                 6.4893                 3.6852
 Frc consts  --      0.7666                 0.6677                 0.3854
 IR Inten    --     42.1026                 0.1258                 0.6519

                     25                     26                     27
                      A                      A                      A
 Frequencies --    453.2275               461.7615               478.7200
 Red. masses --      3.2826                 5.5820                 9.4835
 Frc consts  --      0.3973                 0.7013                 1.2805
 IR Inten    --      0.4028                11.6201                 0.9535

                     28                     29                     30
                      A                      A                      A
 Frequencies --    513.9608               568.1431               571.7396
 Red. masses --      5.7288                 4.3169                 4.9334
 Frc consts  --      0.8916                 0.8210                 0.9501
 IR Inten    --      8.5029                 4.9632                 6.4961

                     31                     32                     33
                      A                      A                      A
 Frequencies --    583.9885               593.9641               598.4762
 Red. masses --      5.0313                 2.8751                 3.1099
 Frc consts  --      1.0110                 0.5976                 0.6563
 IR Inten    --      4.9139                 2.0538                 2.4541

                     34                     35                     36
                      A                      A                      A
 Frequencies --    654.8958               660.6923               687.6473
 Red. masses --      6.8862                 4.3004                 4.5985
 Frc consts  --      1.7401                 1.1060                 1.2811
 IR Inten    --     12.7926                11.5537                13.5894

                     37                     38                     39
                      A                      A                      A
 Frequencies --    692.9923               710.2026               722.5062
 Red. masses --      6.9254                 6.1455                 4.2103
 Frc consts  --      1.9595                 1.8263                 1.2949
 IR Inten    --      5.0142                 0.3977                 4.1060

                     40                     41                     42
                      A                      A                      A
 Frequencies --    740.0555               771.0524               793.3201
 Red. masses --      5.2324                 7.5498                 4.8752
 Frc consts  --      1.6884                 2.6446                 1.8077
 IR Inten    --     16.8568                16.1387                 0.0127

                     43                     44                     45
                      A                      A                      A
 Frequencies --    803.7542               854.2131               854.3727
 Red. masses --      4.4310                 1.6974                 2.8172
 Frc consts  --      1.6865                 0.7297                 1.2116
 IR Inten    --      0.6262                59.1635                 3.3010

                     46                     47                     48
                      A                      A                      A
 Frequencies --    882.4459               900.2216               937.8417
 Red. masses --      2.2686                 3.3436                 1.6855
 Frc consts  --      1.0408                 1.5965                 0.8734
 IR Inten    --     36.2783               134.5279                25.3570

                     49                     50                     51
                      A                      A                      A
 Frequencies --    938.6641               944.9617               963.7505
 Red. masses --      1.6645                 7.0208                 3.9571
 Frc consts  --      0.8641                 3.6937                 2.1655
 IR Inten    --     17.4107               163.2549                31.0306

                     52                     53                     54
                      A                      A                      A
 Frequencies --    997.4686              1000.7805              1011.9476
 Red. masses --      1.3338                 1.3578                 2.1079
 Frc consts  --      0.7819                 0.8013                 1.2718
 IR Inten    --      0.0813                 3.0525               172.6832

                     55                     56                     57
                      A                      A                      A
 Frequencies --   1020.9745              1034.0946              1063.7927
 Red. masses --      1.8967                 2.0081                 1.7713
 Frc consts  --      1.1649                 1.2652                 1.1810
 IR Inten    --     31.8254                78.1605                 9.0519

                     58                     59                     60
                      A                      A                      A
 Frequencies --   1063.8167              1101.0357              1127.8824
 Red. masses --      1.7720                 2.6428                 1.7901
 Frc consts  --      1.1816                 1.8877                 1.3417
 IR Inten    --      6.2286                11.3702                47.0223

                     61                     62                     63
                      A                      A                      A
 Frequencies --   1156.3971              1190.1637              1191.0722
 Red. masses --      1.5365                 2.1127                 3.6831
 Frc consts  --      1.2106                 1.7632                 3.0785
 IR Inten    --     17.0955                 5.7510               848.3994

                     64                     65                     66
                      A                      A                      A
 Frequencies --   1200.9387              1206.9322              1229.8304
 Red. masses --      2.9903                 4.0176                 1.7304
 Frc consts  --      2.5410                 3.4482                 1.5420
 IR Inten    --   1047.9088               226.5625                 5.1096

                     67                     68                     69
                      A                      A                      A
 Frequencies --   1239.6906              1276.7358              1295.4787
 Red. masses --      4.8331                 1.5606                 2.2816
 Frc consts  --      4.3763                 1.4988                 2.2560
 IR Inten    --     14.4313                 1.2307               186.7332

                     70                     71                     72
                      A                      A                      A
 Frequencies --   1312.2544              1354.6566              1364.4489
 Red. masses --      5.5060                 8.2996                11.0203
 Frc consts  --      5.5863                 8.9736                12.0881
 IR Inten    --    660.4154                38.0196                 2.3521

                     73                     74                     75
                      A                      A                      A
 Frequencies --   1401.0006              1401.1258              1443.0819
 Red. masses --      1.3003                 1.3023                 3.9865
 Frc consts  --      1.5038                 1.5063                 4.8913
 IR Inten    --     73.2958                31.4190                 1.6879

                     76                     77                     78
                      A                      A                      A
 Frequencies --   1457.1486              1470.8791              1470.9046
 Red. masses --      4.7054                 1.0491                 1.0482
 Frc consts  --      5.8865                 1.3373                 1.3362
 IR Inten    --     40.9674                 2.8764                27.6803

                     79                     80                     81
                      A                      A                      A
 Frequencies --   1475.0366              1475.0551              1510.3152
 Red. masses --      1.0456                 1.0456                 3.0161
 Frc consts  --      1.3404                 1.3405                 4.0535
 IR Inten    --     10.8319                10.9141                22.3360

                     82                     83                     84
                      A                      A                      A
 Frequencies --   1516.1364              1603.5138              1616.6719
 Red. masses --      2.8477                 7.6182                 8.8017
 Frc consts  --      3.8567                11.5412                13.5538
 IR Inten    --      5.5431                23.9401                 1.6445

                     85                     86                     87
                      A                      A                      A
 Frequencies --   1628.5565              1634.1350              1718.6928
 Red. masses --      6.6161                 6.4085                12.7249
 Frc consts  --     10.3385                10.0829                22.1463
 IR Inten    --    176.5992                75.5737                12.2918

                     88                     89                     90
                      A                      A                      A
 Frequencies --   1729.9482              1825.7591              1826.3167
 Red. masses --     12.1503                11.6892                11.6902
 Frc consts  --     21.4242                22.9574                22.9733
 IR Inten    --    314.7814                24.0816               453.0901

                     91                     92                     93
                      A                      A                      A
 Frequencies --   3051.6735              3051.6887              3112.1952
 Red. masses --      1.0365                 1.0365                 1.0998
 Frc consts  --      5.6873                 5.6872                 6.2760
 IR Inten    --      0.7104                 0.7299                 1.9048

                     94                     95                     96
                      A                      A                      A
 Frequencies --   3112.1981              3159.4742              3159.4900
 Red. masses --      1.0997                 1.1033                 1.1033
 Frc consts  --      6.2759                 6.4890                 6.4890
 IR Inten    --      3.7400                 8.9486                 4.3440

                     97                     98                     99
                      A                      A                      A
 Frequencies --   3199.2502              3199.5477              3208.9191
 Red. masses --      1.0895                 1.0896                 1.0914
 Frc consts  --      6.5699                 6.5721                 6.6215
 IR Inten    --      0.5425                 0.0679                 7.9181

                    100                    101                    102
                      A                      A                      A
 Frequencies --   3209.3321              3219.4148              3219.5709
 Red. masses --      1.0916                 1.0944                 1.0944
 Frc consts  --      6.6245                 6.6829                 6.6837
 IR Inten    --      2.1942                 4.1150                 1.4010

 - Thermochemistry -
 -------------------
 Temperature   298.150 Kelvin.  Pressure   1.00000 Atm.
 Atom     1 has atomic number  6 and mass  12.00000

 Molecular mass:   324.06339 amu.
 Principal axes and moments of inertia in atomic units:
                           1         2         3
     Eigenvalues --  2616.13827********************
           X            0.98853   0.11436   0.09863
           Y           -0.10427   0.98930  -0.10207
           Z           -0.10924   0.09062   0.98988
 This molecule is an asymmetric top.
 Rotational symmetry number  1.
 Warning -- assumption of classical behavior for rotation
           may cause significant error
 Rotational temperatures (Kelvin)      0.03311     0.00451     0.00409
 Rotational constants (GHZ):           0.68985     0.09405     0.08529
 Zero-point vibrational energy     685380.3 (Joules/Mol)
                                  163.80983 (Kcal/Mol)
 Warning -- explicit consideration of  33 degrees of freedom as
           vibrations may cause significant error
 Vibrational temperatures:     25.44    40.50    54.03    68.74    73.75
          (Kelvin)             96.70   102.27   111.48   123.04   191.73
                              196.87   212.32   259.21   273.79   333.70
                              356.32   420.62   421.93   480.07   565.88
                              570.67   578.12   601.25   606.20   652.09
                              664.37   688.77   739.47   817.43   822.61
                              840.23   854.58   861.07   942.25   950.59
                              989.37   997.06  1021.82  1039.53  1064.77
                             1109.37  1141.41  1156.42  1229.02  1229.25
                             1269.64  1295.22  1349.35  1350.53  1359.59
                             1386.62  1435.13  1439.90  1455.97  1468.95
                             1487.83  1530.56  1530.60  1584.14  1622.77
                             1663.80  1712.38  1713.69  1727.88  1736.51
                             1769.45  1783.64  1836.94  1863.90  1888.04
                             1949.05  1963.14  2015.73  2015.91  2076.27
                             2096.51  2116.27  2116.30  2122.25  2122.28
                             2173.01  2181.38  2307.10  2326.03  2343.13
                             2351.16  2472.82  2489.01  2626.86  2627.66
                             4390.68  4390.70  4477.75  4477.76  4545.78
                             4545.80  4603.01  4603.44  4616.92  4617.51
                             4632.02  4632.24

 Zero-point correction=                           0.261048 (Hartree/Particle)
 Thermal correction to Energy=                    0.282058
 Thermal correction to Enthalpy=                  0.283002
 Thermal correction to Gibbs Free Energy=         0.207694
 Sum of electronic and zero-point Energies=          -1144.581490
 Sum of electronic and thermal Energies=             -1144.560480
 Sum of electronic and thermal Enthalpies=           -1144.559536
 Sum of electronic and thermal Free Energies=        -1144.634844

                     E (Thermal)             CV                S
                      KCal/Mol        Cal/Mol-Kelvin    Cal/Mol-Kelvin
 Total                  176.994             77.624            158.499
 Electronic               0.000              0.000              0.000
 Translational            0.889              2.981             43.223
 Rotational               0.889              2.981             35.317
 Vibrational            175.217             71.663             79.960
 Vibration     1          0.593              1.986              6.879
 Vibration     2          0.593              1.984              5.956
 Vibration     3          0.594              1.982              5.384
 Vibration     4          0.595              1.978              4.907
 Vibration     5          0.596              1.977              4.768
 Vibration     6          0.598              1.970              4.233
 Vibration     7          0.598              1.968              4.123
 Vibration     8          0.599              1.964              3.954
 Vibration     9          0.601              1.959              3.760
 Vibration    10          0.613              1.920              2.898
 Vibration    11          0.614              1.917              2.848
 Vibration    12          0.617              1.905              2.703
 Vibration    13          0.629              1.867              2.327
 Vibration    14          0.634              1.853              2.225
 Vibration    15          0.653              1.792              1.864
 Vibration    16          0.661              1.767              1.747
 Vibration    17          0.688              1.688              1.460
 Vibration    18          0.688              1.686              1.455
 Vibration    19          0.715              1.608              1.242
 Vibration    20          0.761              1.484              0.988
 Vibration    21          0.763              1.477              0.975
 Vibration    22          0.767              1.466              0.956
 Vibration    23          0.781              1.431              0.899
 Vibration    24          0.784              1.424              0.887
 Vibration    25          0.812              1.354              0.786
 Vibration    26          0.819              1.335              0.761
 Vibration    27          0.835              1.297              0.714
 Vibration    28          0.869              1.219              0.624
 Vibration    29          0.924              1.100              0.508
 Vibration    30          0.928              1.092              0.501
 Vibration    31          0.941              1.066              0.478
 Vibration    32          0.952              1.045              0.460
 Vibration    33          0.956              1.035              0.452

                           ! Non-Optimized Parameters !
 Normal termination of Gaussian 16 at Thu Dec 21 13:38:03 2023.
