 Q-Chem 5.4, Q-Chem, Inc., Pleasanton, CA (2021)
 Q-Chem 5.4.0 for Intel X86 EM64T Linux

User input:
--------------------------------------------------------------
$molecule
-2 2
C                 -1.7364870000      1.8848090000     -5.1520030000
C                 -1.6380550000      0.5615390000     -5.5397520000
C                 -1.2700310000     -0.4223010000     -4.5904540000
C                 -1.4762490000      2.2865180000     -3.8236840000
C                 -1.1064860000      1.2952280000     -2.8682220000
C                 -1.0123210000     -0.0531210000     -3.2854890000
C                 -1.5942590000      3.7040410000     -3.4695750000
C                 -0.8336430000      1.6465570000     -1.4819760000
C                 -1.3044780000      4.0724990000     -2.0879800000
C                 -0.9542490000      3.0668940000     -1.1280590000
C                 -1.3900550000      5.4529640000     -1.6544850000
C                 -1.1538270000      5.7629050000     -0.2934870000
C                 -0.8306040000      4.7504160000      0.6113610000
C                 -0.7243530000      3.4302300000      0.2107720000
O                 -1.9432310000      4.5350400000     -4.3654730000
O                 -0.5146010000      0.7686410000     -0.6328460000
N                 -1.6842840000      6.4352680000     -2.5504280000
H                 -2.0161600000      2.6608050000     -5.8556850000
H                 -1.8418290000      0.2767710000     -6.5689490000
H                 -1.1913450000     -1.4647630000     -4.8897710000
H                 -0.7295240000     -0.7825770000     -2.5343120000
S                 -1.1560820000      7.4807350000      0.3335220000
H                 -0.6729920000      5.0323580000      1.6461250000
H                 -1.9637990000      6.1097500000     -3.4709200000
H                 -1.9827060000      7.3238150000     -2.1599170000
H                 -0.4701070000      2.6450440000      0.9114890000
O                 -2.2464680000      8.1800760000     -0.4252920000
O                 -1.4368930000      7.3663240000      1.7908240000
O                  0.1921250000      8.0357980000      0.0334180000
$end
$rem
MAX_SCF_CYCLES=200
BASIS  =  6-311++G(d,p)
GUI  =  2
JOB_TYPE  =  SP
METHOD  =  B3LYP
SOLVENT_METHOD = COSMO
$end
$solvent
dielectric 37.219
opticaldielectric 1.43
$end

--------------------------------------------------------------

             Standard Nuclear Orientation (Angstroms)
    I     Atom           X                Y                Z
 ----------------------------------------------------------------
    1      C       3.7564288055    -1.6753410970     0.0038161926
    2      C       5.0749887366    -1.2603074866    -0.0112983314
    3      C       5.3749753981     0.1232794073    -0.0269448329
    4      C       2.6905980964    -0.7493128463     0.0024444893
    5      C       2.9934339524     0.6436530771    -0.0125406411
    6      C       4.3491862225     1.0470751238    -0.0270408699
    7      C       1.3117605021    -1.2465944940     0.0168961627
    8      C       1.9379952179     1.6464326398    -0.0065767649
    9      C       0.2442019960    -0.2522744069     0.0032774268
   10      C       0.5569509381     1.1468300378     0.0099816564
   11      C      -1.1474673784    -0.6574256679     0.0090879705
   12      C      -2.1537969944     0.3374685183     0.0499402629
   13      C      -1.8047548496     1.6887930012     0.0711230119
   14      C      -0.4819154892     2.0938531786     0.0451581177
   15      O       1.1103756378    -2.5010239439     0.0456174583
   16      O       2.2047408039     2.8802774188    -0.0110389801
   17      N      -1.4765935844    -1.9780328777    -0.0342508116
   18      H       3.4950426984    -2.7275202168     0.0161263066
   19      H       5.8786558028    -1.9924156178    -0.0115276512
   20      H       6.4103524389     0.4554971032    -0.0385620757
   21      H       4.5456115740     2.1136840275    -0.0375104535
   22      S      -3.9352075344    -0.0690353954    -0.0236554978
   23      H      -2.6082628637     2.4149394455     0.1175512603
   24      H      -0.6967177289    -2.6204046746     0.0684538630
   25      H      -2.4288029863    -2.2118617487     0.2297408862
   26      H      -0.2107555115     3.1419335119     0.0578969770
   27      O      -4.0877529068    -1.3349534357     0.7688087440
   28      O      -4.6292166255     1.0949385809     0.5921283751
   29      O      -4.2607917478    -0.2567172789    -1.4639991687
 ----------------------------------------------------------------

   10   -1367.7061325163      7.81e-06  Convergence criterion met
 Total energy in the final basis set =    -1367.7061325163
    5   -1367.9568050465      4.58e-06  Convergence criterion met
 Total energy in the final basis set =    -1367.9568050465

                    Orbital Energies (a.u.)
 --------------------------------------------------------------

 Alpha MOs
 -- Occupied --
-89.0496 -19.0949 -19.0948 -19.0940 -19.0814 -19.0760 -14.3022 -10.2321
-10.2279 -10.2236 -10.1847 -10.1767 -10.1744 -10.1734 -10.1733 -10.1721
-10.1717 -10.1711 -10.1686 -10.1685 -10.1571  -8.1083  -6.0712  -6.0710
 -6.0698  -1.1116  -1.0075  -1.0003  -0.9772  -0.9749  -0.9181  -0.8573
 -0.8388  -0.7871  -0.7497  -0.7450  -0.7298  -0.6717  -0.6470  -0.6270
 -0.5995  -0.5790  -0.5589  -0.5471  -0.5229  -0.5005  -0.4875  -0.4787
 -0.4701  -0.4598  -0.4555  -0.4441  -0.4382  -0.4255  -0.4233  -0.4204
 -0.4159  -0.4022  -0.3874  -0.3853  -0.3785  -0.3615  -0.3521  -0.3473
 -0.3405  -0.3387  -0.3345  -0.3119  -0.3057  -0.3008  -0.2922  -0.2678
 -0.2622  -0.2563  -0.2502  -0.2477  -0.2397  -0.2108  -0.1422

 Beta MOs
 -- Occupied --
-89.0496 -19.0949 -19.0947 -19.0939 -19.0768 -19.0705 -14.3021 -10.2303
-10.2280 -10.2215 -10.1835 -10.1766 -10.1735 -10.1730 -10.1724 -10.1715
-10.1714 -10.1704 -10.1688 -10.1683 -10.1566  -8.1083  -6.0713  -6.0710
 -6.0698  -1.1115  -0.9995  -0.9906  -0.9772  -0.9747  -0.9174  -0.8549
 -0.8372  -0.7833  -0.7474  -0.7430  -0.7278  -0.6654  -0.6449  -0.6247
 -0.5985  -0.5781  -0.5568  -0.5451  -0.5219  -0.4993  -0.4863  -0.4768
 -0.4681  -0.4593  -0.4552  -0.4433  -0.4371  -0.4226  -0.4196  -0.4145
 -0.4112  -0.4000  -0.3838  -0.3791  -0.3608  -0.3601  -0.3508  -0.3407
 -0.3390  -0.3372  -0.3333  -0.3077  -0.3023  -0.2995  -0.2914  -0.2620
 -0.2504  -0.2490  -0.2458  -0.2427  -0.2351  -0.2029

          Ground-State Mulliken Net Atomic Charges

     Atom                 Charge (a.u.)    Spin (a.u.)
  --------------------------------------------------------
      1 C                     0.126852       0.012700
      2 C                    -0.551261       0.052511
      3 C                    -0.466399       0.021044
      4 C                     0.135855       0.036794
      5 C                     0.040148       0.013561
      6 C                     0.060244       0.045254
      7 C                    -0.407687       0.099078
      8 C                    -0.440267       0.125546
      9 C                     0.217087       0.001880
     10 C                     0.502433       0.051304
     11 C                     0.428121       0.002907
     12 C                    -1.152845       0.073583
     13 C                    -0.212798       0.037672
     14 C                    -0.136043       0.063893
     15 O                    -0.478762       0.167197
     16 O                    -0.496621       0.202873
     17 N                    -0.471980       0.005994
     18 H                     0.179900       0.000007
     19 H                     0.203078      -0.004158
     20 H                     0.203874      -0.001979
     21 H                     0.174507      -0.002461
     22 S                     0.738358      -0.001231
     23 H                     0.230794      -0.002687
     24 H                     0.356167      -0.002088
     25 H                     0.296161      -0.000829
     26 H                     0.170065      -0.004318
     27 O                    -0.471780       0.002805
     28 O                    -0.396896       0.000031
     29 O                    -0.380312       0.003118
  --------------------------------------------------------
  Sum of atomic charges =    -2.000010

                    Cartesian Multipole Moments
 -----------------------------------------------------------------
    Charge (ESU x 10^10)
                -9.6065
    Dipole Moment (Debye)
         X      15.5103      Y      -1.8499      Z       0.8267
       Tot      15.6421
    Quadrupole Moments (Debye-Ang)
        XX    -247.1478     XY     -12.0701     YY    -168.9496
        XZ      -2.1936     YZ      -1.1720     ZZ    -146.5879

 Total job time:  119.07s(wall), 909.64s(cpu)
        *  Thank you very much for using Q-Chem.  Have a nice day.  *
