 Gaussian 16, Revision A.03,
 Gaussian 16:  ES64L-G16RevA.03 25-Dec-2016

 --------------------------------------
 #P UB3LYP/6-311++G(d,p) nosym opt freq
 --------------------------------------

 --------
 Oxidized
 --------
 Symbolic Z-matrix:
 Charge =  0 Multiplicity = 1

 SCF Done:  E(UB3LYP) =  -992.896636353     A.U. after   15 cycles
 SCF Done:  E(UB3LYP) =  -992.903381449     A.U. after   14 cycles
 SCF Done:  E(UB3LYP) =  -992.906815316     A.U. after   14 cycles
 SCF Done:  E(UB3LYP) =  -992.909462732     A.U. after   14 cycles
 SCF Done:  E(UB3LYP) =  -992.910097222     A.U. after   15 cycles
 SCF Done:  E(UB3LYP) =  -992.911466070     A.U. after   13 cycles
 SCF Done:  E(UB3LYP) =  -992.911398026     A.U. after   13 cycles
 SCF Done:  E(UB3LYP) =  -992.911830764     A.U. after   13 cycles
 SCF Done:  E(UB3LYP) =  -992.911902989     A.U. after   12 cycles
 SCF Done:  E(UB3LYP) =  -992.911950325     A.U. after   12 cycles
 SCF Done:  E(UB3LYP) =  -992.911974492     A.U. after   11 cycles
 SCF Done:  E(UB3LYP) =  -992.911996872     A.U. after   12 cycles
 SCF Done:  E(UB3LYP) =  -992.912007655     A.U. after   11 cycles
 SCF Done:  E(UB3LYP) =  -992.912009302     A.U. after   10 cycles
 SCF Done:  E(UB3LYP) =  -992.912010131     A.U. after    9 cycles
 SCF Done:  E(UB3LYP) =  -992.912010640     A.U. after   10 cycles
 SCF Done:  E(UB3LYP) =  -992.912010970     A.U. after   10 cycles
 SCF Done:  E(UB3LYP) =  -992.912011065     A.U. after    9 cycles
 Optimization completed.
    -- Stationary point found.
 Normal termination of Gaussian 16 at Thu Dec 21 10:01:54 2023.

 ----------------------------------------------------------------------
 #P Geom=AllCheck Guess=TCheck SCRF=Check GenChk UB3LYP/6-311++G(d,p) F
 req
 ----------------------------------------------------------------------

 Structure from the checkpoint file:  "171.chk"
 --------
 Oxidized
 --------
 Charge =  0 Multiplicity = 1

                          Input orientation:
 ---------------------------------------------------------------------
 Center     Atomic      Atomic             Coordinates (Angstroms)
 Number     Number       Type             X           Y           Z
 ---------------------------------------------------------------------
      1          6           0       -1.379182    1.889579   -4.265401
      2          6           0       -1.340373    0.504261   -4.335611
      3          6           0       -1.059207   -0.249137   -3.189728
      4          6           0       -1.137392    2.540111   -3.048320
      5          6           0       -0.855898    1.785827   -1.901115
      6          6           0       -0.818495    0.387396   -1.980482
      7          6           0       -1.182826    4.021679   -2.994046
      8          6           0       -0.597495    2.447562   -0.599803
      9          6           0       -0.928193    4.684471   -1.713634
     10          6           0       -0.643378    3.909821   -0.534384
     11          6           0       -0.964697    6.106177   -1.645104
     12          6           0       -0.708641    6.716951   -0.385903
     13          6           0       -0.438805    5.981100    0.733677
     14          6           0       -0.399030    4.559588    0.708025
     15          8           0       -1.434943    4.650630   -4.037057
     16          8           0       -0.349758    1.739213    0.392772
     17          1           0       -1.594339    2.493572   -5.137607
     18          1           0       -1.528286    0.004950   -5.279597
     19          1           0       -1.029592   -1.331533   -3.246715
     20          1           0       -0.599414   -0.173512   -1.080920
     21          1           0       -0.251459    6.499329    1.664897
     22          1           0       -0.726861    7.796050   -0.307944
     23          7           0       -1.230278    6.881724   -2.729376
     24          6           0       -1.283643    8.327358   -2.720686
     25          1           0       -1.400810    6.363493   -3.587246
     26          1           0       -0.326221    8.776879   -2.430461
     27          1           0       -2.061124    8.710478   -2.048641
     28          1           0       -1.518559    8.663994   -3.730156
     29          7           0       -0.134703    3.868938    1.851107
     30          6           0        0.154987    4.466096    3.138577
     31          6           0        0.318184    3.371570    4.195338
     32          8           0        0.587479    3.917858    5.480746
     33          1           0       -0.103911    2.857606    1.728195
     34          1           0       -0.652330    5.135556    3.458373
     35          1           0        1.077360    5.066009    3.096738
     36          1           0        1.102751    2.667214    3.889893
     37          1           0       -0.612942    2.810553    4.295581
     38          1           0        1.479355    4.279558    5.486747
 ---------------------------------------------------------------------

 SCF Done:  E(UB3LYP) =  -992.912011065     A.U. after    2 cycles

 Alpha  occ. eigenvalues --  -19.13973 -19.10803 -19.10685 -14.33560 -14.33488
 Alpha  occ. eigenvalues --  -10.26077 -10.25981 -10.23757 -10.23649 -10.23420
 Alpha  occ. eigenvalues --  -10.22024 -10.21462 -10.19742 -10.19674 -10.19406
 Alpha  occ. eigenvalues --  -10.19336 -10.19244 -10.19192 -10.18827 -10.18775
 Alpha  occ. eigenvalues --  -10.18399 -10.18379  -1.04188  -1.04063  -1.03825
 Alpha  occ. eigenvalues --   -0.95663  -0.95010  -0.87709  -0.85674  -0.80353
 Alpha  occ. eigenvalues --   -0.78075  -0.76522  -0.76441  -0.73741  -0.69803
 Alpha  occ. eigenvalues --   -0.68141  -0.66235  -0.64715  -0.63166  -0.60728
 Alpha  occ. eigenvalues --   -0.58648  -0.55345  -0.55052  -0.53806  -0.52589
 Alpha  occ. eigenvalues --   -0.51615  -0.49808  -0.48739  -0.48208  -0.47899
 Alpha  occ. eigenvalues --   -0.47424  -0.46094  -0.45466  -0.43930  -0.43892
 Alpha  occ. eigenvalues --   -0.43767  -0.43518  -0.42782  -0.42186  -0.41467
 Alpha  occ. eigenvalues --   -0.40745  -0.40067  -0.39843  -0.38848  -0.38353
 Alpha  occ. eigenvalues --   -0.36870  -0.35874  -0.35549  -0.35133  -0.33531
 Alpha  occ. eigenvalues --   -0.29852  -0.27978  -0.27632  -0.26805  -0.26491
 Alpha  occ. eigenvalues --   -0.26087  -0.25756  -0.19259
 Alpha virt. eigenvalues --   -0.10393  -0.05286  -0.02916  -0.02080  -0.01250
 Alpha virt. eigenvalues --   -0.00156   0.00038   0.00461   0.00993   0.01706
 Alpha virt. eigenvalues --    0.01764   0.02461   0.02894   0.03203   0.03557

  Beta  occ. eigenvalues --  -19.13973 -19.10803 -19.10685 -14.33560 -14.33488
  Beta  occ. eigenvalues --  -10.26077 -10.25981 -10.23757 -10.23649 -10.23420
  Beta  occ. eigenvalues --  -10.22024 -10.21462 -10.19742 -10.19674 -10.19406
  Beta  occ. eigenvalues --  -10.19336 -10.19244 -10.19192 -10.18827 -10.18775
  Beta  occ. eigenvalues --  -10.18399 -10.18379  -1.04188  -1.04063  -1.03825
  Beta  occ. eigenvalues --   -0.95663  -0.95010  -0.87709  -0.85674  -0.80353
  Beta  occ. eigenvalues --   -0.78075  -0.76522  -0.76441  -0.73741  -0.69803
  Beta  occ. eigenvalues --   -0.68141  -0.66235  -0.64715  -0.63166  -0.60728
  Beta  occ. eigenvalues --   -0.58648  -0.55345  -0.55052  -0.53806  -0.52589
  Beta  occ. eigenvalues --   -0.51615  -0.49808  -0.48739  -0.48208  -0.47899
  Beta  occ. eigenvalues --   -0.47424  -0.46094  -0.45466  -0.43930  -0.43892
  Beta  occ. eigenvalues --   -0.43767  -0.43518  -0.42782  -0.42186  -0.41467
  Beta  occ. eigenvalues --   -0.40745  -0.40067  -0.39843  -0.38848  -0.38353
  Beta  occ. eigenvalues --   -0.36870  -0.35874  -0.35549  -0.35133  -0.33531
  Beta  occ. eigenvalues --   -0.29852  -0.27978  -0.27632  -0.26805  -0.26491
  Beta  occ. eigenvalues --   -0.26087  -0.25756  -0.19259
  Beta virt. eigenvalues --   -0.10393  -0.05286  -0.02916  -0.02080  -0.01250
  Beta virt. eigenvalues --   -0.00156   0.00038   0.00461   0.00993   0.01706
  Beta virt. eigenvalues --    0.01764   0.02461   0.02894   0.03203   0.03557

 Mulliken charges and spin densities:
               1          2
     1  C    0.074700  -0.000000
     2  C   -0.495468   0.000000
     3  C   -0.456039   0.000000
     4  C    0.263052   0.000000
     5  C    0.264915  -0.000000
     6  C    0.023454   0.000000
     7  C   -0.306477  -0.000000
     8  C   -0.274467   0.000000
     9  C    0.234560   0.000000
    10  C    0.231962   0.000000
    11  C   -0.158090  -0.000000
    12  C   -0.056528  -0.000000
    13  C   -0.068018  -0.000000
    14  C   -0.535429  -0.000000
    15  O   -0.269094   0.000000
    16  O   -0.253690   0.000000
    17  H    0.180400  -0.000000
    18  H    0.168441  -0.000000
    19  H    0.168721  -0.000000
    20  H    0.170351   0.000000
    21  H    0.181382   0.000000
    22  H    0.191311   0.000000
    23  N   -0.281185  -0.000000
    24  C   -0.347911   0.000000
    25  H    0.398644  -0.000000
    26  H    0.154092  -0.000000
    27  H    0.155477  -0.000000
    28  H    0.154433  -0.000000
    29  N   -0.124754   0.000000
    30  C   -0.235121  -0.000000
    31  C   -0.274943   0.000000
    32  O   -0.248351   0.000000
    33  H    0.463832  -0.000000
    34  H    0.168506  -0.000000
    35  H    0.144031  -0.000000
    36  H    0.152640   0.000000
    37  H    0.197425  -0.000000
    38  H    0.243237   0.000000
 Sum of Mulliken charges =  -0.00000  -0.00000

 Dipole moment (field-independent basis, Debye):
    X=              1.3109    Y=              2.7876    Z=              0.2120  Tot=              3.0877
 Quadrupole moment (field-independent basis, Debye-Ang):
   XX=           -129.7250   YY=            -86.9119   ZZ=           -136.8350
   XY=              4.7465   XZ=              7.1545   YZ=              6.2700

  Exact polarizability: 131.069   1.320 342.525  41.909  40.834 315.037
 Approx polarizability: 212.009  -0.475 566.035  65.999  56.425 504.448

                      1                      2                      3
                      A                      A                      A
 Frequencies --     28.7639                40.2970                60.0405
 Red. masses --      6.4763                 3.6087                 2.1819
 Frc consts  --      0.0032                 0.0035                 0.0046
 IR Inten    --      0.7230                 5.5360                 4.0110

                      4                      5                      6
                      A                      A                      A
 Frequencies --     65.3757                72.8624                94.2688
 Red. masses --      4.0981                 6.1886                 3.9854
 Frc consts  --      0.0103                 0.0194                 0.0209
 IR Inten    --      0.7425                 0.3900                 2.3616

                      7                      8                      9
                      A                      A                      A
 Frequencies --    122.8937               132.7965               154.2378
 Red. masses --      3.2863                 4.3067                 3.5717
 Frc consts  --      0.0292                 0.0447                 0.0501
 IR Inten    --      1.5152                 0.8210                 4.3020

                     10                     11                     12
                      A                      A                      A
 Frequencies --    175.7814               181.0515               202.2098
 Red. masses --      3.7642                 5.5447                 1.2589
 Frc consts  --      0.0685                 0.1071                 0.0303
 IR Inten    --      0.0602                 1.2757                 0.1521

                     13                     14                     15
                      A                      A                      A
 Frequencies --    232.4923               248.5193               259.7296
 Red. masses --      3.6469                 5.5913                 5.9121
 Frc consts  --      0.1161                 0.2035                 0.2350
 IR Inten    --      1.9369                 5.2045                 3.1986

                     16                     17                     18
                      A                      A                      A
 Frequencies --    294.7473               320.8418               328.8384
 Red. masses --      1.2119                 4.1570                 4.6578
 Frc consts  --      0.0620                 0.2521                 0.2968
 IR Inten    --    119.4196                 7.6591                 4.1770

                     19                     20                     21
                      A                      A                      A
 Frequencies --    357.6715               379.3912               399.7196
 Red. masses --      4.9717                 6.5849                 9.5415
 Frc consts  --      0.3747                 0.5584                 0.8982
 IR Inten    --      0.1528                13.6609                 0.9765

                     22                     23                     24
                      A                      A                      A
 Frequencies --    431.0364               434.3338               445.0516
 Red. masses --      3.3718                 5.9629                12.7672
 Frc consts  --      0.3691                 0.6628                 1.4899
 IR Inten    --      1.6497                 0.0691                18.6492

                     25                     26                     27
                      A                      A                      A
 Frequencies --    473.0705               485.4938               502.0019
 Red. masses --      8.3076                 7.2824                 4.8358
 Frc consts  --      1.0954                 1.0113                 0.7180
 IR Inten    --     14.7943                 2.7747                 0.0191

                     28                     29                     30
                      A                      A                      A
 Frequencies --    538.1790               577.3789               596.3497
 Red. masses --      5.1672                 2.5166                 5.4399
 Frc consts  --      0.8818                 0.4943                 1.1398
 IR Inten    --     14.4564                35.0259                 2.8176

                     31                     32                     33
                      A                      A                      A
 Frequencies --    642.0585               649.2176               662.8696
 Red. masses --      5.2049                 1.2596                 1.3755
 Frc consts  --      1.2642                 0.3128                 0.3561
 IR Inten    --      0.3387                15.8566                51.5877

                     34                     35                     36
                      A                      A                      A
 Frequencies --    676.1775               678.1918               731.8938
 Red. masses --      5.5724                 2.3341                 6.2573
 Frc consts  --      1.5011                 0.6325                 1.9748
 IR Inten    --     12.5214                 4.9779                 2.8579

                     37                     38                     39
                      A                      A                      A
 Frequencies --    739.3310               744.7115               775.2970
 Red. masses --      5.7779                 1.8865                 5.8446
 Frc consts  --      1.8608                 0.6164                 2.0699
 IR Inten    --      2.0127                80.5477                 3.1468

                     40                     41                     42
                      A                      A                      A
 Frequencies --    801.6076               812.8487               817.2776
 Red. masses --      6.2376                 1.5944                 1.5570
 Frc consts  --      2.3615                 0.6207                 0.6127
 IR Inten    --      0.0307                24.9097                 1.0980

                     43                     44                     45
                      A                      A                      A
 Frequencies --    833.6947               867.6943               902.0282
 Red. masses --      1.5560                 6.8153                 7.7750
 Frc consts  --      0.6372                 3.0232                 3.7273
 IR Inten    --     17.3690                 3.0146                 7.0060

                     46                     47                     48
                      A                      A                      A
 Frequencies --    910.2546               953.4270               957.2310
 Red. masses --      1.3926                 5.1423                 1.3144
 Frc consts  --      0.6799                 2.7541                 0.7096
 IR Inten    --      0.0013                 3.4116                 0.0982

                     49                     50                     51
                      A                      A                      A
 Frequencies --   1000.1237              1013.2311              1033.0671
 Red. masses --      1.3764                 1.3131                 4.7699
 Frc consts  --      0.8111                 0.7943                 2.9993
 IR Inten    --      1.6564                 0.0010               216.6727

                     52                     53                     54
                      A                      A                      A
 Frequencies --   1044.9129              1062.7885              1070.6568
 Red. masses --      2.5287                 2.0713                 3.7041
 Frc consts  --      1.6267                 1.3784                 2.5017
 IR Inten    --     20.0370                13.0577               149.3323

                     55                     56                     57
                      A                      A                      A
 Frequencies --   1093.6604              1113.3865              1116.0570
 Red. masses --      1.7358                 2.0374                 2.2915
 Frc consts  --      1.2233                 1.4880                 1.6817
 IR Inten    --      6.1346                 4.6818                 8.3820

                     58                     59                     60
                      A                      A                      A
 Frequencies --   1142.8373              1150.5863              1173.3608
 Red. masses --      1.2741                 3.8420                 1.5781
 Frc consts  --      0.9805                 2.9967                 1.2801
 IR Inten    --      0.2078                16.0441                 1.7748

                     61                     62                     63
                      A                      A                      A
 Frequencies --   1183.1407              1191.5054              1200.1278
 Red. masses --      1.6572                 2.0907                 1.1896
 Frc consts  --      1.3668                 1.7488                 1.0095
 IR Inten    --      1.6508                22.0723                 8.2721

                     64                     65                     66
                      A                      A                      A
 Frequencies --   1207.5930              1259.9025              1273.5137
 Red. masses --      1.4336                 1.8061                 3.1895
 Frc consts  --      1.2317                 1.6891                 3.0478
 IR Inten    --    160.0890                 6.1234               495.7659

                     67                     68                     69
                      A                      A                      A
 Frequencies --   1298.6977              1308.5535              1321.9315
 Red. masses --      2.2558                 1.2326                 1.7957
 Frc consts  --      2.2417                 1.2436                 1.8488
 IR Inten    --    455.9489                 5.0369                 2.0063

                     70                     71                     72
                      A                      A                      A
 Frequencies --   1327.9164              1353.6297              1358.7443
 Red. masses --      2.2188                 1.8202                 6.6444
 Frc consts  --      2.3053                 1.9650                 7.2274
 IR Inten    --     93.1607                15.6804                 1.8791

                     73                     74                     75
                      A                      A                      A
 Frequencies --   1375.2185              1389.8652              1414.4017
 Red. masses --      2.7716                 1.4109                 2.2743
 Frc consts  --      3.0883                 1.6058                 2.6807
 IR Inten    --     77.2418                15.3323                56.5283

                     76                     77                     78
                      A                      A                      A
 Frequencies --   1429.3400              1434.2863              1471.6732
 Red. masses --      2.0301                 2.3177                 1.3722
 Frc consts  --      2.4437                 2.8092                 1.7510
 IR Inten    --      0.6978                22.9002                37.3921

                     79                     80                     81
                      A                      A                      A
 Frequencies --   1484.2316              1489.9201              1506.2734
 Red. masses --      2.5429                 1.0403                 2.4868
 Frc consts  --      3.3005                 1.3606                 3.3243
 IR Inten    --      5.7187                 8.7927                 1.8908

                     82                     83                     84
                      A                      A                      A
 Frequencies --   1510.8573              1512.1025              1523.1724
 Red. masses --      1.0864                 1.3445                 1.0970
 Frc consts  --      1.4611                 1.8113                 1.4995
 IR Inten    --     22.0582                14.0448                54.2148

                     85                     86                     87
                      A                      A                      A
 Frequencies --   1529.8183              1558.5615              1602.3117
 Red. masses --      2.1560                 3.4626                 2.5771
 Frc consts  --      2.9729                 4.9556                 3.8982
 IR Inten    --     13.4120               351.7494               220.7636

                     88                     89                     90
                      A                      A                      A
 Frequencies --   1603.8229              1618.6898              1635.7672
 Red. masses --      4.3605                 5.3813                 3.5442
 Frc consts  --      6.6084                 8.3074                 5.5874
 IR Inten    --     97.8923               259.5112               289.8065

                     91                     92                     93
                      A                      A                      A
 Frequencies --   1654.0279              1682.5496              2957.6733
 Red. masses --      7.4183                 7.4456                 1.0694
 Frc consts  --     11.9575                12.4190                 5.5117
 IR Inten    --    177.2745                55.0320               105.6003

                     94                     95                     96
                      A                      A                      A
 Frequencies --   2991.6689              3001.1034              3022.8176
 Red. masses --      1.0393                 1.0721                 1.0875
 Frc consts  --      5.4804                 5.6890                 5.8545
 IR Inten    --    136.0086                13.2026                55.1378

                     97                     98                     99
                      A                      A                      A
 Frequencies --   3031.1857              3092.3195              3119.6445
 Red. masses --      1.1039                 1.0971                 1.0953
 Frc consts  --      5.9759                 6.1810                 6.2806
 IR Inten    --     38.6275                23.6001                15.8824

                    100                    101                    102
                      A                      A                      A
 Frequencies --   3166.2350              3181.6119              3191.5202
 Red. masses --      1.0869                 1.0925                 1.0861
 Frc consts  --      6.4197                 6.5155                 6.5181
 IR Inten    --      4.0670                19.7487                 6.5296

                    103                    104                    105
                      A                      A                      A
 Frequencies --   3203.3992              3205.5074              3208.0850
 Red. masses --      1.0921                 1.0938                 1.0939
 Frc consts  --      6.6029                 6.6221                 6.6334
 IR Inten    --      0.6800                13.9462                 8.9101

                    106                    107                    108
                      A                      A                      A
 Frequencies --   3406.3955              3448.3365              3832.1551
 Red. masses --      1.0796                 1.0798                 1.0667
 Frc consts  --      7.3811                 7.5650                 9.2292
 IR Inten    --     34.7955                40.4243                38.6226

 - Thermochemistry -
 -------------------
 Temperature   298.150 Kelvin.  Pressure   1.00000 Atm.
 Atom     1 has atomic number  6 and mass  12.00000

 Molecular mass:   296.11609 amu.
 Principal axes and moments of inertia in atomic units:
                           1         2         3
     Eigenvalues --  5109.136438751.99559**********
           X            0.19581  -0.08137   0.97726
           Y            0.22581   0.97351   0.03581
           Z            0.95429  -0.21366  -0.20900
 This molecule is an asymmetric top.
 Rotational symmetry number  1.
 Warning -- assumption of classical behavior for rotation
           may cause significant error
 Rotational temperatures (Kelvin)      0.01695     0.00990     0.00627
 Rotational constants (GHZ):           0.35324     0.20621     0.13058
 Zero-point vibrational energy     792990.8 (Joules/Mol)
                                  189.52935 (Kcal/Mol)
 Warning -- explicit consideration of  30 degrees of freedom as
           vibrations may cause significant error
 Vibrational temperatures:     41.38    57.98    86.38    94.06   104.83
          (Kelvin)            135.63   176.82   191.06   221.91   252.91
                              260.49   290.93   334.50   357.56   373.69
                              424.08   461.62   473.13   514.61   545.86
                              575.11   620.17   624.91   640.33   680.64
                              698.52   722.27   774.32   830.72   858.01
                              923.78   934.08   953.72   972.87   975.77
                             1053.03  1063.73  1071.47  1115.48  1153.33
                             1169.51  1175.88  1199.50  1248.42  1297.82
                             1309.65  1371.77  1377.24  1438.96  1457.81
                             1486.35  1503.40  1529.12  1540.44  1573.53
                             1601.91  1605.76  1644.29  1655.44  1688.20
                             1702.28  1714.31  1726.72  1737.46  1812.72
                             1832.30  1868.54  1882.72  1901.96  1910.58
                             1947.57  1954.93  1978.63  1999.71  2035.01
                             2056.50  2063.62  2117.41  2135.48  2143.66
                             2167.19  2173.79  2175.58  2191.51  2201.07
                             2242.42  2305.37  2307.54  2328.93  2353.50
                             2379.78  2420.81  4255.43  4304.34  4317.92
                             4349.16  4361.20  4449.16  4488.47  4555.51
                             4577.63  4591.89  4608.98  4612.01  4615.72
                             4901.04  4961.39  5513.62

 Zero-point correction=                           0.302034 (Hartree/Particle)
 Thermal correction to Energy=                    0.321385
 Thermal correction to Enthalpy=                  0.322329
 Thermal correction to Gibbs Free Energy=         0.253513
 Sum of electronic and zero-point Energies=           -992.609977
 Sum of electronic and thermal Energies=              -992.590626
 Sum of electronic and thermal Enthalpies=            -992.589682
 Sum of electronic and thermal Free Energies=         -992.658498

                     E (Thermal)             CV                S
                      KCal/Mol        Cal/Mol-Kelvin    Cal/Mol-Kelvin
 Total                  201.672             74.545            144.836
 Electronic               0.000              0.000              0.000
 Translational            0.889              2.981             42.954
 Rotational               0.889              2.981             34.779
 Vibrational            199.895             68.584             67.103
 Vibration     1          0.593              1.984              5.913
 Vibration     2          0.594              1.981              5.244
 Vibration     3          0.597              1.973              4.456
 Vibration     4          0.597              1.971              4.288
 Vibration     5          0.599              1.967              4.074
 Vibration     6          0.603              1.953              3.569
 Vibration     7          0.610              1.930              3.054
 Vibration     8          0.613              1.921              2.905
 Vibration     9          0.620              1.898              2.619
 Vibration    10          0.628              1.872              2.373
 Vibration    11          0.630              1.865              2.318
 Vibration    12          0.639              1.837              2.113
 Vibration    13          0.653              1.791              1.860
 Vibration    14          0.662              1.765              1.741
 Vibration    15          0.668              1.746              1.664
 Vibration    16          0.689              1.684              1.447
 Vibration    17          0.706              1.634              1.306
 Vibration    18          0.712              1.618              1.266
 Vibration    19          0.733              1.559              1.132
 Vibration    20          0.749              1.514              1.042
 Vibration    21          0.766              1.471              0.964
 Vibration    22          0.792              1.403              0.855
 Vibration    23          0.795              1.395              0.845
 Vibration    24          0.804              1.372              0.811
 Vibration    25          0.830              1.310              0.729
 Vibration    26          0.842              1.282              0.695
 Vibration    27          0.857              1.246              0.653
 Vibration    28          0.893              1.166              0.569
 Vibration    29          0.934              1.080              0.490
 Vibration    30          0.954              1.040              0.456

                           ! Non-Optimized Parameters !
 Normal termination of Gaussian 16 at Thu Dec 21 14:04:41 2023.
