 Q-Chem 5.4, Q-Chem, Inc., Pleasanton, CA (2021)
 Q-Chem 5.4.0 for Intel X86 EM64T Linux

User input:
--------------------------------------------------------------
$molecule
0 1
C                 -2.8436300000      4.1245430000      4.5575640000
C                 -3.1577750000      3.1881460000      5.5366820000
C                 -2.3520890000      2.0601520000      5.7066830000
C                 -1.7194960000      3.9301060000      3.7499880000
C                 -0.9074280000      2.7973420000      3.9178070000
C                 -1.2331680000      1.8632120000      4.8999040000
C                 -1.3685140000      4.9095730000      2.7109320000
C                 -0.1449070000      4.6602020000      1.8902850000
C                  0.6732000000      3.5883040000      2.0483160000
C                  0.3012660000      2.5633630000      3.0498600000
O                 -2.0074210000      5.9301420000      2.4791370000
O                  0.9441710000      1.5342840000      3.1812450000
O                  0.0840160000      5.6160070000      0.9745360000
H                 -3.4532060000      5.0067580000      4.4049140000
H                 -4.0274730000      3.3343240000      6.1666620000
H                 -2.5982070000      1.3315500000      6.4708290000
H                 -0.5999910000      0.9926140000      5.0169790000
H                 -0.6309440000      6.2725330000      1.0866150000
C                  3.1762940000      3.0356520000      1.9014840000
C                  3.4717900000      3.6332200000      3.1316230000
C                  4.1142800000      2.1681890000      1.3401650000
C                  5.3076300000      1.8847640000      2.0043070000
C                  5.5877200000      2.4742310000      3.2344580000
C                  4.6642670000      3.3562910000      3.7943130000
H                  2.7648810000      4.3244080000      3.5801090000
H                  3.9089350000      1.7281470000      0.3729580000
H                  6.0214680000      1.2030330000      1.5544190000
H                  4.8726570000      3.8300090000      4.7475040000
H                  6.5157790000      2.2536950000      3.7499710000
C                  1.9031600000      3.4269320000      1.1469390000
H                  2.0984960000      4.4294530000      0.7566760000
N                  1.6637660000      2.6165840000     -0.0552870000
C                  1.0654910000      1.2844290000      0.0768040000
C                  1.0780260000      0.5608380000     -1.2704670000
C                  0.4471510000     -0.8345410000     -1.2068890000
C                  0.4557780000     -1.5697090000     -2.5519130000
C                 -0.1736290000     -2.9661420000     -2.4917750000
C                 -0.1691200000     -3.7010630000     -3.8369310000
H                  1.1395420000      3.1679300000     -0.7251880000
H                  0.0307490000      1.3189450000      0.4552070000
H                  1.6416680000      0.7208800000      0.8131630000
H                  2.1123900000      0.4888090000     -1.6245550000
H                  0.5412000000      1.1673960000     -2.0128460000
H                 -0.5867310000     -0.7519430000     -0.8477270000
H                  0.9797180000     -1.4382190000     -0.4611060000
H                  1.4894450000     -1.6538510000     -2.9113280000
H                 -0.0761990000     -0.9651480000     -3.2980890000
H                 -1.2065540000     -2.8818610000     -2.1295550000
H                  0.3598800000     -3.5711030000     -1.7472090000
H                  0.8635970000     -3.7848710000     -4.1996400000
H                 -0.7032170000     -3.0960090000     -4.5811670000
C                 -0.7980320000     -5.0978050000     -3.7768460000
C                 -0.7978740000     -5.8309890000     -5.1229840000
C                 -1.4269000000     -7.2276970000     -5.0631630000
C                 -1.4302990000     -7.9590550000     -6.4103010000
C                 -2.0592020000     -9.3558300000     -6.3508320000
C                 -2.0650660000    -10.0857230000     -7.6987630000
C                 -2.6938990000    -11.4825660000     -7.6396280000
C                 -2.7015090000    -12.2116290000     -8.9877740000
C                 -3.3301870000    -13.6086060000     -8.9298790000
C                 -3.3335380000    -14.3285320000    -10.2816110000
H                 -1.8297930000     -5.0141670000     -3.4111900000
H                 -0.2621030000     -5.7038770000     -3.0348400000
H                  0.2337090000     -5.9144830000     -5.4890440000
H                 -1.3341060000     -5.2247120000     -5.8646690000
H                 -2.4576900000     -7.1443720000     -4.6947260000
H                 -0.8891720000     -7.8349310000     -4.3233840000
H                 -0.3996550000     -8.0420990000     -6.7791210000
H                 -1.9683760000     -7.3517210000     -7.1497710000
H                 -3.0892880000     -9.2729510000     -5.9803490000
H                 -1.5200540000     -9.9638840000     -5.6127540000
H                 -1.0350930000    -10.1684370000     -8.0695060000
H                 -2.6044440000     -9.4776160000     -8.4366280000
H                 -3.7235490000    -11.3999750000     -7.2678220000
H                 -2.1538030000    -12.0911980000     -6.9026880000
H                 -1.6721160000    -12.2950650000     -9.3604620000
H                 -3.2418920000    -11.6037960000     -9.7253790000
H                 -4.3588230000    -13.5257600000     -8.5580400000
H                 -2.7899500000    -14.2166660000     -8.1939430000
H                 -3.8965880000    -13.7619450000    -11.0301560000
H                 -3.7878040000    -15.3204900000    -10.2058750000
H                 -2.3157620000    -14.4578870000    -10.6633740000
$end

$rem
SMX_GAS_PHASE = true
BASIS  =  6-311++G(d,p)
GUI  =  2
JOB_TYPE  =  SP
METHOD  =  B3LYP
SCF_CONVERGENCE  = 8
SOLVENT_METHOD = sm12
$end

$smx
solvent dimethylformamide
charges CM5
$end

--------------------------------------------------------------

             Standard Nuclear Orientation (Angstroms)
    I     Atom           X                Y                Z
 ----------------------------------------------------------------
    1      C      -2.8436300000     4.1245430000     4.5575640000
    2      C      -3.1577750000     3.1881460000     5.5366820000
    3      C      -2.3520890000     2.0601520000     5.7066830000
    4      C      -1.7194960000     3.9301060000     3.7499880000
    5      C      -0.9074280000     2.7973420000     3.9178070000
    6      C      -1.2331680000     1.8632120000     4.8999040000
    7      C      -1.3685140000     4.9095730000     2.7109320000
    8      C      -0.1449070000     4.6602020000     1.8902850000
    9      C       0.6732000000     3.5883040000     2.0483160000
   10      C       0.3012660000     2.5633630000     3.0498600000
   11      O      -2.0074210000     5.9301420000     2.4791370000
   12      O       0.9441710000     1.5342840000     3.1812450000
   13      O       0.0840160000     5.6160070000     0.9745360000
   14      H      -3.4532060000     5.0067580000     4.4049140000
   15      H      -4.0274730000     3.3343240000     6.1666620000
   16      H      -2.5982070000     1.3315500000     6.4708290000
   17      H      -0.5999910000     0.9926140000     5.0169790000
   18      H      -0.6309440000     6.2725330000     1.0866150000
   19      C       3.1762940000     3.0356520000     1.9014840000
   20      C       3.4717900000     3.6332200000     3.1316230000
   21      C       4.1142800000     2.1681890000     1.3401650000
   22      C       5.3076300000     1.8847640000     2.0043070000
   23      C       5.5877200000     2.4742310000     3.2344580000
   24      C       4.6642670000     3.3562910000     3.7943130000
   25      H       2.7648810000     4.3244080000     3.5801090000
   26      H       3.9089350000     1.7281470000     0.3729580000
   27      H       6.0214680000     1.2030330000     1.5544190000
   28      H       4.8726570000     3.8300090000     4.7475040000
   29      H       6.5157790000     2.2536950000     3.7499710000
   30      C       1.9031600000     3.4269320000     1.1469390000
   31      H       2.0984960000     4.4294530000     0.7566760000
   32      N       1.6637660000     2.6165840000    -0.0552870000
   33      C       1.0654910000     1.2844290000     0.0768040000
   34      C       1.0780260000     0.5608380000    -1.2704670000
   35      C       0.4471510000    -0.8345410000    -1.2068890000
   36      C       0.4557780000    -1.5697090000    -2.5519130000
   37      C      -0.1736290000    -2.9661420000    -2.4917750000
   38      C      -0.1691200000    -3.7010630000    -3.8369310000
   39      H       1.1395420000     3.1679300000    -0.7251880000
   40      H       0.0307490000     1.3189450000     0.4552070000
   41      H       1.6416680000     0.7208800000     0.8131630000
   42      H       2.1123900000     0.4888090000    -1.6245550000
   43      H       0.5412000000     1.1673960000    -2.0128460000
   44      H      -0.5867310000    -0.7519430000    -0.8477270000
   45      H       0.9797180000    -1.4382190000    -0.4611060000
   46      H       1.4894450000    -1.6538510000    -2.9113280000
   47      H      -0.0761990000    -0.9651480000    -3.2980890000
   48      H      -1.2065540000    -2.8818610000    -2.1295550000
   49      H       0.3598800000    -3.5711030000    -1.7472090000
   50      H       0.8635970000    -3.7848710000    -4.1996400000
   51      H      -0.7032170000    -3.0960090000    -4.5811670000
   52      C      -0.7980320000    -5.0978050000    -3.7768460000
   53      C      -0.7978740000    -5.8309890000    -5.1229840000
   54      C      -1.4269000000    -7.2276970000    -5.0631630000
   55      C      -1.4302990000    -7.9590550000    -6.4103010000
   56      C      -2.0592020000    -9.3558300000    -6.3508320000
   57      C      -2.0650660000   -10.0857230000    -7.6987630000
   58      C      -2.6938990000   -11.4825660000    -7.6396280000
   59      C      -2.7015090000   -12.2116290000    -8.9877740000
   60      C      -3.3301870000   -13.6086060000    -8.9298790000
   61      C      -3.3335380000   -14.3285320000   -10.2816110000
   62      H      -1.8297930000    -5.0141670000    -3.4111900000
   63      H      -0.2621030000    -5.7038770000    -3.0348400000
   64      H       0.2337090000    -5.9144830000    -5.4890440000
   65      H      -1.3341060000    -5.2247120000    -5.8646690000
   66      H      -2.4576900000    -7.1443720000    -4.6947260000
   67      H      -0.8891720000    -7.8349310000    -4.3233840000
   68      H      -0.3996550000    -8.0420990000    -6.7791210000
   69      H      -1.9683760000    -7.3517210000    -7.1497710000
   70      H      -3.0892880000    -9.2729510000    -5.9803490000
   71      H      -1.5200540000    -9.9638840000    -5.6127540000
   72      H      -1.0350930000   -10.1684370000    -8.0695060000
   73      H      -2.6044440000    -9.4776160000    -8.4366280000
   74      H      -3.7235490000   -11.3999750000    -7.2678220000
   75      H      -2.1538030000   -12.0911980000    -6.9026880000
   76      H      -1.6721160000   -12.2950650000    -9.3604620000
   77      H      -3.2418920000   -11.6037960000    -9.7253790000
   78      H      -4.3588230000   -13.5257600000    -8.5580400000
   79      H      -2.7899500000   -14.2166660000    -8.1939430000
   80      H      -3.8965880000   -13.7619450000   -11.0301560000
   81      H      -3.7878040000   -15.3204900000   -10.2058750000
   82      H      -2.3157620000   -14.4578870000   -10.6633740000
 ----------------------------------------------------------------

   15   -1565.4910329928      8.12e-09  Convergence criterion met
 Total energy in the final basis set =    -1565.4910329928
   11   -1565.4894113805      6.55e-09  Convergence criterion met
 Total energy in the final basis set =    -1565.5254333455

                    Orbital Energies (a.u.)
 --------------------------------------------------------------

 Alpha MOs
 -- Occupied --
-19.1811 -19.1496 -19.1242 -14.3039 -10.2932 -10.2787 -10.2713 -10.2233
-10.2104 -10.2092 -10.2059 -10.2005 -10.1985 -10.1965 -10.1961 -10.1895
-10.1882 -10.1808 -10.1800 -10.1787 -10.1782 -10.1748 -10.1650 -10.1631
-10.1629 -10.1627 -10.1625 -10.1622 -10.1619 -10.1619 -10.1617 -10.1616
-10.1615 -10.1615 -10.1613 -10.1612 -10.1573  -1.1114  -1.0676  -1.0596
 -0.9172  -0.8916  -0.8616  -0.8377  -0.8175  -0.8110  -0.8005  -0.7902
 -0.7805  -0.7785  -0.7658  -0.7594  -0.7521  -0.7388  -0.7165  -0.7039
 -0.6878  -0.6717  -0.6551  -0.6481  -0.6314  -0.6196  -0.6128  -0.6066
 -0.5978  -0.5838  -0.5821  -0.5801  -0.5779  -0.5736  -0.5724  -0.5719
 -0.5439  -0.5227  -0.5176  -0.5000  -0.4929  -0.4898  -0.4839  -0.4830
 -0.4769  -0.4722  -0.4652  -0.4632  -0.4613  -0.4559  -0.4516  -0.4464
 -0.4446  -0.4393  -0.4360  -0.4339  -0.4298  -0.4268  -0.4239  -0.4228
 -0.4192  -0.4119  -0.4088  -0.4058  -0.4049  -0.4011  -0.3946  -0.3855
 -0.3841  -0.3805  -0.3775  -0.3740  -0.3698  -0.3681  -0.3642  -0.3618
 -0.3512  -0.3498  -0.3491  -0.3456  -0.3440  -0.3374  -0.3361  -0.3301
 -0.3289  -0.3261  -0.3246  -0.3241  -0.3234  -0.3221  -0.3220  -0.3161
 -0.3042  -0.2935  -0.2901  -0.2811  -0.2787  -0.2691  -0.2618  -0.2481
 -0.2298

          Ground-State Mulliken Net Atomic Charges

     Atom                 Charge (a.u.)
  ----------------------------------------
      1 C                     0.469863
      2 C                     0.248603
      3 C                     0.158335
      4 C                     0.579585
      5 C                    -0.260615
      6 C                    -0.177402
      7 C                    -0.304153
      8 C                     0.027052
      9 C                     0.200612
     10 C                    -0.447314
     11 O                    -0.292144
     12 O                    -0.286409
     13 O                    -0.180042
     14 H                     0.236720
     15 H                     0.321596
     16 H                     0.310605
     17 H                     0.194438
     18 H                     0.306921
     19 C                     0.131158
     20 C                    -0.491399
     21 C                    -0.702536
     22 C                    -0.578733
     23 C                    -0.414257
     24 C                    -0.590861
     25 H                     0.197415
     26 H                     0.038544
     27 H                     0.254280
     28 H                     0.257334
     29 H                     0.235374
     30 C                     0.078592
     31 H                     0.258460
     32 N                     0.066247
     33 C                    -0.737788
     34 C                    -0.308161
     35 C                     0.159399
     36 C                    -0.058261
     37 C                    -0.169370
     38 C                    -0.231114
     39 H                     0.406924
     40 H                     0.127582
     41 H                     0.045524
     42 H                     0.095739
     43 H                     0.116775
     44 H                     0.095181
     45 H                     0.101523
     46 H                     0.106533
     47 H                     0.111043
     48 H                     0.115751
     49 H                     0.108985
     50 H                     0.113021
     51 H                     0.115042
     52 C                    -0.333879
     53 C                    -0.339102
     54 C                    -0.268212
     55 C                    -0.192872
     56 C                    -0.022435
     57 C                    -0.025182
     58 C                    -0.146920
     59 C                    -0.399056
     60 C                    -0.287161
     61 C                    -0.648130
     62 H                     0.113835
     63 H                     0.112157
     64 H                     0.111575
     65 H                     0.113443
     66 H                     0.115073
     67 H                     0.113406
     68 H                     0.114894
     69 H                     0.114795
     70 H                     0.114089
     71 H                     0.113131
     72 H                     0.114150
     73 H                     0.114360
     74 H                     0.114363
     75 H                     0.113610
     76 H                     0.105215
     77 H                     0.105117
     78 H                     0.128436
     79 H                     0.128100
     80 H                     0.141189
     81 H                     0.160736
     82 H                     0.141073
  ----------------------------------------
  Sum of atomic charges =    -0.000002

                    Cartesian Multipole Moments
 -----------------------------------------------------------------
    Charge (ESU x 10^10)
                -0.0000
    Dipole Moment (Debye)
         X      -4.1106      Y       0.1893      Z       2.0746
       Tot       4.6083
    Quadrupole Moments (Debye-Ang)
        XX    -228.4285     XY     -10.9619     YY    -232.6890
        XZ     -15.6489     YZ       5.8185     ZZ    -209.5612

 Total job time:  23131.76s(wall), 36031.75s(cpu)
        *  Thank you very much for using Q-Chem.  Have a nice day.  *
