 Q-Chem 5.4, Q-Chem, Inc., Pleasanton, CA (2021)
 Q-Chem 5.4.0 for Intel X86 EM64T Linux

User input:
--------------------------------------------------------------
$molecule
0 1
C                 -1.5538400000      0.3212260000      0.9082720000
C                 -2.0416940000      1.4316730000      0.3284070000
C                 -1.0738680000      2.3692710000     -0.3342830000
O                 -1.4650370000      3.3921870000     -0.8762140000
C                  0.3651990000      2.0311970000     -0.3195760000
C                  0.8530520000      0.9207500000      0.2602880000
C                 -0.1147940000     -0.0169490000      0.9228020000
O                  0.2763860000     -1.0398100000      1.4648290000
H                  1.0013910000      2.7542750000     -0.8167550000
C                  2.3034930000      0.5270220000      0.3057970000
C                  3.2885330000      1.4832280000     -0.3687350000
C                  4.7393720000      0.9965710000     -0.2695690000
C                  5.7450280000      1.9415660000     -0.9377740000
C                  7.1934490000      1.4476630000     -0.8362230000
C                  8.2588030000      2.4041510000     -1.4051990000
C                  9.6690650000      1.9005760000     -1.0666920000
C                  8.1122800000      2.6151030000     -2.9192080000
C                 -3.4921220000      1.8254550000      0.2829860000
C                 -4.4770780000      0.8696660000      0.9582300000
C                 -5.9278850000      1.3564670000      0.8592950000
C                 -6.9334710000      0.4118550000      1.5281480000
C                 -8.3818490000      0.9059410000      1.4268770000
C                 -9.4471710000     -0.0502110000      1.9964740000
C                -10.8574630000      0.4535170000      1.6583220000
C                 -9.3001540000     -0.2607870000      3.5104870000
H                 -2.1900170000     -0.4017950000      1.4055510000
H                  2.3911940000     -0.4752110000     -0.1314970000
H                  2.5775440000      0.3836030000      1.3582600000
H                  3.2116360000      2.4777930000      0.0869210000
H                  3.0222940000      1.6058630000     -1.4254920000
H                  4.8195490000      0.0013310000     -0.7249380000
H                  5.0075460000      0.8693620000      0.7868860000
H                  5.6693920000      2.9346100000     -0.4754590000
H                  5.4648020000      2.0717630000     -1.9891420000
H                  7.2832150000      0.4761470000     -1.3417480000
H                  7.4247830000      1.2607070000      0.2201030000
H                  8.1249220000      3.3783510000     -0.9145500000
H                  9.8045340000      1.7883890000      0.0131890000
H                 10.4354350000      2.5913790000     -1.4305210000
H                  9.8564450000      0.9248080000     -1.5286530000
H                  8.8874790000      3.2887680000     -3.2961850000
H                  7.1447620000      3.0483300000     -3.1841880000
H                  8.2113880000      1.6638990000     -3.4546350000
H                 -3.7663830000      1.9682930000     -0.7695070000
H                 -3.5796840000      2.8279360000      0.7197280000
H                 -4.2105220000      0.7474560000      2.0149580000
H                 -4.4004570000     -0.1251090000      0.5029850000
H                 -6.1963470000      1.4833070000     -0.1971300000
H                 -6.0078030000      2.3518900000      1.3143070000
H                 -6.6529370000      0.2819840000      2.5794740000
H                 -6.8581280000     -0.5813630000      1.0661570000
H                 -8.6134770000      1.0926050000      0.3705640000
H                 -8.4713160000      1.8776260000      1.9321310000
H                 -9.3136250000     -1.0245640000      1.5060360000
H                -11.6238250000     -0.2370630000      2.0225880000
H                -10.9932830000      0.5654540000      0.5784590000
H                -11.0445200000      1.4294350000      2.1201000000
H                -10.0753370000     -0.9342190000      3.8879130000
H                 -9.3989080000      0.6905750000      4.0456970000
H                 -8.3326170000     -0.6941120000      3.7752400000
$end
$rem
MAX_SCF_CYCLES=200
BASIS  =  6-311++G(d,p)
GUI  =  2
JOB_TYPE  =  SP
METHOD  =  B3LYP
SCF_ALGORITHM = DIIS_GDM
THRESH = 14
SOLVENT_METHOD = PCM
$end
$pcm
theory = CPCM
$end
$solvent
dielectric 37.219
opticaldielectric 1.43
$end

--------------------------------------------------------------

             Standard Nuclear Orientation (Angstroms)
    I     Atom           X                Y                Z
 ----------------------------------------------------------------
    1      C      -1.5538400000     0.3212260000     0.9082720000
    2      C      -2.0416940000     1.4316730000     0.3284070000
    3      C      -1.0738680000     2.3692710000    -0.3342830000
    4      O      -1.4650370000     3.3921870000    -0.8762140000
    5      C       0.3651990000     2.0311970000    -0.3195760000
    6      C       0.8530520000     0.9207500000     0.2602880000
    7      C      -0.1147940000    -0.0169490000     0.9228020000
    8      O       0.2763860000    -1.0398100000     1.4648290000
    9      H       1.0013910000     2.7542750000    -0.8167550000
   10      C       2.3034930000     0.5270220000     0.3057970000
   11      C       3.2885330000     1.4832280000    -0.3687350000
   12      C       4.7393720000     0.9965710000    -0.2695690000
   13      C       5.7450280000     1.9415660000    -0.9377740000
   14      C       7.1934490000     1.4476630000    -0.8362230000
   15      C       8.2588030000     2.4041510000    -1.4051990000
   16      C       9.6690650000     1.9005760000    -1.0666920000
   17      C       8.1122800000     2.6151030000    -2.9192080000
   18      C      -3.4921220000     1.8254550000     0.2829860000
   19      C      -4.4770780000     0.8696660000     0.9582300000
   20      C      -5.9278850000     1.3564670000     0.8592950000
   21      C      -6.9334710000     0.4118550000     1.5281480000
   22      C      -8.3818490000     0.9059410000     1.4268770000
   23      C      -9.4471710000    -0.0502110000     1.9964740000
   24      C     -10.8574630000     0.4535170000     1.6583220000
   25      C      -9.3001540000    -0.2607870000     3.5104870000
   26      H      -2.1900170000    -0.4017950000     1.4055510000
   27      H       2.3911940000    -0.4752110000    -0.1314970000
   28      H       2.5775440000     0.3836030000     1.3582600000
   29      H       3.2116360000     2.4777930000     0.0869210000
   30      H       3.0222940000     1.6058630000    -1.4254920000
   31      H       4.8195490000     0.0013310000    -0.7249380000
   32      H       5.0075460000     0.8693620000     0.7868860000
   33      H       5.6693920000     2.9346100000    -0.4754590000
   34      H       5.4648020000     2.0717630000    -1.9891420000
   35      H       7.2832150000     0.4761470000    -1.3417480000
   36      H       7.4247830000     1.2607070000     0.2201030000
   37      H       8.1249220000     3.3783510000    -0.9145500000
   38      H       9.8045340000     1.7883890000     0.0131890000
   39      H      10.4354350000     2.5913790000    -1.4305210000
   40      H       9.8564450000     0.9248080000    -1.5286530000
   41      H       8.8874790000     3.2887680000    -3.2961850000
   42      H       7.1447620000     3.0483300000    -3.1841880000
   43      H       8.2113880000     1.6638990000    -3.4546350000
   44      H      -3.7663830000     1.9682930000    -0.7695070000
   45      H      -3.5796840000     2.8279360000     0.7197280000
   46      H      -4.2105220000     0.7474560000     2.0149580000
   47      H      -4.4004570000    -0.1251090000     0.5029850000
   48      H      -6.1963470000     1.4833070000    -0.1971300000
   49      H      -6.0078030000     2.3518900000     1.3143070000
   50      H      -6.6529370000     0.2819840000     2.5794740000
   51      H      -6.8581280000    -0.5813630000     1.0661570000
   52      H      -8.6134770000     1.0926050000     0.3705640000
   53      H      -8.4713160000     1.8776260000     1.9321310000
   54      H      -9.3136250000    -1.0245640000     1.5060360000
   55      H     -11.6238250000    -0.2370630000     2.0225880000
   56      H     -10.9932830000     0.5654540000     0.5784590000
   57      H     -11.0445200000     1.4294350000     2.1201000000
   58      H     -10.0753370000    -0.9342190000     3.8879130000
   59      H      -9.3989080000     0.6905750000     4.0456970000
   60      H      -8.3326170000    -0.6941120000     3.7752400000
 ----------------------------------------------------------------

   12   -1010.7780107454      9.06e-06  Convergence criterion met
 Total energy in the final basis set =    -1010.7780107454

                    Orbital Energies (a.u.)
 --------------------------------------------------------------

 Alpha MOs
 -- Occupied --
-19.1387 -19.1387 -10.2824 -10.2824 -10.2148 -10.2148 -10.1975 -10.1975
-10.1788 -10.1788 -10.1668 -10.1668 -10.1656 -10.1656 -10.1600 -10.1600
-10.1568 -10.1568 -10.1554 -10.1554 -10.1502 -10.1502 -10.1498 -10.1498
 -1.0703  -1.0685  -0.8653  -0.8291  -0.8127  -0.8090  -0.7911  -0.7772
 -0.7470  -0.7335  -0.7072  -0.6905  -0.6781  -0.6781  -0.6590  -0.6388
 -0.6079  -0.6046  -0.5800  -0.5738  -0.5714  -0.5528  -0.5520  -0.5196
 -0.4969  -0.4837  -0.4814  -0.4767  -0.4644  -0.4600  -0.4524  -0.4473
 -0.4392  -0.4383  -0.4357  -0.4308  -0.4286  -0.4252  -0.4184  -0.4115
 -0.4099  -0.4060  -0.3879  -0.3864  -0.3804  -0.3797  -0.3730  -0.3728
 -0.3674  -0.3662  -0.3511  -0.3499  -0.3441  -0.3432  -0.3353  -0.3342
 -0.3239  -0.3238  -0.3155  -0.3154  -0.3136  -0.3136  -0.3058  -0.3046
 -0.3019  -0.2891  -0.2800  -0.2737

          Ground-State Mulliken Net Atomic Charges

     Atom                 Charge (a.u.)
  ----------------------------------------
      1 C                    -0.733380
      2 C                     0.996645
      3 C                    -0.885092
      4 O                    -0.271508
      5 C                    -0.733411
      6 C                     0.996769
      7 C                    -0.885009
      8 O                    -0.271510
      9 H                     0.244276
     10 C                    -0.231868
     11 C                     0.181637
     12 C                    -0.434859
     13 C                     0.176973
     14 C                    -0.733839
     15 C                     0.496238
     16 C                    -0.673952
     17 C                    -0.704508
     18 C                    -0.231952
     19 C                     0.181894
     20 C                    -0.434961
     21 C                     0.177075
     22 C                    -0.733848
     23 C                     0.496257
     24 C                    -0.673973
     25 C                    -0.704510
     26 H                     0.244280
     27 H                     0.216883
     28 H                     0.214915
     29 H                     0.138741
     30 H                     0.136383
     31 H                     0.147268
     32 H                     0.137267
     33 H                     0.141809
     34 H                     0.115252
     35 H                     0.141352
     36 H                     0.137700
     37 H                     0.143806
     38 H                     0.140341
     39 H                     0.163773
     40 H                     0.145150
     41 H                     0.151658
     42 H                     0.150864
     43 H                     0.149901
     44 H                     0.214958
     45 H                     0.216849
     46 H                     0.136417
     47 H                     0.138699
     48 H                     0.137271
     49 H                     0.147268
     50 H                     0.115241
     51 H                     0.141820
     52 H                     0.137701
     53 H                     0.141348
     54 H                     0.143807
     55 H                     0.163773
     56 H                     0.140341
     57 H                     0.145149
     58 H                     0.151659
     59 H                     0.149904
     60 H                     0.150866
  ----------------------------------------
  Sum of atomic charges =     0.000000

                    Cartesian Multipole Moments
 -----------------------------------------------------------------
    Charge (ESU x 10^10)
                -0.0000
    Dipole Moment (Debye)
         X      -0.0000      Y       0.0000      Z       0.0000
       Tot       0.0000
    Quadrupole Moments (Debye-Ang)
        XX    -143.3384     XY       8.5565     YY    -168.3163
        XZ      -3.7805     YZ       9.4788     ZZ    -157.2952

 Total job time:  398.94s(wall), 2724.28s(cpu)
        *  Thank you very much for using Q-Chem.  Have a nice day.  *
