 Q-Chem 5.4, Q-Chem, Inc., Pleasanton, CA (2021)
 Q-Chem 5.4.0 for Intel X86 EM64T Linux

User input:
--------------------------------------------------------------
$molecule
-2 1
C                  1.6782440000      0.9249320000     -0.6743680000
C                  0.6226150000      1.5665640000      0.0464740000
C                 -0.5309910000      0.9137550000      0.4756560000
C                 -0.7764790000     -0.4766100000      0.2432490000
C                  0.2851340000     -1.1590550000     -0.4567230000
C                  1.4382700000     -0.4836150000     -0.8832860000
O                  2.7310050000      1.5497260000     -1.1074940000
O                 -1.8573360000     -1.0815540000      0.6364230000
C                  0.1086000000     -2.6346710000     -0.7119780000
O                  2.3647550000     -1.2222900000     -1.6380100000
C                  3.6768620000     -1.2582470000     -1.0926170000
H                  0.7500360000      2.6338950000      0.2316010000
H                 -1.3028550000      1.4640080000      1.0152570000
H                 -0.4743460000     -3.0709940000      0.1068800000
H                  1.0704850000     -3.1470860000     -0.8161610000
H                 -0.4635340000     -2.8318790000     -1.6332460000
H                  4.3014840000     -1.8300140000     -1.7907600000
H                  3.6828860000     -1.7806420000     -0.1198330000
H                  4.0652750000     -0.2429120000     -0.9732560000
$end

$rem
Scf_algorithm RCA_DIIS
BASIS  =  6-311++G(d,p)
GUI  =  2
JOB_TYPE  =  SP
METHOD  =  B3LYP
SCF_CONVERGENCE  = 8
SOLVENT_METHOD = sm12
$end

$smx
solvent dimethylformamide
charges CM5
$end

--------------------------------------------------------------

             Standard Nuclear Orientation (Angstroms)
    I     Atom           X                Y                Z
 ----------------------------------------------------------------
    1      C       1.6782440000     0.9249320000    -0.6743680000
    2      C       0.6226150000     1.5665640000     0.0464740000
    3      C      -0.5309910000     0.9137550000     0.4756560000
    4      C      -0.7764790000    -0.4766100000     0.2432490000
    5      C       0.2851340000    -1.1590550000    -0.4567230000
    6      C       1.4382700000    -0.4836150000    -0.8832860000
    7      O       2.7310050000     1.5497260000    -1.1074940000
    8      O      -1.8573360000    -1.0815540000     0.6364230000
    9      C       0.1086000000    -2.6346710000    -0.7119780000
   10      O       2.3647550000    -1.2222900000    -1.6380100000
   11      C       3.6768620000    -1.2582470000    -1.0926170000
   12      H       0.7500360000     2.6338950000     0.2316010000
   13      H      -1.3028550000     1.4640080000     1.0152570000
   14      H      -0.4743460000    -3.0709940000     0.1068800000
   15      H       1.0704850000    -3.1470860000    -0.8161610000
   16      H      -0.4635340000    -2.8318790000    -1.6332460000
   17      H       4.3014840000    -1.8300140000    -1.7907600000
   18      H       3.6828860000    -1.7806420000    -0.1198330000
   19      H       4.0652750000    -0.2429120000    -0.9732560000
 ----------------------------------------------------------------

   36    -535.4149026738      1.87E-09 Convergence criterion met
   44    -535.4064510138      5.21E-09 Convergence criterion met
 Total energy in the final basis set = -535.70766611

                    Orbital Energies (a.u.)
 --------------------------------------------------------------

 Alpha MOs
 -- Occupied --
-19.1278 -19.0223 -19.0205 -10.2110 -10.1910 -10.1813 -10.1813 -10.1667
-10.1475 -10.1423 -10.1400  -1.0356  -0.9330  -0.9294  -0.7966  -0.7472
 -0.7058  -0.6561  -0.6455  -0.5636  -0.5443  -0.4828  -0.4654  -0.4506
 -0.4353  -0.4245  -0.4123  -0.3979  -0.3876  -0.3600  -0.3584  -0.3492
 -0.3338  -0.3287  -0.3136  -0.2759  -0.2317  -0.2163  -0.1987  -0.1955
 -0.1250

          Ground-State Mulliken Net Atomic Charges

     Atom                 Charge (a.u.)
  ----------------------------------------
      1 C                    -0.394567
      2 C                    -0.746147
      3 C                    -0.680607
      4 C                    -2.106842
      5 C                     1.510450
      6 C                    -0.872619
      7 O                    -0.372446
      8 O                    -0.380496
      9 C                     0.826067
     10 O                     0.011877
     11 C                     0.266746
     12 H                    -0.031391
     13 H                    -0.050076
     14 H                     0.142551
     15 H                     0.233752
     16 H                     0.142704
     17 H                     0.305336
     18 H                     0.072993
     19 H                     0.122715
  ----------------------------------------
  Sum of atomic charges =    -2.000000

                    Cartesian Multipole Moments
 -----------------------------------------------------------------
    Charge (ESU x 10^10)
                -9.6064
    Dipole Moment (Debye)
         X      -3.5568      Y      -1.4937      Z       2.7658
       Tot       4.7468
    Quadrupole Moments (Debye-Ang)
        XX    -115.4739     XY     -20.3162     YY     -99.1616
        XZ      18.2390     YZ       4.2910     ZZ     -86.8900

 Total job time:  615.56s(wall), 1382.36s(cpu)
        *  Thank you very much for using Q-Chem.  Have a nice day.  *
