 Gaussian 16, Revision A.03,
 Gaussian 16:  ES64L-G16RevA.03 25-Dec-2016

 --------------------------------------
 #P UB3LYP/6-311++G(d,p) nosym opt freq
 --------------------------------------

 -------
 Radical
 -------
 Symbolic Z-matrix:
 Charge = -1 Multiplicity = 2

 SCF Done:  E(UB3LYP) =  -1454.57416722     A.U. after   21 cycles
 SCF Done:  E(UB3LYP) =  -1454.58371874     A.U. after   17 cycles
 SCF Done:  E(UB3LYP) =  -1454.58443252     A.U. after   15 cycles
 SCF Done:  E(UB3LYP) =  -1454.58449333     A.U. after   14 cycles
 SCF Done:  E(UB3LYP) =  -1454.58449657     A.U. after   13 cycles
 Optimization completed.
    -- Stationary point found.
 Normal termination of Gaussian 16 at Tue Dec 26 20:20:18 2023.

 ----------------------------------------------------------------------
 #P Geom=AllCheck Guess=TCheck SCRF=Check GenChk UB3LYP/6-311++G(d,p) F
 req
 ----------------------------------------------------------------------

 Structure from the checkpoint file:  "232-rad.chk"
 -------
 Radical
 -------
 Charge = -1 Multiplicity = 2

                          Input orientation:
 ---------------------------------------------------------------------
 Center     Atomic      Atomic             Coordinates (Angstroms)
 Number     Number       Type             X           Y           Z
 ---------------------------------------------------------------------
      1          6           0        5.911618   -5.213789    1.114437
      2          6           0        6.801429   -5.084423    0.068671
      3          6           0        6.589654   -4.098177   -0.917904
      4          6           0        4.788924   -4.374900    1.216662
      5          6           0        4.575772   -3.382150    0.223608
      6          6           0        5.493292   -3.265635   -0.834313
      7          6           0        3.859540   -4.543833    2.350116
      8          6           0        2.744372   -3.636145    2.363429
      9          6           0        2.537653   -2.673344    1.400360
     10          6           0        3.414943   -2.473058    0.278782
     11          8           0        4.045077   -5.421889    3.232870
     12          8           0        3.222637   -1.591244   -0.598769
     13          1           0        6.057701   -5.964832    1.880892
     14          1           0        5.314220   -2.502910   -1.581997
     15         17           0        7.710426   -3.906988   -2.269179
     16         17           0        8.195442   -6.165756   -0.009686
     17          1           0        2.049887   -3.745706    3.191609
     18          1           0        1.677663   -2.012020    1.457462
 ---------------------------------------------------------------------

 SCF Done:  E(UB3LYP) =  -1454.58449657     A.U. after    2 cycles

 Alpha  occ. eigenvalues -- -101.45536-101.45536 -18.95338 -18.95338 -10.13622
 Alpha  occ. eigenvalues --  -10.13575 -10.10172 -10.10171 -10.07401 -10.07400
 Alpha  occ. eigenvalues --  -10.06673 -10.06628 -10.04722 -10.04661  -9.36996
 Alpha  occ. eigenvalues --   -9.36995  -7.13443  -7.13443  -7.12493  -7.12493
 Alpha  occ. eigenvalues --   -7.12448  -7.12447  -0.87814  -0.87538  -0.80444
 Alpha  occ. eigenvalues --   -0.75336  -0.73353  -0.68095  -0.64333  -0.61876
 Alpha  occ. eigenvalues --   -0.55826  -0.51735  -0.49619  -0.45370  -0.39649
 Alpha  occ. eigenvalues --   -0.39087  -0.37063  -0.34358  -0.32884  -0.31487
 Alpha  occ. eigenvalues --   -0.31375  -0.31312  -0.28285  -0.28235  -0.28098
 Alpha  occ. eigenvalues --   -0.25581  -0.24793  -0.24448  -0.24108  -0.22738
 Alpha  occ. eigenvalues --   -0.21373  -0.20908  -0.15599  -0.14886  -0.13731
 Alpha  occ. eigenvalues --   -0.12056  -0.11504  -0.03418
 Alpha virt. eigenvalues --    0.07036   0.08492   0.08802   0.09693   0.10590
 Alpha virt. eigenvalues --    0.10908   0.12037   0.13187   0.13993   0.15192
 Alpha virt. eigenvalues --    0.15236   0.16154   0.16405   0.16630   0.17235

  Beta  occ. eigenvalues -- -101.45534-101.45534 -18.94645 -18.94645 -10.13578
  Beta  occ. eigenvalues --  -10.13530 -10.10068 -10.10066 -10.07413 -10.07411
  Beta  occ. eigenvalues --  -10.06598 -10.06552 -10.04574 -10.04512  -9.36994
  Beta  occ. eigenvalues --   -9.36993  -7.13444  -7.13444  -7.12485  -7.12485
  Beta  occ. eigenvalues --   -7.12447  -7.12446  -0.86647  -0.86327  -0.80368
  Beta  occ. eigenvalues --   -0.75300  -0.73118  -0.67613  -0.64191  -0.61666
  Beta  occ. eigenvalues --   -0.54889  -0.51648  -0.49281  -0.45091  -0.39547
  Beta  occ. eigenvalues --   -0.38860  -0.36812  -0.34138  -0.32854  -0.31134
  Beta  occ. eigenvalues --   -0.31103  -0.31059  -0.28131  -0.27402  -0.26885
  Beta  occ. eigenvalues --   -0.24662  -0.24582  -0.23808  -0.22691  -0.22643
  Beta  occ. eigenvalues --   -0.20889  -0.20679  -0.14292  -0.13145  -0.12454
  Beta  occ. eigenvalues --   -0.11404  -0.10864
  Beta virt. eigenvalues --    0.03371   0.07581   0.08523   0.09704   0.10018
  Beta virt. eigenvalues --    0.10600   0.10916   0.12060   0.13203   0.14014
  Beta virt. eigenvalues --    0.15254   0.15343   0.16330   0.16655   0.16957

 Mulliken charges and spin densities:
               1          2
     1  C   -0.762875   0.021175
     2  C    0.768007   0.020979
     3  C    0.767945   0.020979
     4  C   -0.317261   0.039137
     5  C   -0.317075   0.039136
     6  C   -0.762884   0.021172
     7  C   -0.850008   0.052363
     8  C    0.153583   0.124562
     9  C    0.153710   0.124568
    10  C   -0.850002   0.052362
    11  O   -0.393875   0.252377
    12  O   -0.393886   0.252375
    13  H    0.213067  -0.002260
    14  H    0.213056  -0.002261
    15  Cl   0.536972   0.001855
    16  Cl   0.536928   0.001856
    17  H    0.152301  -0.010189
    18  H    0.152297  -0.010188
 Sum of Mulliken charges =  -1.00000   1.00000

 Dipole moment (field-independent basis, Debye):
    X=            -22.3276    Y=             18.5691    Z=             -3.5542  Tot=             29.2569
 Quadrupole moment (field-independent basis, Debye-Ang):
   XX=           -219.5398   YY=           -188.7570   ZZ=           -122.8746
   XY=             95.6852   XZ=            -10.6604   YZ=             26.8287

  Exact polarizability: 195.918 -52.212 152.308 -51.681 -34.811 174.625
 Approx polarizability: 287.211 -79.969 260.813 -63.919 -83.872 291.751

                      1                      2                      3
                      A                      A                      A
 Frequencies --     60.2725                93.2313               131.7614
 Red. masses --     20.7659                 5.7462                13.0223
 Frc consts  --      0.0444                 0.0294                 0.1332
 IR Inten    --      0.0000                 2.7927                 8.8054

                      4                      5                      6
                      A                      A                      A
 Frequencies --    171.4829               195.2610               214.0933
 Red. masses --     13.7778                30.9006                 5.9839
 Frc consts  --      0.2387                 0.6941                 0.1616
 IR Inten    --      0.1175                 0.6267                 0.0000

                      7                      8                      9
                      A                      A                      A
 Frequencies --    297.8002               298.4238               305.1516
 Red. masses --     17.8336                16.7431                 8.3690
 Frc consts  --      0.9318                 0.8785                 0.4591
 IR Inten    --      0.4467                 1.2600                 0.2559

                     10                     11                     12
                      A                      A                      A
 Frequencies --    338.4027               437.4802               442.9838
 Red. masses --      4.9762                 3.3625                11.1983
 Frc consts  --      0.3358                 0.3792                 1.2947
 IR Inten    --      0.0000                 5.0950                18.6978

                     13                     14                     15
                      A                      A                      A
 Frequencies --    455.7459               481.6309               540.8603
 Red. masses --      8.1339                12.2356                 7.9656
 Frc consts  --      0.9954                 1.6723                 1.3729
 IR Inten    --      2.3325                 6.7370                 3.7073

                     16                     17                     18
                      A                      A                      A
 Frequencies --    548.3735               618.0028               629.8605
 Red. masses --      7.5540                 4.4589                 2.3689
 Frc consts  --      1.3384                 1.0034                 0.5537
 IR Inten    --      0.0002                 2.0204                 1.4718

                     19                     20                     21
                      A                      A                      A
 Frequencies --    642.5989               648.7279               727.4472
 Red. masses --      5.6234                 7.4877                 6.7880
 Frc consts  --      1.3681                 1.8566                 2.1164
 IR Inten    --      0.0002                56.4064                 0.0200

                     22                     23                     24
                      A                      A                      A
 Frequencies --    781.7438               788.3182               830.1221
 Red. masses --      5.7462                 7.3083                 1.8753
 Frc consts  --      2.0690                 2.6759                 0.7614
 IR Inten    --      0.0000                43.3551                50.5678

                     25                     26                     27
                      A                      A                      A
 Frequencies --    877.8709               911.5601               935.6316
 Red. masses --      7.7316                 1.3711                 1.4153
 Frc consts  --      3.5106                 0.6712                 0.7300
 IR Inten    --     66.4274                 0.0000                19.7121

                     28                     29                     30
                      A                      A                      A
 Frequencies --    938.4365              1061.4193              1089.0614
 Red. masses --      1.2808                 2.1877                 4.9880
 Frc consts  --      0.6646                 1.4521                 3.4857
 IR Inten    --      0.0000                 3.6672                10.3554

                     31                     32                     33
                      A                      A                      A
 Frequencies --   1106.8455              1171.9432              1216.4807
 Red. masses --      1.6576                 2.6054                 3.4058
 Frc consts  --      1.1965                 2.1083                 2.9695
 IR Inten    --     19.5201                29.8391                17.7934

                     34                     35                     36
                      A                      A                      A
 Frequencies --   1228.6991              1256.8821              1341.7126
 Red. masses --      1.2776                 3.0435                10.3039
 Frc consts  --      1.1364                 2.8328                10.9287
 IR Inten    --      4.6443                22.9764                 3.6161

                     37                     38                     39
                      A                      A                      A
 Frequencies --   1378.2302              1427.9225              1445.6639
 Red. masses --      2.7222                 6.6259                 2.9057
 Frc consts  --      3.0466                 7.9598                 3.5780
 IR Inten    --      0.0007                81.5417               147.8118

                     40                     41                     42
                      A                      A                      A
 Frequencies --   1496.6732              1525.7353              1528.0856
 Red. masses --      8.3950                 8.9658                 6.6528
 Frc consts  --     11.0796                12.2970                 9.1527
 IR Inten    --      0.3984                47.2356               579.0091

                     43                     44                     45
                      A                      A                      A
 Frequencies --   1605.8926              1622.0939              3138.3707
 Red. masses --      7.5869                 8.1049                 1.0852
 Frc consts  --     11.5279                12.5647                 6.2978
 IR Inten    --     25.7341                18.1224                20.2757

                     46                     47                     48
                      A                      A                      A
 Frequencies --   3159.2560              3195.4172              3197.1473
 Red. masses --      1.0936                 1.0900                 1.0904
 Frc consts  --      6.4311                 6.5573                 6.5670
 IR Inten    --     41.9371                 0.5323                 8.9274

 - Thermochemistry -
 -------------------
 Temperature   298.150 Kelvin.  Pressure   1.00000 Atm.
 Atom     1 has atomic number  6 and mass  12.00000

 Molecular mass:   225.95883 amu.
 Principal axes and moments of inertia in atomic units:
                           1         2         3
     Eigenvalues --  2045.921744602.796056648.71759
           X            0.83077   0.15009   0.53600
           Y           -0.29424  -0.69900   0.65178
           Z           -0.47249   0.69919   0.53654
 This molecule is an asymmetric top.
 Rotational symmetry number  1.
 Warning -- assumption of classical behavior for rotation
           may cause significant error
 Rotational temperatures (Kelvin)      0.04233     0.01882     0.01303
 Rotational constants (GHZ):           0.88212     0.39210     0.27144
 Zero-point vibrational energy     290314.6 (Joules/Mol)
                                   69.38685 (Kcal/Mol)
 Warning -- explicit consideration of  17 degrees of freedom as
           vibrations may cause significant error
 Vibrational temperatures:     86.72   134.14   189.58   246.73   280.94
          (Kelvin)            308.03   428.47   429.37   439.05   486.89
                              629.44   637.35   655.72   692.96   778.18
                              788.99   889.17   906.23   924.56   933.37
                             1046.63  1124.75  1134.21  1194.36  1263.06
                             1311.53  1346.17  1350.20  1527.15  1566.92
                             1592.50  1686.16  1750.24  1767.82  1808.37
                             1930.43  1982.97  2054.46  2079.99  2153.38
                             2195.19  2198.57  2310.52  2333.83  4515.42
                             4545.46  4597.49  4599.98

 Zero-point correction=                           0.110575 (Hartree/Particle)
 Thermal correction to Energy=                    0.121721
 Thermal correction to Enthalpy=                  0.122665
 Thermal correction to Gibbs Free Energy=         0.071931
 Sum of electronic and zero-point Energies=          -1454.473922
 Sum of electronic and thermal Energies=             -1454.462775
 Sum of electronic and thermal Enthalpies=           -1454.461831
 Sum of electronic and thermal Free Energies=        -1454.512566

                     E (Thermal)             CV                S
                      KCal/Mol        Cal/Mol-Kelvin    Cal/Mol-Kelvin
 Total                   76.381             42.560            106.780
 Electronic               0.000              0.000              1.377
 Translational            0.889              2.981             42.148
 Rotational               0.889              2.981             32.504
 Vibrational             74.604             36.598             30.750
 Vibration     1          0.597              1.973              4.448
 Vibration     2          0.602              1.954              3.591
 Vibration     3          0.612              1.922              2.920
 Vibration     4          0.626              1.878              2.419
 Vibration     5          0.636              1.846              2.177
 Vibration     6          0.644              1.819              2.008
 Vibration     7          0.691              1.678              1.429
 Vibration     8          0.692              1.677              1.426
 Vibration     9          0.696              1.664              1.388
 Vibration    10          0.719              1.599              1.220
 Vibration    11          0.798              1.388              0.835
 Vibration    12          0.803              1.376              0.817
 Vibration    13          0.814              1.348              0.779
 Vibration    14          0.838              1.291              0.706
 Vibration    15          0.896              1.160              0.563
 Vibration    16          0.904              1.143              0.548
 Vibration    17          0.978              0.994              0.420

 Optimization completed.
    -- Stationary point found.
 Normal termination of Gaussian 16 at Tue Dec 26 20:41:26 2023.
