 Gaussian 16, Revision A.03,
 Gaussian 16:  ES64L-G16RevA.03 25-Dec-2016

 ----------------------------------------------------------------
 #P UB3LYP/6-311++G(d,p) SCRF=(PCM,Solvent=n,n-DiMethylFormamide)
 ----------------------------------------------------------------

 ------------------
 Quinone PCM in DMF
 ------------------
 Symbolic Z-matrix:
 Charge =  0 Multiplicity = 1

                         Standard orientation:
 ---------------------------------------------------------------------
 Center     Atomic      Atomic             Coordinates (Angstroms)
 Number     Number       Type             X           Y           Z
 ---------------------------------------------------------------------
      1          6           0       -2.485021   -0.466787   -0.324103
      2          6           0       -3.671427    0.238282   -0.189914
      3          6           0       -3.694699    1.609749    0.067925
      4          6           0       -1.275109    0.218649   -0.188128
      5          6           0       -1.278371    1.599283    0.075727
      6          6           0       -2.489690    2.286665    0.199797
      7          6           0        0.000453   -0.545268   -0.330080
      8          6           0        1.275643    0.219153   -0.187496
      9          6           0        1.278210    1.599706    0.076947
     10          6           0       -0.000272    2.360377    0.224895
     11          6           0        2.485849   -0.465692   -0.323285
     12          6           0        2.489185    2.287379    0.202433
     13          6           0        3.694575    1.610946    0.071092
     14          8           0        0.000740   -1.741878   -0.549797
     15          8           0       -0.000575    3.555050    0.458251
     16          1           0       -2.477513   -1.527758   -0.539524
     17         16           0       -5.229562   -0.637131   -0.361014
     18          1           0        4.641509    2.129026    0.154995
     19          1           0       -2.466359    3.350868    0.397434
     20          1           0        2.478778   -1.526507   -0.539489
     21          1           0        2.465380    3.351448    0.400734
     22          6           0        3.671954    0.239746   -0.187989
     23         16           0        5.230347   -0.634955   -0.360251
     24          8           0        5.052495   -1.799684   -1.214360
     25          8           0        6.290503    0.323692   -0.638064
     26          8           0        5.353834   -1.133217    1.196311
     27          6           0        6.483016   -1.992915    1.500869
     28          1           0        6.425664   -2.911988    0.916011
     29          1           0        6.384623   -2.213003    2.561228
     30          1           0        7.420514   -1.468140    1.309850
     31          1           0       -4.641845    2.127658    0.150525
     32          8           0       -5.050374   -1.805986   -1.209165
     33          8           0       -6.289335    0.320083   -0.645167
     34          8           0       -5.355931   -1.127746    1.197789
     35          6           0       -6.486350   -1.984884    1.504845
     36          1           0       -6.429721   -2.906347    0.923674
     37          1           0       -7.423076   -1.459733    1.311078
     38          1           0       -6.389046   -2.201007    2.566122
 ---------------------------------------------------------------------

 SCF Done:  E(UB3LYP) =  -2015.36999266     A.U. after   16 cycles

 The electronic state is 1-A.
 Alpha  occ. eigenvalues --  -89.10533 -89.10533 -19.19221 -19.19218 -19.15328
 Alpha  occ. eigenvalues --  -19.15327 -19.15296 -19.15295 -19.15040 -19.14850
 Alpha  occ. eigenvalues --  -10.30212 -10.30141 -10.25132 -10.25131 -10.24007
 Alpha  occ. eigenvalues --  -10.24006 -10.23312 -10.23311 -10.23211 -10.23210
 Alpha  occ. eigenvalues --  -10.22888 -10.22887 -10.22782 -10.22781 -10.21921
 Alpha  occ. eigenvalues --  -10.21921  -8.16628  -8.16628  -6.12991  -6.12990
 Alpha  occ. eigenvalues --   -6.12823  -6.12823  -6.12702  -6.12702  -1.17469
 Alpha  occ. eigenvalues --   -1.17469  -1.08574  -1.08374  -1.06424  -1.06422
 Alpha  occ. eigenvalues --   -1.04808  -1.04807  -0.92222  -0.91369  -0.84922
 Alpha  occ. eigenvalues --   -0.81923  -0.80796  -0.80195  -0.76455  -0.75351
 Alpha  occ. eigenvalues --   -0.71437  -0.70284  -0.68524  -0.65354  -0.64453
 Alpha  occ. eigenvalues --   -0.62829  -0.61000  -0.58983  -0.58742  -0.55531
 Alpha  occ. eigenvalues --   -0.55200  -0.53925  -0.53570  -0.53063  -0.51575
 Alpha  occ. eigenvalues --   -0.50449  -0.50429  -0.48845  -0.48205  -0.47670
 Alpha  occ. eigenvalues --   -0.47510  -0.47402  -0.47341  -0.47053  -0.47021
 Alpha  occ. eigenvalues --   -0.46623  -0.46313  -0.44217  -0.43668  -0.42965
 Alpha  occ. eigenvalues --   -0.42122  -0.42015  -0.41705  -0.40369  -0.39740
 Alpha  occ. eigenvalues --   -0.39422  -0.37158  -0.37151  -0.36767  -0.36703
 Alpha  occ. eigenvalues --   -0.35541  -0.35520  -0.35209  -0.35201  -0.31941
 Alpha  occ. eigenvalues --   -0.31939  -0.31333  -0.30621  -0.30541  -0.30132
 Alpha  occ. eigenvalues --   -0.29958  -0.29365
 Alpha virt. eigenvalues --   -0.13906  -0.09990  -0.07558  -0.05052  -0.01749
 Alpha virt. eigenvalues --   -0.01376  -0.01070   0.00349   0.00833   0.01092
 Alpha virt. eigenvalues --    0.01372   0.01744   0.01824   0.02483   0.02634

  Beta  occ. eigenvalues --  -89.10533 -89.10533 -19.19221 -19.19218 -19.15328
  Beta  occ. eigenvalues --  -19.15327 -19.15296 -19.15295 -19.15040 -19.14850
  Beta  occ. eigenvalues --  -10.30212 -10.30141 -10.25132 -10.25131 -10.24007
  Beta  occ. eigenvalues --  -10.24006 -10.23312 -10.23311 -10.23211 -10.23210
  Beta  occ. eigenvalues --  -10.22888 -10.22887 -10.22782 -10.22781 -10.21921
  Beta  occ. eigenvalues --  -10.21921  -8.16628  -8.16628  -6.12991  -6.12990
  Beta  occ. eigenvalues --   -6.12823  -6.12823  -6.12702  -6.12702  -1.17469
  Beta  occ. eigenvalues --   -1.17469  -1.08574  -1.08374  -1.06424  -1.06422
  Beta  occ. eigenvalues --   -1.04808  -1.04807  -0.92222  -0.91369  -0.84922
  Beta  occ. eigenvalues --   -0.81923  -0.80796  -0.80195  -0.76455  -0.75351
  Beta  occ. eigenvalues --   -0.71437  -0.70284  -0.68524  -0.65354  -0.64453
  Beta  occ. eigenvalues --   -0.62829  -0.61000  -0.58983  -0.58742  -0.55531
  Beta  occ. eigenvalues --   -0.55200  -0.53925  -0.53570  -0.53063  -0.51575
  Beta  occ. eigenvalues --   -0.50449  -0.50429  -0.48845  -0.48205  -0.47670
  Beta  occ. eigenvalues --   -0.47510  -0.47402  -0.47341  -0.47053  -0.47021
  Beta  occ. eigenvalues --   -0.46623  -0.46313  -0.44217  -0.43668  -0.42965
  Beta  occ. eigenvalues --   -0.42122  -0.42015  -0.41705  -0.40369  -0.39740
  Beta  occ. eigenvalues --   -0.39422  -0.37158  -0.37151  -0.36767  -0.36703
  Beta  occ. eigenvalues --   -0.35541  -0.35520  -0.35209  -0.35201  -0.31941
  Beta  occ. eigenvalues --   -0.31939  -0.31333  -0.30621  -0.30541  -0.30132
  Beta  occ. eigenvalues --   -0.29958  -0.29365
  Beta virt. eigenvalues --   -0.13906  -0.09990  -0.07558  -0.05052  -0.01749
  Beta virt. eigenvalues --   -0.01376  -0.01070   0.00349   0.00833   0.01092
  Beta virt. eigenvalues --    0.01372   0.01744   0.01824   0.02483   0.02634

 Mulliken charges and spin densities:
               1          2
     1  C   -0.006641  -0.000000
     2  C   -0.703024  -0.000000
     3  C   -0.278012  -0.000000
     4  C    0.446948   0.000000
     5  C    0.431775   0.000000
     6  C    0.002068  -0.000000
     7  C   -0.883964  -0.000000
     8  C    0.443207   0.000000
     9  C    0.429651  -0.000000
    10  C   -0.452310  -0.000000
    11  C   -0.010516  -0.000000
    12  C    0.004400   0.000000
    13  C   -0.275895   0.000000
    14  O   -0.218166   0.000000
    15  O   -0.226187   0.000000
    16  H    0.234325  -0.000000
    17  S    0.329244  -0.000000
    18  H    0.259327   0.000000
    19  H    0.202679  -0.000000
    20  H    0.234194   0.000000
    21  H    0.202726  -0.000000
    22  C   -0.701956  -0.000000
    23  S    0.332565  -0.000000
    24  O   -0.209653  -0.000000
    25  O   -0.168499  -0.000000
    26  O   -0.057213  -0.000000
    27  C   -0.146217  -0.000000
    28  H    0.179521   0.000000
    29  H    0.194353  -0.000000
    30  H    0.179225   0.000000
    31  H    0.259351  -0.000000
    32  O   -0.209049   0.000000
    33  O   -0.169064   0.000000
    34  O   -0.056670   0.000000
    35  C   -0.145567   0.000000
    36  H    0.179517  -0.000000
    37  H    0.179181   0.000000
    38  H    0.194344   0.000000
 Sum of Mulliken charges =  -0.00000   0.00000

 Dipole moment (field-independent basis, Debye):
    X=             -0.0047    Y=              1.4867    Z=              6.4381  Tot=              6.6075
 Quadrupole moment (field-independent basis, Debye-Ang):
   XX=           -169.1381   YY=           -166.6462   ZZ=           -165.5930
   XY=             -0.0948   XZ=             -0.0372   YZ=            -14.3800

 Normal termination of Gaussian 16 at Tue Jan 16 05:27:15 2024.
