 Q-Chem 5.4, Q-Chem, Inc., Pleasanton, CA (2021)
 Q-Chem 5.4.0 for Intel X86 EM64T Linux

User input:
--------------------------------------------------------------
$molecule
-2 1
C                 -1.6782070000      2.9506860000     -0.7107820000
C                 -2.8261250000      2.2644180000     -0.3800690000
C                 -2.7307070000      0.9043680000      0.0216460000
C                 -0.3814050000      2.3678040000     -0.6557090000
C                 -0.2800620000      0.9902580000     -0.1960010000
C                 -1.4894290000      0.2951930000      0.1213840000
C                  0.7597860000      3.1926450000     -1.0555150000
C                  2.0988210000      2.5877010000     -0.9092420000
C                  2.1371950000      1.2290610000     -0.4505150000
C                  1.0416630000      0.4429840000     -0.1029720000
O                  0.5999500000      4.3850140000     -1.4933060000
O                  3.1843250000      3.2260520000     -1.1937920000
H                 -1.7316960000      3.9927050000     -1.0186710000
H                 -3.7948370000      2.7581340000     -0.4190510000
S                 -4.2937870000      0.0301480000      0.3858800000
H                 -1.4332240000     -0.7375980000      0.4423380000
H                  3.1244770000      0.7882570000     -0.3626240000
S                  1.4111200000     -1.2842060000      0.4108060000
O                  2.9126860000     -1.4119830000      0.4313800000
O                  0.8025950000     -2.2035720000     -0.6088370000
O                  0.8289830000     -1.4897450000      1.7785550000
O                 -4.9372880000      0.7576670000      1.5358390000
O                 -3.9608770000     -1.3864270000      0.7271300000
O                 -5.1371850000      0.1363770000     -0.8569520000
$end
$rem
MAX_SCF_CYCLES=200
BASIS  =  6-311++G(d,p)
GUI  =  2
JOB_TYPE  =  SP
METHOD  =  B3LYP
SOLVENT_METHOD = PCM
$end
$pcm
theory = CPCM
$end
$solvent
dielectric 37.219
opticaldielectric 1.43
$end

--------------------------------------------------------------

             Standard Nuclear Orientation (Angstroms)
    I     Atom           X                Y                Z
 ----------------------------------------------------------------
    1      C      -1.6782070000     2.9506860000    -0.7107820000
    2      C      -2.8261250000     2.2644180000    -0.3800690000
    3      C      -2.7307070000     0.9043680000     0.0216460000
    4      C      -0.3814050000     2.3678040000    -0.6557090000
    5      C      -0.2800620000     0.9902580000    -0.1960010000
    6      C      -1.4894290000     0.2951930000     0.1213840000
    7      C       0.7597860000     3.1926450000    -1.0555150000
    8      C       2.0988210000     2.5877010000    -0.9092420000
    9      C       2.1371950000     1.2290610000    -0.4505150000
   10      C       1.0416630000     0.4429840000    -0.1029720000
   11      O       0.5999500000     4.3850140000    -1.4933060000
   12      O       3.1843250000     3.2260520000    -1.1937920000
   13      H      -1.7316960000     3.9927050000    -1.0186710000
   14      H      -3.7948370000     2.7581340000    -0.4190510000
   15      S      -4.2937870000     0.0301480000     0.3858800000
   16      H      -1.4332240000    -0.7375980000     0.4423380000
   17      H       3.1244770000     0.7882570000    -0.3626240000
   18      S       1.4111200000    -1.2842060000     0.4108060000
   19      O       2.9126860000    -1.4119830000     0.4313800000
   20      O       0.8025950000    -2.2035720000    -0.6088370000
   21      O       0.8289830000    -1.4897450000     1.7785550000
   22      O      -4.9372880000     0.7576670000     1.5358390000
   23      O      -3.9608770000    -1.3864270000     0.7271300000
   24      O      -5.1371850000     0.1363770000    -0.8569520000
 ----------------------------------------------------------------

   10   -1782.1712695836      5.40e-06  Convergence criterion met
 Total energy in the final basis set =    -1782.1712695836

                    Orbital Energies (a.u.)
 --------------------------------------------------------------

 Alpha MOs
 -- Occupied --
-89.0637 -89.0569 -19.1524 -19.1497 -19.1047 -19.1041 -19.1002 -19.0991
-19.0968 -19.0967 -10.2981 -10.2928 -10.2555 -10.2376 -10.2335 -10.2232
-10.2165 -10.2105 -10.2100 -10.2093  -8.1218  -8.1152  -6.0843  -6.0842
 -6.0840  -6.0779  -6.0777  -6.0773  -1.1141  -1.1095  -1.0593  -1.0298
 -0.9783  -0.9751  -0.9747  -0.9692  -0.9043  -0.8538  -0.7998  -0.7730
 -0.7496  -0.6755  -0.6576  -0.6470  -0.5992  -0.5810  -0.5511  -0.5307
 -0.5168  -0.4978  -0.4865  -0.4701  -0.4657  -0.4629  -0.4593  -0.4582
 -0.4541  -0.4511  -0.4480  -0.4269  -0.4146  -0.4031  -0.3841  -0.3814
 -0.3514  -0.3414  -0.3408  -0.3377  -0.3369  -0.3220  -0.3107  -0.3085
 -0.3060  -0.3013  -0.2989  -0.2963  -0.2830  -0.2802  -0.2636  -0.2598
 -0.2590

          Ground-State Mulliken Net Atomic Charges

     Atom                 Charge (a.u.)
  ----------------------------------------
      1 C                     0.006070
      2 C                    -0.498514
      3 C                    -0.144714
      4 C                     1.307037
      5 C                     0.005805
      6 C                    -0.363331
      7 C                    -0.917730
      8 C                     0.240059
      9 C                     0.338522
     10 C                    -1.212529
     11 O                    -0.297597
     12 O                    -0.338640
     13 H                     0.208225
     14 H                     0.282763
     15 S                     0.655489
     16 H                     0.238865
     17 H                     0.297406
     18 S                     0.596843
     19 O                    -0.387290
     20 O                    -0.381316
     21 O                    -0.396010
     22 O                    -0.402045
     23 O                    -0.426762
     24 O                    -0.410607
  ----------------------------------------
  Sum of atomic charges =    -2.000000

                    Cartesian Multipole Moments
 -----------------------------------------------------------------
    Charge (ESU x 10^10)
                -9.6064
    Dipole Moment (Debye)
         X      11.2179      Y       5.6597      Z      -3.1348
       Tot      12.9499
    Quadrupole Moments (Debye-Ang)
        XX    -278.4666     XY     -13.6578     YY    -184.3886
        XZ      14.3547     YZ      14.5872     ZZ    -155.0557

 Total job time:  56.09s(wall), 399.53s(cpu)
        *  Thank you very much for using Q-Chem.  Have a nice day.  *
