 Gaussian 16, Revision A.03,
 Gaussian 16:  ES64L-G16RevA.03 25-Dec-2016

 ----------------------------------------------------------------------
 #P UB3LYP/6-311++G(d,p) nosym opt freq SCRF=(PCM,Solvent=n,n-DiMethylF
 ormamide)
 ----------------------------------------------------------------------

 -------
 Radical
 -------
 Symbolic Z-matrix:
 Charge = -1 Multiplicity = 2

 SCF Done:  E(UB3LYP) =  -5761.14574605     A.U. after   17 cycles
 SCF Done:  E(UB3LYP) =  -5761.14599008     A.U. after   13 cycles
 SCF Done:  E(UB3LYP) =  -5761.14602167     A.U. after   12 cycles
 SCF Done:  E(UB3LYP) =  -5761.14602403     A.U. after   11 cycles
 SCF Done:  E(UB3LYP) =  -5761.14602436     A.U. after    9 cycles
 SCF Done:  E(UB3LYP) =  -5761.14602459     A.U. after    9 cycles
 SCF Done:  E(UB3LYP) =  -5761.14602492     A.U. after    9 cycles
 SCF Done:  E(UB3LYP) =  -5761.14602530     A.U. after    9 cycles
 SCF Done:  E(UB3LYP) =  -5761.14602596     A.U. after   10 cycles
 SCF Done:  E(UB3LYP) =  -5761.14602625     A.U. after    9 cycles
 SCF Done:  E(UB3LYP) =  -5761.14602658     A.U. after   10 cycles
 SCF Done:  E(UB3LYP) =  -5761.14602670     A.U. after    9 cycles
 SCF Done:  E(UB3LYP) =  -5761.14602675     A.U. after    9 cycles
 SCF Done:  E(UB3LYP) =  -5761.14602679     A.U. after    9 cycles
 SCF Done:  E(UB3LYP) =  -5761.14602682     A.U. after    8 cycles
 Optimization completed.
    -- Stationary point found.
 Normal termination of Gaussian 16 at Sun Feb 11 01:46:19 2024.

 ----------------------------------------------------------------------
 #P Geom=AllCheck Guess=TCheck SCRF=Check GenChk UB3LYP/6-311++G(d,p) F
 req
 ----------------------------------------------------------------------

 Structure from the checkpoint file:  "235-rad.chk"
 -------
 Radical
 -------
 Charge = -1 Multiplicity = 2

                          Input orientation:
 ---------------------------------------------------------------------
 Center     Atomic      Atomic             Coordinates (Angstroms)
 Number     Number       Type             X           Y           Z
 ---------------------------------------------------------------------
      1          6           0        5.855986   -5.212583    1.173929
      2          6           0        6.763861   -5.120007    0.136938
      3          6           0        6.573644   -4.158236   -0.877883
      4          6           0        4.738821   -4.360923    1.239527
      5          6           0        4.548225   -3.395982    0.221444
      6          6           0        5.480775   -3.314978   -0.827854
      7          6           0        3.792106   -4.482576    2.354284
      8          6           0        2.666584   -3.573557    2.356102
      9          6           0        2.481475   -2.622524    1.357231
     10          6           0        3.398085   -2.484896    0.246702
     11          8           0        3.973610   -5.349993    3.259631
     12          8           0        3.237977   -1.627374   -0.671967
     13          1           0        5.990203   -5.946136    1.957834
     14          1           0        5.322541   -2.573103   -1.599292
     15         35           0        8.259684   -6.323793    0.132547
     16         35           0        7.793863   -3.972836   -2.348485
     17          6           0        1.681837   -3.686796    3.492957
     18          6           0        1.296032   -1.690911    1.401167
     19          1           0        1.967064   -4.500048    4.158327
     20          1           0        0.666775   -3.875496    3.127096
     21          1           0        1.636592   -2.761597    4.078505
     22          1           0        0.350465   -2.241642    1.339324
     23          1           0        1.338091   -0.988561    0.570086
     24          1           0        1.266511   -1.122885    2.337101
 ---------------------------------------------------------------------

 SCF Done:  E(UB3LYP) =  -5761.14602682     A.U. after    1 cycles

 Alpha  occ. eigenvalues -- -482.83726-482.83726 -62.49007 -62.49006 -56.31042
 Alpha  occ. eigenvalues --  -56.31042 -56.30660 -56.30659 -56.30639 -56.30638
 Alpha  occ. eigenvalues --  -19.07676 -19.07673 -10.24247 -10.24200 -10.22322
 Alpha  occ. eigenvalues --  -10.22316 -10.18844 -10.18836 -10.18293 -10.18246
 Alpha  occ. eigenvalues --  -10.17220 -10.17165 -10.15417 -10.15414  -8.69976
 Alpha  occ. eigenvalues --   -8.69975  -6.53114  -6.53114  -6.51839  -6.51838
 Alpha  occ. eigenvalues --   -6.51787  -6.51787  -2.64208  -2.64207  -2.63849
 Alpha  occ. eigenvalues --   -2.63848  -2.63812  -2.63811  -2.62797  -2.62796
 Alpha  occ. eigenvalues --   -2.62796  -2.62796  -1.00051  -0.99766  -0.89195
 Alpha  occ. eigenvalues --   -0.83384  -0.81352  -0.80503  -0.75017  -0.74244
 Alpha  occ. eigenvalues --   -0.72542  -0.67446  -0.65596  -0.61637  -0.58664
 Alpha  occ. eigenvalues --   -0.55811  -0.51559  -0.48435  -0.48311  -0.45134
 Alpha  occ. eigenvalues --   -0.44189  -0.43979  -0.42627  -0.41320  -0.41257
 Alpha  occ. eigenvalues --   -0.39735  -0.38968  -0.38938  -0.38237  -0.37933
 Alpha  occ. eigenvalues --   -0.36992  -0.36945  -0.34685  -0.34626  -0.32437
 Alpha  occ. eigenvalues --   -0.31474  -0.31309  -0.28644  -0.26466  -0.26003
 Alpha  occ. eigenvalues --   -0.24865  -0.24139  -0.23783  -0.15484
 Alpha virt. eigenvalues --   -0.04587  -0.03926  -0.02595  -0.00544   0.00284
 Alpha virt. eigenvalues --    0.00487   0.01449   0.02812   0.03076   0.03153
 Alpha virt. eigenvalues --    0.03764   0.04348   0.05055   0.05119   0.05150

  Beta  occ. eigenvalues -- -482.83725-482.83725 -62.49006 -62.49006 -56.31043
  Beta  occ. eigenvalues --  -56.31042 -56.30657 -56.30657 -56.30638 -56.30638
  Beta  occ. eigenvalues --  -19.07042 -19.07040 -10.24201 -10.24154 -10.22159
  Beta  occ. eigenvalues --  -10.22153 -10.18848 -10.18840 -10.18222 -10.18174
  Beta  occ. eigenvalues --  -10.17102 -10.17046 -10.15427 -10.15424  -8.69975
  Beta  occ. eigenvalues --   -8.69974  -6.53115  -6.53114  -6.51834  -6.51833
  Beta  occ. eigenvalues --   -6.51786  -6.51786  -2.64208  -2.64207  -2.63846
  Beta  occ. eigenvalues --   -2.63845  -2.63812  -2.63812  -2.62794  -2.62794
  Beta  occ. eigenvalues --   -2.62793  -2.62793  -0.98957  -0.98638  -0.89065
  Beta  occ. eigenvalues --   -0.82973  -0.81291  -0.80342  -0.74854  -0.74064
  Beta  occ. eigenvalues --   -0.72228  -0.67282  -0.64925  -0.61577  -0.58313
  Beta  occ. eigenvalues --   -0.55490  -0.51411  -0.48203  -0.48082  -0.44995
  Beta  occ. eigenvalues --   -0.44145  -0.43236  -0.42319  -0.40959  -0.40733
  Beta  occ. eigenvalues --   -0.39186  -0.38824  -0.38799  -0.38163  -0.36918
  Beta  occ. eigenvalues --   -0.36742  -0.34847  -0.34519  -0.34378  -0.32189
  Beta  occ. eigenvalues --   -0.31466  -0.30462  -0.28631  -0.25431  -0.24422
  Beta  occ. eigenvalues --   -0.24278  -0.23245  -0.23206
  Beta virt. eigenvalues --   -0.08918  -0.03977  -0.03879  -0.01474  -0.00520
  Beta virt. eigenvalues --    0.00328   0.00491   0.01470   0.02818   0.03177
  Beta virt. eigenvalues --    0.03210   0.03788   0.04455   0.05145   0.05248

 Mulliken charges and spin densities:
               1          2
     1  C   -0.205055   0.018707
     2  C    0.070985   0.025991
     3  C    0.068329   0.026134
     4  C    0.438540   0.037481
     5  C    0.442753   0.037659
     6  C   -0.203459   0.018584
     7  C   -1.257625   0.071215
     8  C    0.907147   0.110195
     9  C    0.909275   0.110060
    10  C   -1.258894   0.071037
    11  O   -0.464473   0.231958
    12  O   -0.464394   0.231849
    13  H    0.220782  -0.002333
    14  H    0.220926  -0.002326
    15  Br  -0.158887   0.001710
    16  Br  -0.158729   0.001718
    17  C   -0.545094  -0.001493
    18  C   -0.544101  -0.001506
    19  H    0.184809  -0.001384
    20  H    0.150954   0.003816
    21  H    0.155141   0.004241
    22  H    0.156452   0.004330
    23  H    0.184893  -0.001365
    24  H    0.149724   0.003725
 Sum of Mulliken charges =  -1.00000   1.00000

 Dipole moment (field-independent basis, Debye):
    X=            -22.0040    Y=             18.5177    Z=             -3.6711  Tot=             28.9924
 Quadrupole moment (field-independent basis, Debye-Ang):
   XX=           -234.1428   YY=           -212.4776   ZZ=           -147.3354
   XY=             91.7900   XZ=            -15.0426   YZ=             29.8604

  Exact polarizability: 352.018 -93.512 274.148 -87.556 -61.073 315.876
 Approx polarizability: 356.450 -89.505 312.269 -73.180 -83.410 352.961

                      1                      2                      3
                      A                      A                      A
 Frequencies --     42.5042                54.4929                61.7975
 Red. masses --      7.9477                 2.9588                 1.2930
 Frc consts  --      0.0085                 0.0052                 0.0029
 IR Inten    --      0.0197                 7.1803                 1.6336

                      4                      5                      6
                      A                      A                      A
 Frequencies --    120.6666               124.6732               126.3533
 Red. masses --      5.4386                51.2337                 3.3005
 Frc consts  --      0.0467                 0.4692                 0.0310
 IR Inten    --     10.3095                 1.0089                 0.7398

                      7                      8                      9
                      A                      A                      A
 Frequencies --    127.4530               134.1088               203.0117
 Red. masses --      9.5594                 1.1845                 5.6647
 Frc consts  --      0.0915                 0.0126                 0.1376
 IR Inten    --      0.8035                 1.6213                 0.0082

                     10                     11                     12
                      A                      A                      A
 Frequencies --    222.8054               231.6843               233.3384
 Red. masses --     15.1098                12.9492                 4.4168
 Frc consts  --      0.4419                 0.4095                 0.1417
 IR Inten    --      3.3041                 0.0235                 0.7103

                     13                     14                     15
                      A                      A                      A
 Frequencies --    328.0673               338.1269               342.4210
 Red. masses --      2.6460                 3.8370                 6.3083
 Frc consts  --      0.1678                 0.2585                 0.4358
 IR Inten    --      0.5442                 5.3706                 6.6429

                     16                     17                     18
                      A                      A                      A
 Frequencies --    410.9341               412.4129               441.1648
 Red. masses --      8.6917                 7.7865                 3.2603
 Frc consts  --      0.8648                 0.7803                 0.3739
 IR Inten    --     42.2079                 7.1240                 4.2009

                     19                     20                     21
                      A                      A                      A
 Frequencies --    442.7369               461.2627               478.9817
 Red. masses --      6.0282                 5.7210                11.0774
 Frc consts  --      0.6962                 0.7172                 1.4974
 IR Inten    --      0.0944                 1.1644                13.0023

                     22                     23                     24
                      A                      A                      A
 Frequencies --    555.2382               565.1595               648.8908
 Red. masses --      7.0499                 6.9578                 4.9477
 Frc consts  --      1.2805                 1.3094                 1.2274
 IR Inten    --     41.3392                 0.0022                 0.8205

                     25                     26                     27
                      A                      A                      A
 Frequencies --    649.7212               683.5042               702.8362
 Red. masses --      5.3054                 7.0879                 4.7693
 Frc consts  --      1.3195                 1.9510                 1.3881
 IR Inten    --     46.0854                11.1723                54.3766

                     28                     29                     30
                      A                      A                      A
 Frequencies --    714.1387               773.4055               849.8383
 Red. masses --      5.9864                 5.7108                 4.2432
 Frc consts  --      1.7988                 2.0126                 1.8056
 IR Inten    --     25.2888                 0.0162                34.2080

                     31                     32                     33
                      A                      A                      A
 Frequencies --    903.1036               911.8204               928.1766
 Red. masses --      1.3700                 3.0870                 1.4206
 Frc consts  --      0.6583                 1.5122                 0.7211
 IR Inten    --      0.0798                 0.0086                36.8294

                     34                     35                     36
                      A                      A                      A
 Frequencies --    987.8714              1014.3873              1024.6157
 Red. masses --      4.5446                 1.6955                 1.4263
 Frc consts  --      2.6131                 1.0279                 0.8822
 IR Inten    --     78.4822                17.2549                 0.7837

                     37                     38                     39
                      A                      A                      A
 Frequencies --   1053.6168              1099.2548              1108.0070
 Red. masses --      1.5387                 1.8291                 2.6426
 Frc consts  --      1.0064                 1.3022                 1.9114
 IR Inten    --      0.2961                29.4196                52.4715

                     40                     41                     42
                      A                      A                      A
 Frequencies --   1171.7507              1177.6466              1225.6222
 Red. masses --      6.1015                 5.3452                 7.4996
 Frc consts  --      4.9358                 4.3676                 6.6374
 IR Inten    --     32.3323                25.1853                39.6473

                     43                     44                     45
                      A                      A                      A
 Frequencies --   1233.3334              1341.4302              1342.6165
 Red. masses --      1.2673                 5.0133                10.9948
 Frc consts  --      1.1358                 5.3151                11.6772
 IR Inten    --     39.7238                99.4879                 5.3634

                     46                     47                     48
                      A                      A                      A
 Frequencies --   1377.5679              1391.6632              1428.2912
 Red. masses --      1.4594                 1.2538                 2.7992
 Frc consts  --      1.6318                 1.4307                 3.3644
 IR Inten    --    141.8164                 5.7280                 5.9192

                     49                     50                     51
                      A                      A                      A
 Frequencies --   1438.8401              1467.2471              1479.2486
 Red. masses --      2.8284                 1.2421                 1.1575
 Frc consts  --      3.4500                 1.5755                 1.4923
 IR Inten    --    232.9158                 2.2310               121.2570

                     52                     53                     54
                      A                      A                      A
 Frequencies --   1480.3114              1485.3156              1494.6208
 Red. masses --      2.6602                 1.7937                 1.1014
 Frc consts  --      3.4345                 2.3315                 1.4497
 IR Inten    --    897.8702               674.0603                42.7400

                     55                     56                     57
                      A                      A                      A
 Frequencies --   1496.2409              1514.5422              1588.2346
 Red. masses --      4.6786                 5.9165                 7.3792
 Frc consts  --      6.1712                 7.9961                10.9670
 IR Inten    --     24.9233                40.0822                 2.9195

                     58                     59                     60
                      A                      A                      A
 Frequencies --   1597.8372              3011.0542              3011.6379
 Red. masses --      9.4051                 1.0409                 1.0418
 Frc consts  --     14.1475                 5.5604                 5.5672
 IR Inten    --      0.5931               161.4590                12.9478

                     61                     62                     63
                      A                      A                      A
 Frequencies --   3048.3270              3051.8064              3125.1271
 Red. masses --      1.0988                 1.0990                 1.0957
 Frc consts  --      6.0156                 6.0307                 6.3050
 IR Inten    --     74.3531                 1.4573                15.0976

                     64                     65                     66
                      A                      A                      A
 Frequencies --   3126.5397              3202.9122              3204.5223
 Red. masses --      1.0956                 1.0901                 1.0905
 Frc consts  --      6.3102                 6.5891                 6.5981
 IR Inten    --     16.4867                 1.5293                12.8299

 - Thermochemistry -
 -------------------
 Temperature   298.150 Kelvin.  Pressure   1.00000 Atm.
 Atom     1 has atomic number  6 and mass  12.00000

 Molecular mass:   341.88910 amu.
 Principal axes and moments of inertia in atomic units:
                           1         2         3
     Eigenvalues --  3311.369569903.09759**********
           X            0.83425   0.13467   0.53469
           Y           -0.31361  -0.68170   0.66101
           Z           -0.45352   0.71913   0.52648
 This molecule is an asymmetric top.
 Rotational symmetry number  1.
 Warning -- assumption of classical behavior for rotation
           may cause significant error
 Rotational temperatures (Kelvin)      0.02616     0.00875     0.00657
 Rotational constants (GHZ):           0.54501     0.18224     0.13680
 Zero-point vibrational energy     430816.4 (Joules/Mol)
                                  102.96758 (Kcal/Mol)
 Warning -- explicit consideration of  23 degrees of freedom as
           vibrations may cause significant error
 Vibrational temperatures:     61.15    78.40    88.91   173.61   179.38
          (Kelvin)            181.79   183.38   192.95   292.09   320.57
                              333.34   335.72   472.02   486.49   492.67
                              591.24   593.37   634.74   637.00   663.65
                              689.15   798.86   813.14   933.61   934.80
                              983.41  1011.22  1027.49  1112.76  1222.73
                             1299.36  1311.91  1335.44  1421.33  1459.48
                             1474.19  1515.92  1581.58  1594.17  1685.89
                             1694.37  1763.40  1774.49  1930.02  1931.73
                             1982.01  2002.29  2054.99  2070.17  2111.04
                             2128.31  2129.84  2137.04  2150.43  2152.76
                             2179.09  2285.12  2298.93  4332.24  4333.08
                             4385.86  4390.87  4496.36  4498.39  4608.28
                             4610.59

 Zero-point correction=                           0.164089 (Hartree/Particle)
 Thermal correction to Energy=                    0.179323
 Thermal correction to Enthalpy=                  0.180268
 Thermal correction to Gibbs Free Energy=         0.118916
 Sum of electronic and zero-point Energies=          -5760.981938
 Sum of electronic and thermal Energies=             -5760.966703
 Sum of electronic and thermal Enthalpies=           -5760.965759
 Sum of electronic and thermal Free Energies=        -5761.027111

                     E (Thermal)             CV                S
                      KCal/Mol        Cal/Mol-Kelvin    Cal/Mol-Kelvin
 Total                  112.527             55.248            129.126
 Electronic               0.000              0.000              1.377
 Translational            0.889              2.981             43.382
 Rotational               0.889              2.981             34.425
 Vibrational            110.750             49.287             49.941
 Vibration     1          0.595              1.980              5.139
 Vibration     2          0.596              1.976              4.647
 Vibration     3          0.597              1.973              4.399
 Vibration     4          0.609              1.932              3.090
 Vibration     5          0.610              1.928              3.027
 Vibration     6          0.611              1.927              3.001
 Vibration     7          0.611              1.926              2.984
 Vibration     8          0.613              1.919              2.886
 Vibration     9          0.639              1.836              2.106
 Vibration    10          0.648              1.806              1.936
 Vibration    11          0.653              1.793              1.866
 Vibration    12          0.654              1.790              1.853
 Vibration    13          0.711              1.619              1.270
 Vibration    14          0.718              1.599              1.221
 Vibration    15          0.722              1.591              1.201
 Vibration    16          0.775              1.446              0.923
 Vibration    17          0.776              1.443              0.918
 Vibration    18          0.801              1.380              0.823
 Vibration    19          0.802              1.377              0.818
 Vibration    20          0.819              1.336              0.762
 Vibration    21          0.835              1.297              0.713
 Vibration    22          0.911              1.128              0.533
 Vibration    23          0.921              1.107              0.514

                           ! Non-Optimized Parameters !
 Normal termination of Gaussian 16 at Sun Feb 11 02:29:08 2024.
