 Gaussian 16, Revision A.03,
 Gaussian 16:  ES64L-G16RevA.03 25-Dec-2016

 --------------------------------------
 #P UB3LYP/6-311++G(d,p) nosym opt freq
 --------------------------------------

 -------
 Reduced
 -------
 Symbolic Z-matrix:
 Charge = -2 Multiplicity = 1

 SCF Done:  E(UB3LYP) =  -3414.69422627     A.U. after   27 cycles
 SCF Done:  E(UB3LYP) =  -3414.72819004     A.U. after   18 cycles
 SCF Done:  E(UB3LYP) =  -3414.73493062     A.U. after   17 cycles
 SCF Done:  E(UB3LYP) =  -3414.73535545     A.U. after   15 cycles
 SCF Done:  E(UB3LYP) =  -3414.73541287     A.U. after   15 cycles
 SCF Done:  E(UB3LYP) =  -3414.73541764     A.U. after   18 cycles
 SCF Done:  E(UB3LYP) =  -3414.73541841     A.U. after   13 cycles
 Optimization completed.
    -- Stationary point found.
 Normal termination of Gaussian 16 at Sun Dec 17 21:01:33 2023.

 ----------------------------------------------------------------------
 #P Geom=AllCheck Guess=TCheck SCRF=Check GenChk UB3LYP/6-311++G(d,p) F
 req
 ----------------------------------------------------------------------

 Structure from the checkpoint file:  "008-an.chk"
 -------
 Reduced
 -------
 Charge = -2 Multiplicity = 1

                          Input orientation:
 ---------------------------------------------------------------------
 Center     Atomic      Atomic             Coordinates (Angstroms)
 Number     Number       Type             X           Y           Z
 ---------------------------------------------------------------------
      1          6           0       -1.295471    2.104927    0.586448
      2          6           0       -2.496531    1.406343    0.228604
      3          6           0       -2.624685    0.127475   -0.309071
      4          6           0       -1.482904   -0.694702   -0.585275
      5          6           0       -0.246160   -0.053883   -0.249865
      6          6           0       -0.194236    1.230676    0.285835
      7          8           0       -1.561994   -1.889113   -1.085492
      8          1           0       -3.606592   -0.275851   -0.532050
      9          8           0       -1.211522    3.283350    1.079410
     10         17           0        1.459486    1.889422    0.652082
     11         35           0       -4.183713    2.405286    0.547225
     12          1           0        0.674633   -0.601560   -0.425182
 ---------------------------------------------------------------------

 SCF Done:  E(UB3LYP) =  -3414.73541841     A.U. after    2 cycles

 Alpha  occ. eigenvalues -- -482.55626-101.27677 -62.20898 -56.02882 -56.02581
 Alpha  occ. eigenvalues --  -56.02560 -18.75414 -18.74985  -9.93355  -9.93026
 Alpha  occ. eigenvalues --   -9.92984  -9.91829  -9.87661  -9.87640  -9.19087
 Alpha  occ. eigenvalues --   -8.41836  -6.95459  -6.94640  -6.94589  -6.24805
 Alpha  occ. eigenvalues --   -6.23796  -6.23732  -2.35927  -2.35649  -2.35600
 Alpha  occ. eigenvalues --   -2.34798  -2.34797  -0.67642  -0.66073  -0.57935
 Alpha  occ. eigenvalues --   -0.54301  -0.49729  -0.42817  -0.39876  -0.29654
 Alpha  occ. eigenvalues --   -0.27610  -0.18862  -0.18059  -0.15445  -0.12304
 Alpha  occ. eigenvalues --   -0.11798  -0.09639  -0.07826  -0.07369  -0.06960
 Alpha  occ. eigenvalues --   -0.05405  -0.04053  -0.03022  -0.02146   0.03692
 Alpha  occ. eigenvalues --    0.04327   0.06349   0.07089   0.13930
 Alpha virt. eigenvalues --    0.19892   0.20858   0.21508   0.23056   0.24417
 Alpha virt. eigenvalues --    0.24781   0.25611   0.26591   0.27019   0.28903
 Alpha virt. eigenvalues --    0.28983   0.29571   0.30204   0.31814   0.31958

  Beta  occ. eigenvalues -- -482.55626-101.27677 -62.20898 -56.02882 -56.02581
  Beta  occ. eigenvalues --  -56.02560 -18.75414 -18.74985  -9.93355  -9.93026
  Beta  occ. eigenvalues --   -9.92984  -9.91829  -9.87661  -9.87640  -9.19087
  Beta  occ. eigenvalues --   -8.41836  -6.95459  -6.94640  -6.94589  -6.24805
  Beta  occ. eigenvalues --   -6.23796  -6.23732  -2.35927  -2.35649  -2.35600
  Beta  occ. eigenvalues --   -2.34798  -2.34797  -0.67642  -0.66073  -0.57935
  Beta  occ. eigenvalues --   -0.54301  -0.49729  -0.42817  -0.39876  -0.29654
  Beta  occ. eigenvalues --   -0.27610  -0.18862  -0.18059  -0.15445  -0.12304
  Beta  occ. eigenvalues --   -0.11798  -0.09639  -0.07826  -0.07369  -0.06960
  Beta  occ. eigenvalues --   -0.05405  -0.04053  -0.03022  -0.02146   0.03692
  Beta  occ. eigenvalues --    0.04327   0.06349   0.07089   0.13930
  Beta virt. eigenvalues --    0.19892   0.20858   0.21508   0.23056   0.24417
  Beta virt. eigenvalues --    0.24781   0.25611   0.26591   0.27019   0.28903
  Beta virt. eigenvalues --    0.28983   0.29571   0.30204   0.31814   0.31958

 Mulliken charges and spin densities:
               1          2
     1  C   -1.820556  -0.000000
     2  C    0.941071   0.000000
     3  C   -0.043073  -0.000000
     4  C   -0.995751  -0.000000
     5  C   -0.555916   0.000000
     6  C    1.715288  -0.000000
     7  O   -0.593040  -0.000000
     8  H    0.129076  -0.000000
     9  O   -0.461246   0.000000
    10  Cl   0.045263   0.000000
    11  Br  -0.430607   0.000000
    12  H    0.069492   0.000000
 Sum of Mulliken charges =  -2.00000   0.00000

 Dipole moment (field-independent basis, Debye):
    X=             14.0322    Y=             -9.5406    Z=             -1.1105  Tot=             17.0046
 Quadrupole moment (field-independent basis, Debye-Ang):
   XX=           -134.0398   YY=           -146.8573   ZZ=            -95.5765
   XY=             13.8206   XZ=              0.0538   YZ=            -22.1567

  Exact polarizability: 199.565 -11.996 161.516   1.322  29.772 100.502
 Approx polarizability: 286.090 -11.689 256.824   4.294  54.287 147.064

                      1                      2                      3
                      A                      A                      A
 Frequencies --     81.3234               148.1743               151.6207
 Red. masses --     17.9978                22.1999                11.8521
 Frc consts  --      0.0701                 0.2872                 0.1605
 IR Inten    --      6.3484                 5.6338                 6.9976

                      4                      5                      6
                      A                      A                      A
 Frequencies --    198.3276               218.1389               244.5624
 Red. masses --      5.3239                19.3223                18.0205
 Frc consts  --      0.1234                 0.5417                 0.6350
 IR Inten    --      0.2364                 0.1214                 0.2771

                      7                      8                      9
                      A                      A                      A
 Frequencies --    294.6773               317.4359               425.8691
 Red. masses --     10.4870                20.7976                 9.0554
 Frc consts  --      0.5365                 1.2347                 0.9676
 IR Inten    --      2.5848                 0.8041                 8.2444

                     10                     11                     12
                      A                      A                      A
 Frequencies --    473.5764               481.2568               569.7911
 Red. masses --      6.0029                12.7453                 1.7883
 Frc consts  --      0.7932                 1.7392                 0.3421
 IR Inten    --      0.4286                 0.5028                17.0001

                     13                     14                     15
                      A                      A                      A
 Frequencies --    605.6473               692.7495               718.9969
 Red. masses --      6.0220                 9.8772                 9.5630
 Frc consts  --      1.3015                 2.7928                 2.9127
 IR Inten    --     19.4427               105.6400                 0.3124

                     16                     17                     18
                      A                      A                      A
 Frequencies --    767.9900               793.1757               810.6189
 Red. masses --      1.3509                 2.0550                 7.7191
 Frc consts  --      0.4695                 0.7617                 2.9885
 IR Inten    --      2.9958                40.7414               152.8434

                     19                     20                     21
                      A                      A                      A
 Frequencies --    871.6616               997.3194              1082.5730
 Red. masses --      9.9150                 2.3279                 5.4321
 Frc consts  --      4.4385                 1.3642                 3.7508
 IR Inten    --     42.1798                47.0185               165.0293

                     22                     23                     24
                      A                      A                      A
 Frequencies --   1180.6151              1263.6787              1369.0691
 Red. masses --      1.8099                 2.0269                 4.4240
 Frc consts  --      1.4864                 1.9070                 4.8855
 IR Inten    --     86.3773               120.2026                 7.3500

                     25                     26                     27
                      A                      A                      A
 Frequencies --   1376.2553              1400.0769              1468.8491
 Red. masses --      6.9447                 8.7264                 6.2248
 Frc consts  --      7.7500                10.0784                 7.9128
 IR Inten    --     36.1059               106.8097              1227.1316

                     28                     29                     30
                      A                      A                      A
 Frequencies --   1597.2038              3147.4268              3157.4433
 Red. masses --      8.9052                 1.0888                 1.0886
 Frc consts  --     13.3849                 6.3552                 6.3942
 IR Inten    --     22.4631                38.3861                28.8844

 - Thermochemistry -
 -------------------
 Temperature   298.150 Kelvin.  Pressure   1.00000 Atm.
 Atom     1 has atomic number  6 and mass  12.00000

 Molecular mass:   219.89267 amu.
 Principal axes and moments of inertia in atomic units:
                           1         2         3
     Eigenvalues --  1607.872693412.833915020.70656
           X            0.95470   0.29297  -0.05212
           Y           -0.29008   0.87723  -0.38252
           Z           -0.06634   0.38031   0.92248
 This molecule is an asymmetric top.
 Rotational symmetry number  1.
 Warning -- assumption of classical behavior for rotation
           may cause significant error
 Rotational temperatures (Kelvin)      0.05387     0.02538     0.01725
 Rotational constants (GHZ):           1.12244     0.52881     0.35946
 Zero-point vibrational energy     160934.2 (Joules/Mol)
                                   38.46421 (Kcal/Mol)
 Warning -- explicit consideration of  13 degrees of freedom as
           vibrations may cause significant error
 Vibrational temperatures:    117.01   213.19   218.15   285.35   313.85
          (Kelvin)            351.87   423.97   456.72   612.73   681.37
                              692.42   819.80   871.39   996.71  1034.48
                             1104.97  1141.20  1166.30  1254.13  1434.92
                             1557.58  1698.64  1818.15  1969.79  1980.12
                             2014.40  2113.35  2298.02  4528.45  4542.86

 Zero-point correction=                           0.061297 (Hartree/Particle)
 Thermal correction to Energy=                    0.070358
 Thermal correction to Enthalpy=                  0.071302
 Thermal correction to Gibbs Free Energy=         0.025407
 Sum of electronic and zero-point Energies=          -3414.674122
 Sum of electronic and thermal Energies=             -3414.665060
 Sum of electronic and thermal Enthalpies=           -3414.664116
 Sum of electronic and thermal Free Energies=        -3414.710011

                     E (Thermal)             CV                S
                      KCal/Mol        Cal/Mol-Kelvin    Cal/Mol-Kelvin
 Total                   44.150             32.323             96.595
 Electronic               0.000              0.000              0.000
 Translational            0.889              2.981             42.067
 Rotational               0.889              2.981             31.688
 Vibrational             42.373             26.361             22.840
 Vibration     1          0.600              1.962              3.859
 Vibration     2          0.618              1.905              2.696
 Vibration     3          0.619              1.901              2.652
 Vibration     4          0.637              1.842              2.149
 Vibration     5          0.646              1.813              1.974
 Vibration     6          0.660              1.772              1.769
 Vibration     7          0.689              1.684              1.447
 Vibration     8          0.704              1.640              1.323
 Vibration     9          0.788              1.414              0.872
 Vibration    10          0.830              1.309              0.728
 Vibration    11          0.838              1.292              0.707
 Vibration    12          0.926              1.097              0.505
 Vibration    13          0.964              1.020              0.440

 Optimization completed.
    -- Stationary point found.
 Normal termination of Gaussian 16 at Sun Dec 17 21:07:51 2023.
