 Gaussian 16, Revision A.03,
 Gaussian 16:  ES64L-G16RevA.03 25-Dec-2016

 --------------------------------------
 #P UB3LYP/6-311++G(d,p) nosym opt freq
 --------------------------------------

 -------
 Radical
 -------
 Symbolic Z-matrix:
 Charge = -1 Multiplicity = 2

 SCF Done:  E(UB3LYP) =  -574.648812904     A.U. after   22 cycles
 SCF Done:  E(UB3LYP) =  -574.657750816     A.U. after   17 cycles
 SCF Done:  E(UB3LYP) =  -574.658469250     A.U. after   15 cycles
 SCF Done:  E(UB3LYP) =  -574.658531115     A.U. after   14 cycles
 SCF Done:  E(UB3LYP) =  -574.658534270     A.U. after   12 cycles
 SCF Done:  E(UB3LYP) =  -574.658534684     A.U. after   10 cycles
 SCF Done:  E(UB3LYP) =  -574.658535436     A.U. after   11 cycles
 SCF Done:  E(UB3LYP) =  -574.658538342     A.U. after   12 cycles
 SCF Done:  E(UB3LYP) =  -574.658543839     A.U. after   12 cycles
 SCF Done:  E(UB3LYP) =  -574.658554388     A.U. after   15 cycles
 SCF Done:  E(UB3LYP) =  -574.658567050     A.U. after   11 cycles
 SCF Done:  E(UB3LYP) =  -574.658812425     A.U. after   16 cycles
 SCF Done:  E(UB3LYP) =  -574.658746822     A.U. after   18 cycles
 SCF Done:  E(UB3LYP) =  -574.659079381     A.U. after   15 cycles
 SCF Done:  E(UB3LYP) =  -574.659063301     A.U. after   14 cycles
 SCF Done:  E(UB3LYP) =  -574.659135284     A.U. after   14 cycles
 SCF Done:  E(UB3LYP) =  -574.659135915     A.U. after   11 cycles
 SCF Done:  E(UB3LYP) =  -574.659135982     A.U. after   10 cycles
 Optimization completed.
    -- Stationary point found.
 Normal termination of Gaussian 16 at Tue Dec 26 20:47:35 2023.

 ----------------------------------------------------------------------
 #P Geom=AllCheck Guess=TCheck SCRF=Check GenChk UB3LYP/6-311++G(d,p) F
 req
 ----------------------------------------------------------------------

 Structure from the checkpoint file:  "238-rad.chk"
 -------
 Radical
 -------
 Charge = -1 Multiplicity = 2

                          Input orientation:
 ---------------------------------------------------------------------
 Center     Atomic      Atomic             Coordinates (Angstroms)
 Number     Number       Type             X           Y           Z
 ---------------------------------------------------------------------
      1          6           0        5.733986   -5.285744    1.377964
      2          6           0        6.689102   -5.187060    0.384076
      3          6           0        6.575135   -4.212454   -0.634115
      4          6           0        4.620952   -4.423057    1.409328
      5          6           0        4.494949   -3.440243    0.392746
      6          6           0        5.483061   -3.360586   -0.609551
      7          6           0        3.618241   -4.554297    2.484289
      8          6           0        2.524383   -3.623608    2.419407
      9          6           0        2.401473   -2.668890    1.432369
     10          6           0        3.352877   -2.505305    0.367367
     11          8           0        3.723842   -5.425158    3.390568
     12          8           0        3.230523   -1.627809   -0.531308
     13          1           0        5.811429   -6.029347    2.163554
     14          1           0        7.539607   -5.865225    0.381938
     15          1           0        1.776910   -3.706845    3.203905
     16          1           0        1.555082   -1.987119    1.426293
     17          6           0        7.626960   -4.114849   -1.715235
     18          1           0        5.352859   -2.596910   -1.369726
     19          1           0        7.709013   -5.049795   -2.282689
     20          1           0        8.618625   -3.908216   -1.294757
     21          1           0        7.391311   -3.315385   -2.421975
 ---------------------------------------------------------------------

 SCF Done:  E(UB3LYP) =  -574.659135982     A.U. after    1 cycles

 Alpha  occ. eigenvalues --  -18.93551 -18.93544 -10.08313 -10.08262 -10.06759
 Alpha  occ. eigenvalues --  -10.06193 -10.05054 -10.04515 -10.04234 -10.04185
 Alpha  occ. eigenvalues --  -10.04059 -10.02942 -10.02875  -0.85866  -0.85600
 Alpha  occ. eigenvalues --   -0.73456  -0.67812  -0.64237  -0.61839  -0.57646
 Alpha  occ. eigenvalues --   -0.53656  -0.48981  -0.46970  -0.42905  -0.37646
 Alpha  occ. eigenvalues --   -0.36287  -0.34379  -0.31921  -0.31822  -0.30528
 Alpha  occ. eigenvalues --   -0.29473  -0.27808  -0.27642  -0.27008  -0.25881
 Alpha  occ. eigenvalues --   -0.25052  -0.23529  -0.21899  -0.21595  -0.20846
 Alpha  occ. eigenvalues --   -0.13894  -0.12790  -0.11844  -0.10226  -0.09687
 Alpha  occ. eigenvalues --   -0.01628
 Alpha virt. eigenvalues --    0.07686   0.09586   0.09901   0.10120   0.10574
 Alpha virt. eigenvalues --    0.11778   0.12086   0.12687   0.13700   0.13872
 Alpha virt. eigenvalues --    0.16385   0.17388   0.17568   0.17719   0.18266

  Beta  occ. eigenvalues --  -18.92876 -18.92854 -10.08203 -10.08146 -10.06762
  Beta  occ. eigenvalues --  -10.06156 -10.05023 -10.04525 -10.04220 -10.04136
  Beta  occ. eigenvalues --  -10.04000 -10.02786 -10.02712  -0.84705  -0.84399
  Beta  occ. eigenvalues --   -0.73306  -0.67344  -0.64025  -0.61649  -0.57468
  Beta  occ. eigenvalues --   -0.52744  -0.48805  -0.46717  -0.42646  -0.37435
  Beta  occ. eigenvalues --   -0.36114  -0.34088  -0.31858  -0.31662  -0.30402
  Beta  occ. eigenvalues --   -0.29351  -0.27522  -0.26896  -0.26318  -0.25331
  Beta  occ. eigenvalues --   -0.24769  -0.21716  -0.20900  -0.20649  -0.20647
  Beta  occ. eigenvalues --   -0.12183  -0.11256  -0.10669  -0.09583  -0.09059
  Beta virt. eigenvalues --    0.05168   0.07679   0.09890   0.10156   0.10583
  Beta virt. eigenvalues --    0.10612   0.11777   0.12701   0.12783   0.13700
  Beta virt. eigenvalues --    0.13869   0.16397   0.17496   0.17742   0.18121

 Mulliken charges and spin densities:
               1          2
     1  C    0.128603   0.021389
     2  C   -0.354594   0.020337
     3  C    0.610584   0.021853
     4  C    0.174399   0.027310
     5  C    0.071215   0.042810
     6  C   -0.275665   0.018336
     7  C   -0.908293   0.036768
     8  C    0.238144   0.153502
     9  C    0.094418   0.114070
    10  C   -0.635054   0.073148
    11  O   -0.406050   0.245509
    12  O   -0.401379   0.250953
    13  H    0.154315  -0.002187
    14  H    0.120980  -0.002289
    15  H    0.139664  -0.010776
    16  H    0.145086  -0.011219
    17  C   -0.427813  -0.001284
    18  H    0.118978  -0.002601
    19  H    0.130951   0.002201
    20  H    0.131106   0.002206
    21  H    0.150406  -0.000036
 Sum of Mulliken charges =  -1.00000   1.00000

 Dipole moment (field-independent basis, Debye):
    X=            -18.0565    Y=             17.4458    Z=             -6.2030  Tot=             25.8625
 Quadrupole moment (field-independent basis, Debye-Ang):
   XX=           -152.0026   YY=           -161.0921   ZZ=           -107.3569
   XY=             68.1752   XZ=            -24.2258   YZ=             38.4218

  Exact polarizability: 177.816 -39.035 143.009 -44.568 -35.941 163.085
 Approx polarizability: 261.277 -62.739 247.947 -53.442 -84.130 270.982

                      1                      2                      3
                      A                      A                      A
 Frequencies --     70.8778                95.3482               113.0806
 Red. masses --      1.1109                 3.3052                 5.9670
 Frc consts  --      0.0033                 0.0177                 0.0450
 IR Inten    --      0.2785                 3.5087                 6.0668

                      4                      5                      6
                      A                      A                      A
 Frequencies --    164.9915               210.1057               273.4479
 Red. masses --      4.9792                 4.6127                 4.1346
 Frc consts  --      0.0799                 0.1200                 0.1822
 IR Inten    --      0.3449                 1.6606                 1.4265

                      7                      8                      9
                      A                      A                      A
 Frequencies --    336.0786               338.9789               364.8323
 Red. masses --      6.0873                 4.9508                 4.6072
 Frc consts  --      0.4051                 0.3352                 0.3613
 IR Inten    --      7.0937                 0.0733                 2.3322

                     10                     11                     12
                      A                      A                      A
 Frequencies --    430.2932               453.6965               465.7971
 Red. masses --      3.1665                 6.4804                 8.5897
 Frc consts  --      0.3454                 0.7859                 1.0980
 IR Inten    --      3.0504                 2.5508                 0.6682

                     13                     14                     15
                      A                      A                      A
 Frequencies --    507.4642               537.5818               604.7470
 Red. masses --      3.8905                 7.2954                 4.6442
 Frc consts  --      0.5903                 1.2422                 1.0007
 IR Inten    --      4.5413                 0.4120                 0.4523

                     16                     17                     18
                      A                      A                      A
 Frequencies --    626.9440               669.5116               683.9965
 Red. masses --      2.2417                 4.0983                 4.7433
 Frc consts  --      0.5191                 1.0823                 1.3075
 IR Inten    --      0.3579                 2.8422                 1.9613

                     19                     20                     21
                      A                      A                      A
 Frequencies --    724.5290               783.8637               785.5542
 Red. masses --      6.5937                 3.3693                 6.9716
 Frc consts  --      2.0393                 1.2198                 2.5348
 IR Inten    --      0.1082                 7.1205                34.8311

                     22                     23                     24
                      A                      A                      A
 Frequencies --    814.1657               835.4146               903.6248
 Red. masses --      1.6442                 1.9166                 3.9070
 Frc consts  --      0.6422                 0.7881                 1.8796
 IR Inten    --     67.0199                 2.9723                 9.8499

                     25                     26                     27
                      A                      A                      A
 Frequencies --    927.3178               930.6732               978.8526
 Red. masses --      1.3369                 1.2962                 1.3118
 Frc consts  --      0.6773                 0.6615                 0.7406
 IR Inten    --      2.7258                 1.7903                 1.4922

                     28                     29                     30
                      A                      A                      A
 Frequencies --   1006.5331              1055.6074              1061.7156
 Red. masses --      1.4753                 1.4927                 2.2135
 Frc consts  --      0.8806                 0.9800                 1.4701
 IR Inten    --      7.2551                 2.3725                11.9097

                     31                     32                     33
                      A                      A                      A
 Frequencies --   1078.9350              1135.4430              1161.5870
 Red. masses --      3.0160                 1.4425                 1.5198
 Frc consts  --      2.0686                 1.0957                 1.2082
 IR Inten    --      2.4505                 6.9390                 9.0931

                     34                     35                     36
                      A                      A                      A
 Frequencies --   1212.8080              1231.8190              1242.7218
 Red. masses --      2.3399                 4.9325                 1.7380
 Frc consts  --      2.0279                 4.4097                 1.5814
 IR Inten    --      3.4603                26.9019                27.1461

                     37                     38                     39
                      A                      A                      A
 Frequencies --   1304.5310              1353.5325              1400.3165
 Red. masses --      1.7731                 8.0025                 2.0929
 Frc consts  --      1.7779                 8.6380                 2.4180
 IR Inten    --      2.6714                 5.2145                 0.3046

                     40                     41                     42
                      A                      A                      A
 Frequencies --   1402.5153              1436.9003              1476.9218
 Red. masses --      1.3605                 4.7221                 4.2443
 Frc consts  --      1.5768                 5.7443                 5.4547
 IR Inten    --      6.5089               113.7514                67.2242

                     43                     44                     45
                      A                      A                      A
 Frequencies --   1483.7333              1491.4791              1495.6190
 Red. masses --      1.0455                 1.2063                 4.9323
 Frc consts  --      1.3561                 1.5811                 6.5005
 IR Inten    --      4.8034                28.2149                33.4114

                     46                     47                     48
                      A                      A                      A
 Frequencies --   1536.2381              1551.7976              1623.0299
 Red. masses --      4.7297                 4.9300                 7.6195
 Frc consts  --      6.5766                 6.9947                11.8257
 IR Inten    --    382.3251               152.0229                 7.8880

                     49                     50                     51
                      A                      A                      A
 Frequencies --   1640.2954              2996.3612              3033.4237
 Red. masses --      6.2536                 1.0384                 1.0997
 Frc consts  --      9.9134                 5.4930                 5.9622
 IR Inten    --     12.9387               114.6427                39.2716

                     52                     53                     54
                      A                      A                      A
 Frequencies --   3083.6739              3124.2602              3130.8516
 Red. masses --      1.0973                 1.0877                 1.0849
 Frc consts  --      6.1476                 6.2554                 6.2658
 IR Inten    --     24.7521                40.7471                23.5969

                     55                     56                     57
                      A                      A                      A
 Frequencies --   3152.7665              3164.0080              3176.8842
 Red. masses --      1.0934                 1.0892                 1.0914
 Frc consts  --      6.4037                 6.4241                 6.4898
 IR Inten    --     50.4305                10.3172                13.8308

 - Thermochemistry -
 -------------------
 Temperature   298.150 Kelvin.  Pressure   1.00000 Atm.
 Atom     1 has atomic number  6 and mass  12.00000

 Molecular mass:   172.05243 amu.
 Principal axes and moments of inertia in atomic units:
                           1         2         3
     Eigenvalues --  1433.558382491.449513913.82718
           X            0.78972  -0.33041   0.51689
           Y           -0.10719   0.75528   0.64658
           Z           -0.60403  -0.56602   0.56104
 This molecule is an asymmetric top.
 Rotational symmetry number  1.
 Warning -- assumption of classical behavior for rotation
           may cause significant error
 Rotational temperatures (Kelvin)      0.06042     0.03476     0.02213
 Rotational constants (GHZ):           1.25892     0.72437     0.46112
 Zero-point vibrational energy     411982.4 (Joules/Mol)
                                   98.46616 (Kcal/Mol)
 Warning -- explicit consideration of  15 degrees of freedom as
           vibrations may cause significant error
 Vibrational temperatures:    101.98   137.18   162.70   237.39   302.30
          (Kelvin)            393.43   483.54   487.72   524.91   619.10
                              652.77   670.18   730.13   773.46   870.10
                              902.03   963.28   984.12  1042.44  1127.81
                             1130.24  1171.40  1201.98  1300.11  1334.20
                             1339.03  1408.35  1448.18  1518.78  1527.57
                             1552.35  1633.65  1671.26  1744.96  1772.31
                             1788.00  1876.93  1947.43  2014.74  2017.91
                             2067.38  2124.96  2134.76  2145.91  2151.86
                             2210.30  2232.69  2335.18  2360.02  4311.10
                             4364.42  4436.72  4495.11  4504.60  4536.13
                             4552.30  4570.83

 Zero-point correction=                           0.156916 (Hartree/Particle)
 Thermal correction to Energy=                    0.167349
 Thermal correction to Enthalpy=                  0.168293
 Thermal correction to Gibbs Free Energy=         0.119981
 Sum of electronic and zero-point Energies=           -574.502220
 Sum of electronic and thermal Energies=              -574.491787
 Sum of electronic and thermal Enthalpies=            -574.490843
 Sum of electronic and thermal Free Energies=         -574.539155

                     E (Thermal)             CV                S
                      KCal/Mol        Cal/Mol-Kelvin    Cal/Mol-Kelvin
 Total                  105.013             40.862            101.680
 Electronic               0.000              0.000              1.377
 Translational            0.889              2.981             41.335
 Rotational               0.889              2.981             31.014
 Vibrational            103.236             34.900             27.953
 Vibration     1          0.598              1.968              4.129
 Vibration     2          0.603              1.953              3.547
 Vibration     3          0.607              1.939              3.215
 Vibration     4          0.623              1.885              2.492
 Vibration     5          0.642              1.825              2.043
 Vibration     6          0.676              1.722              1.574
 Vibration     7          0.717              1.603              1.231
 Vibration     8          0.719              1.598              1.217
 Vibration     9          0.738              1.545              1.101
 Vibration    10          0.791              1.404              0.858
 Vibration    11          0.812              1.353              0.785
 Vibration    12          0.823              1.326              0.749
 Vibration    13          0.863              1.233              0.640
 Vibration    14          0.893              1.167              0.571
 Vibration    15          0.963              1.022              0.442

 Optimization completed.
    -- Stationary point found.
 Normal termination of Gaussian 16 at Tue Dec 26 21:03:49 2023.
