 Gaussian 16, Revision A.03,
 Gaussian 16:  ES64L-G16RevA.03 25-Dec-2016

 ----------------------------------------------------------------
 #P UB3LYP/6-311++G(d,p) SCRF=(PCM,Solvent=n,n-DiMethylFormamide)
 ----------------------------------------------------------------

 -------
 Reduced
 -------
 Symbolic Z-matrix:
 Charge = -2 Multiplicity = 1

                         Standard orientation:
 ---------------------------------------------------------------------
 Center     Atomic      Atomic             Coordinates (Angstroms)
 Number     Number       Type             X           Y           Z
 ---------------------------------------------------------------------
      1          6           0        0.315529   -1.819826   -0.000052
      2          6           0        1.666156   -1.570857    0.000115
      3          6           0        2.134977   -0.206846    0.000013
      4          6           0       -0.662954   -0.789010   -0.000407
      5          6           0       -0.187557    0.593937   -0.000431
      6          6           0        1.189711    0.829406   -0.000210
      7          6           0       -2.065580   -1.124760   -0.000892
      8          6           0       -2.918221    0.024033    0.000150
      9          6           0       -2.479813    1.350892    0.000204
     10          6           0       -1.106311    1.736782   -0.000802
     11          8           0       -2.515018   -2.338626    0.000660
     12          8           0       -0.708911    2.958128    0.000542
     13          6           0        3.521097    0.069833    0.000119
     14          7           0        4.673884    0.265117    0.000237
     15          1           0       -0.063741   -2.837749   -0.000069
     16          1           0        2.388247   -2.382594    0.000319
     17          1           0        1.508562    1.867305   -0.000270
     18          1           0       -3.990091   -0.180029    0.000922
     19          1           0       -3.210937    2.159726    0.000977
 ---------------------------------------------------------------------

 SCF Done:  E(UB3LYP) =  -627.794915854     A.U. after   19 cycles

 The electronic state is 1-A.
 Alpha  occ. eigenvalues --  -19.02824 -19.01909 -14.30344 -10.20809 -10.18804
 Alpha  occ. eigenvalues --  -10.18437 -10.17574 -10.17034 -10.16489 -10.15515
 Alpha  occ. eigenvalues --  -10.14958 -10.14522 -10.13363 -10.12974  -0.94482
 Alpha  occ. eigenvalues --   -0.93259  -0.90199  -0.84047  -0.77752  -0.74270
 Alpha  occ. eigenvalues --   -0.72314  -0.65615  -0.61976  -0.59410  -0.54378
 Alpha  occ. eigenvalues --   -0.51985  -0.48339  -0.44913  -0.43315  -0.41319
 Alpha  occ. eigenvalues --   -0.40364  -0.39010  -0.38993  -0.37272  -0.36400
 Alpha  occ. eigenvalues --   -0.36282  -0.35739  -0.33335  -0.32572  -0.32559
 Alpha  occ. eigenvalues --   -0.31181  -0.31132  -0.24280  -0.23056  -0.22502
 Alpha  occ. eigenvalues --   -0.20591  -0.19905  -0.12030
 Alpha virt. eigenvalues --   -0.03765  -0.00760   0.00097   0.01263   0.01748
 Alpha virt. eigenvalues --    0.02867   0.03213   0.03452   0.04977   0.05396
 Alpha virt. eigenvalues --    0.05664   0.05865   0.06786   0.06949   0.07998

  Beta  occ. eigenvalues --  -19.02824 -19.01909 -14.30344 -10.20809 -10.18804
  Beta  occ. eigenvalues --  -10.18437 -10.17574 -10.17034 -10.16489 -10.15515
  Beta  occ. eigenvalues --  -10.14958 -10.14522 -10.13363 -10.12974  -0.94482
  Beta  occ. eigenvalues --   -0.93259  -0.90199  -0.84047  -0.77752  -0.74270
  Beta  occ. eigenvalues --   -0.72314  -0.65615  -0.61976  -0.59410  -0.54378
  Beta  occ. eigenvalues --   -0.51985  -0.48339  -0.44913  -0.43315  -0.41319
  Beta  occ. eigenvalues --   -0.40364  -0.39010  -0.38993  -0.37272  -0.36400
  Beta  occ. eigenvalues --   -0.36282  -0.35739  -0.33335  -0.32572  -0.32559
  Beta  occ. eigenvalues --   -0.31181  -0.31132  -0.24280  -0.23056  -0.22502
  Beta  occ. eigenvalues --   -0.20591  -0.19905  -0.12030
  Beta virt. eigenvalues --   -0.03765  -0.00760   0.00097   0.01263   0.01748
  Beta virt. eigenvalues --    0.02867   0.03213   0.03452   0.04977   0.05396
  Beta virt. eigenvalues --    0.05664   0.05865   0.06786   0.06949   0.07998

 Mulliken charges and spin densities:
               1          2
     1  C    0.272615  -0.000000
     2  C   -0.864846   0.000000
     3  C    1.905496  -0.000000
     4  C    0.200617   0.000000
     5  C   -0.098479  -0.000000
     6  C    0.150088  -0.000000
     7  C   -0.534928   0.000000
     8  C    0.021483   0.000000
     9  C    0.014577   0.000000
    10  C   -0.469810   0.000000
    11  O   -0.706963  -0.000000
    12  O   -0.661098   0.000000
    13  C   -1.661847   0.000000
    14  N   -0.338645   0.000000
    15  H    0.149207   0.000000
    16  H    0.179180   0.000000
    17  H    0.159869   0.000000
    18  H    0.140603  -0.000000
    19  H    0.142882   0.000000
 Sum of Mulliken charges =  -2.00000   0.00000

 Dipole moment (field-independent basis, Debye):
    X=              4.1431    Y=             -2.0679    Z=             -0.0029  Tot=              4.6305
 Quadrupole moment (field-independent basis, Debye-Ang):
   XX=           -159.8410   YY=           -137.5734   ZZ=            -89.9585
   XY=            -17.2043   XZ=             -0.0001   YZ=              0.0005

 Normal termination of Gaussian 16 at Sun Jan 21 08:42:41 2024.
