 Gaussian 16, Revision A.03,
 Gaussian 16:  ES64L-G16RevA.03 25-Dec-2016

 --------------------------------------
 #P UB3LYP/6-311++G(d,p) nosym opt freq
 --------------------------------------

 -------
 Reduced
 -------
 Symbolic Z-matrix:
 Charge = -2 Multiplicity = 1

 SCF Done:  E(UB3LYP) =  -627.535250108     A.U. after   23 cycles
 SCF Done:  E(UB3LYP) =  -627.535249817     A.U. after   12 cycles
 Optimization completed.
    -- Stationary point found.
 Normal termination of Gaussian 16 at Sun Jan  7 20:16:46 2024.

 ----------------------------------------------------------------------
 #P Geom=AllCheck Guess=TCheck SCRF=Check GenChk UB3LYP/6-311++G(d,p) F
 req
 ----------------------------------------------------------------------

 Structure from the checkpoint file:  "227-an.chk"
 -------
 Reduced
 -------
 Charge = -2 Multiplicity = 1

                          Input orientation:
 ---------------------------------------------------------------------
 Center     Atomic      Atomic             Coordinates (Angstroms)
 Number     Number       Type             X           Y           Z
 ---------------------------------------------------------------------
      1          6           0        5.670358   -5.102935    1.283946
      2          6           0        6.681270   -5.026906    0.357418
      3          6           0        6.594804   -4.057820   -0.707342
      4          6           0        4.523313   -4.264372    1.250615
      5          6           0        4.435739   -3.281784    0.171080
      6          6           0        5.472917   -3.217808   -0.762988
      7          6           0        3.499755   -4.400503    2.257534
      8          6           0        2.415114   -3.483987    2.083540
      9          6           0        2.316757   -2.539785    1.058082
     10          6           0        3.298812   -2.365327    0.038007
     11          8           0        3.551247   -5.259365    3.224577
     12          8           0        3.203903   -1.494850   -0.901608
     13          6           0        7.625006   -3.964217   -1.670567
     14          7           0        8.493721   -3.912046   -2.451378
     15          1           0        5.710981   -5.823853    2.095513
     16          1           0        7.545192   -5.683434    0.411660
     17          1           0        5.376390   -2.477378   -1.551242
     18          1           0        1.615490   -3.548498    2.823126
     19          1           0        1.446961   -1.884023    1.011316
 ---------------------------------------------------------------------

 SCF Done:  E(UB3LYP) =  -627.535249817     A.U. after    1 cycles

 Alpha  occ. eigenvalues --  -18.77855 -18.76485 -14.07082  -9.97611  -9.94779
 Alpha  occ. eigenvalues --   -9.93941  -9.93023  -9.92849  -9.92841  -9.91680
 Alpha  occ. eigenvalues --   -9.90504  -9.89762  -9.89383  -9.88988  -0.69387
 Alpha  occ. eigenvalues --   -0.67785  -0.67062  -0.59961  -0.53433  -0.50224
 Alpha  occ. eigenvalues --   -0.48209  -0.41227  -0.37847  -0.35411  -0.30347
 Alpha  occ. eigenvalues --   -0.27814  -0.24488  -0.20675  -0.18883  -0.17367
 Alpha  occ. eigenvalues --   -0.16600  -0.15155  -0.14764  -0.14009  -0.12018
 Alpha  occ. eigenvalues --   -0.11804  -0.11012  -0.09820  -0.08270  -0.07568
 Alpha  occ. eigenvalues --   -0.06870  -0.06701  -0.00069   0.01657   0.02130
 Alpha  occ. eigenvalues --    0.04623   0.05650   0.12956
 Alpha virt. eigenvalues --    0.18014   0.18743   0.20117   0.20229   0.20826
 Alpha virt. eigenvalues --    0.21563   0.22992   0.23468   0.25136   0.25149
 Alpha virt. eigenvalues --    0.26697   0.26896   0.27697   0.28039   0.28753

  Beta  occ. eigenvalues --  -18.77855 -18.76485 -14.07082  -9.97611  -9.94779
  Beta  occ. eigenvalues --   -9.93941  -9.93023  -9.92849  -9.92841  -9.91680
  Beta  occ. eigenvalues --   -9.90504  -9.89762  -9.89383  -9.88988  -0.69387
  Beta  occ. eigenvalues --   -0.67785  -0.67062  -0.59961  -0.53433  -0.50224
  Beta  occ. eigenvalues --   -0.48209  -0.41227  -0.37847  -0.35411  -0.30347
  Beta  occ. eigenvalues --   -0.27814  -0.24488  -0.20675  -0.18883  -0.17367
  Beta  occ. eigenvalues --   -0.16600  -0.15155  -0.14764  -0.14009  -0.12018
  Beta  occ. eigenvalues --   -0.11804  -0.11012  -0.09820  -0.08270  -0.07568
  Beta  occ. eigenvalues --   -0.06870  -0.06701  -0.00069   0.01657   0.02130
  Beta  occ. eigenvalues --    0.04623   0.05650   0.12956
  Beta virt. eigenvalues --    0.18014   0.18743   0.20117   0.20229   0.20826
  Beta virt. eigenvalues --    0.21563   0.22992   0.23468   0.25136   0.25149
  Beta virt. eigenvalues --    0.26697   0.26896   0.27697   0.28039   0.28753

 Mulliken charges and spin densities:
               1          2
     1  C    0.302512  -0.000000
     2  C   -0.900825   0.000000
     3  C    1.997292   0.000000
     4  C    0.371979   0.000000
     5  C   -0.014532   0.000000
     6  C    0.124100  -0.000000
     7  C   -0.925782  -0.000000
     8  C    0.213957  -0.000000
     9  C    0.218088   0.000000
    10  C   -0.793976  -0.000000
    11  O   -0.569859  -0.000000
    12  O   -0.531555  -0.000000
    13  C   -1.649025  -0.000000
    14  N   -0.346748   0.000000
    15  H    0.123243   0.000000
    16  H    0.096570   0.000000
    17  H    0.140301   0.000000
    18  H    0.069092  -0.000000
    19  H    0.075170   0.000000
 Sum of Mulliken charges =  -2.00000  -0.00000

 Dipole moment (field-independent basis, Debye):
    X=            -44.5680    Y=             34.8919    Z=             -3.9797  Tot=             56.7414
 Quadrupole moment (field-independent basis, Debye-Ang):
   XX=           -347.0005   YY=           -241.2211   ZZ=           -143.2725
   XY=            170.0258   XZ=             13.0593   YZ=             35.6461

  Exact polarizability: 288.505 -59.333 158.150 -89.579 -23.209 197.848
 Approx polarizability: 573.723-144.241 271.274-189.429 -33.302 336.941

                      1                      2                      3
                      A                      A                      A
 Frequencies --     70.6553               114.7602               132.3430
 Red. masses --      7.1860                 6.7444                11.5556
 Frc consts  --      0.0211                 0.0523                 0.1192
 IR Inten    --      1.3970                12.7658                 3.6441

                      4                      5                      6
                      A                      A                      A
 Frequencies --    157.6046               222.5526               269.4900
 Red. masses --      5.2832                 7.3210                 8.0714
 Frc consts  --      0.0773                 0.2136                 0.3454
 IR Inten    --      3.7113                 0.1995                10.2447

                      7                      8                      9
                      A                      A                      A
 Frequencies --    318.2673               349.7168               416.9807
 Red. masses --     12.1916                 6.2596                 8.8558
 Frc consts  --      0.7276                 0.4511                 0.9072
 IR Inten    --      3.8564                 0.1244                 1.6012

                     10                     11                     12
                      A                      A                      A
 Frequencies --    418.3719               452.3816               462.1772
 Red. masses --      3.3609                 4.5596                11.2716
 Frc consts  --      0.3466                 0.5498                 1.4186
 IR Inten    --      2.3595                 2.7090                23.8067

                     13                     14                     15
                      A                      A                      A
 Frequencies --    520.2351               558.2921               578.9564
 Red. masses --      8.6625                 6.0302                 6.8658
 Frc consts  --      1.3813                 1.1074                 1.3559
 IR Inten    --      0.8308                 5.5617                 5.0053

                     16                     17                     18
                      A                      A                      A
 Frequencies --    613.7459               616.7241               655.2448
 Red. masses --      2.3709                 5.5901                 4.4636
 Frc consts  --      0.5262                 1.2527                 1.1291
 IR Inten    --      0.0028                 2.6727                 3.9078

                     19                     20                     21
                      A                      A                      A
 Frequencies --    661.4430               713.5328               737.2898
 Red. masses --      5.6595                 6.8847                 1.5418
 Frc consts  --      1.4588                 2.0652                 0.4938
 IR Inten    --     21.4130                 0.9201                33.0297

                     22                     23                     24
                      A                      A                      A
 Frequencies --    781.5935               791.1947               817.4834
 Red. masses --      7.3928                 3.6583                 2.0854
 Frc consts  --      2.6608                 1.3493                 0.8211
 IR Inten    --     83.9770                10.3269                36.2723

                     25                     26                     27
                      A                      A                      A
 Frequencies --    890.7180               892.7433               949.3336
 Red. masses --      4.7375                 1.3717                 1.3601
 Frc consts  --      2.2145                 0.6441                 0.7222
 IR Inten    --     10.5186                 0.3084                 7.3290

                     28                     29                     30
                      A                      A                      A
 Frequencies --    964.2137              1039.9819              1061.3743
 Red. masses --      1.2951                 2.2330                 2.9916
 Frc consts  --      0.7094                 1.4229                 1.9856
 IR Inten    --      2.5450                 3.8722                80.5366

                     31                     32                     33
                      A                      A                      A
 Frequencies --   1120.7278              1152.6922              1198.1359
 Red. masses --      1.4732                 1.5762                 2.3591
 Frc consts  --      1.0902                 1.2339                 1.9953
 IR Inten    --     36.5319               109.0755                99.2906

                     34                     35                     36
                      A                      A                      A
 Frequencies --   1200.3926              1234.2959              1291.3605
 Red. masses --      4.9971                 2.2789                 1.7883
 Frc consts  --      4.2424                 2.0455                 1.7571
 IR Inten    --    423.1005               141.3199               134.6517

                     37                     38                     39
                      A                      A                      A
 Frequencies --   1331.5766              1377.5180              1397.0584
 Red. masses --      3.7873                 5.7823                 5.4526
 Frc consts  --      3.9565                 6.4646                 6.2702
 IR Inten    --    201.7448               106.6564               240.1346

                     40                     41                     42
                      A                      A                      A
 Frequencies --   1419.5522              1458.8507              1474.6606
 Red. masses --      4.8749                 4.6105                 3.7139
 Frc consts  --      5.7879                 5.7813                 4.7584
 IR Inten    --    572.0127                90.3420                39.1025

                     43                     44                     45
                      A                      A                      A
 Frequencies --   1516.3984              1543.4757              1606.6751
 Red. masses --      4.9231                 5.6390                 7.0240
 Frc consts  --      6.6699                 7.9150                10.6829
 IR Inten    --    314.9864               603.0395                16.2690

                     46                     47                     48
                      A                      A                      A
 Frequencies --   2206.9693              3073.5534              3102.8641
 Red. masses --     12.6505                 1.0832                 1.0912
 Frc consts  --     36.3037                 6.0291                 6.1901
 IR Inten    --   1365.4186                69.8703               180.1526

                     49                     50                     51
                      A                      A                      A
 Frequencies --   3129.8913              3155.6196              3159.9168
 Red. masses --      1.0852                 1.0924                 1.0893
 Frc consts  --      6.2637                 6.4091                 6.4083
 IR Inten    --     19.3395                41.4622                 5.7573

 - Thermochemistry -
 -------------------
 Temperature   298.150 Kelvin.  Pressure   1.00000 Atm.
 Atom     1 has atomic number  6 and mass  12.00000

 Molecular mass:   183.03203 amu.
 Principal axes and moments of inertia in atomic units:
                           1         2         3
     Eigenvalues --  1476.722603400.407764877.13009
           X            0.80582  -0.35549   0.47359
           Y           -0.06775   0.73916   0.67012
           Z           -0.58828  -0.57208   0.57154
 This molecule is an asymmetric top.
 Rotational symmetry number  1.
 Warning -- assumption of classical behavior for rotation
           may cause significant error
 Rotational temperatures (Kelvin)      0.05865     0.02547     0.01776
 Rotational constants (GHZ):           1.22213     0.53074     0.37004
 Zero-point vibrational energy     331255.5 (Joules/Mol)
                                   79.17195 (Kcal/Mol)
 Warning -- explicit consideration of  17 degrees of freedom as
           vibrations may cause significant error
 Vibrational temperatures:    101.66   165.11   190.41   226.76   320.20
          (Kelvin)            387.74   457.92   503.16   599.94   601.94
                              650.88   664.97   748.50   803.26   832.99
                              883.04   887.33   942.75   951.67  1026.61
                             1060.80  1124.54  1138.35  1176.18  1281.54
                             1284.46  1365.88  1387.29  1496.30  1527.08
                             1612.48  1658.47  1723.85  1727.10  1775.88
                             1857.98  1915.84  1981.94  2010.06  2042.42
                             2098.96  2121.71  2181.76  2220.72  2311.65
                             3175.34  4422.16  4464.33  4503.22  4540.23
                             4546.42

 Zero-point correction=                           0.126169 (Hartree/Particle)
 Thermal correction to Energy=                    0.136643
 Thermal correction to Enthalpy=                  0.137588
 Thermal correction to Gibbs Free Energy=         0.089739
 Sum of electronic and zero-point Energies=           -627.409081
 Sum of electronic and thermal Energies=              -627.398606
 Sum of electronic and thermal Enthalpies=            -627.397662
 Sum of electronic and thermal Free Energies=         -627.445511

                     E (Thermal)             CV                S
                      KCal/Mol        Cal/Mol-Kelvin    Cal/Mol-Kelvin
 Total                   85.745             41.331            100.706
 Electronic               0.000              0.000              0.000
 Translational            0.889              2.981             41.520
 Rotational               0.889              2.981             31.571
 Vibrational             83.968             35.370             27.615
 Vibration     1          0.598              1.968              4.135
 Vibration     2          0.608              1.937              3.187
 Vibration     3          0.612              1.921              2.912
 Vibration     4          0.621              1.894              2.578
 Vibration     5          0.648              1.807              1.938
 Vibration     6          0.674              1.729              1.599
 Vibration     7          0.705              1.639              1.319
 Vibration     8          0.727              1.576              1.167
 Vibration     9          0.780              1.433              0.902
 Vibration    10          0.781              1.430              0.898
 Vibration    11          0.811              1.356              0.789
 Vibration    12          0.820              1.334              0.760
 Vibration    13          0.875              1.205              0.609
 Vibration    14          0.914              1.122              0.527
 Vibration    15          0.936              1.077              0.487
 Vibration    16          0.973              1.003              0.427
 Vibration    17          0.976              0.997              0.422

 Optimization completed.
    -- Stationary point found.
 Normal termination of Gaussian 16 at Sun Jan  7 20:31:18 2024.
