 Gaussian 16, Revision A.03,
 Gaussian 16:  ES64L-G16RevA.03 25-Dec-2016

 --------------------------------------
 #P UB3LYP/6-311++G(d,p) nosym opt freq
 --------------------------------------

 -------
 Radical
 -------
 Symbolic Z-matrix:
 Charge = -1 Multiplicity = 2

 SCF Done:  E(UB3LYP) =  -925.155579050     A.U. after   23 cycles
 SCF Done:  E(UB3LYP) =  -925.179857577     A.U. after   18 cycles
 SCF Done:  E(UB3LYP) =  -925.185076680     A.U. after   19 cycles
 SCF Done:  E(UB3LYP) =  -925.186891055     A.U. after   16 cycles
 SCF Done:  E(UB3LYP) =  -925.187039497     A.U. after   14 cycles
 SCF Done:  E(UB3LYP) =  -925.187056774     A.U. after   14 cycles
 SCF Done:  E(UB3LYP) =  -925.187058069     A.U. after   12 cycles
 SCF Done:  E(UB3LYP) =  -925.187058362     A.U. after   11 cycles
 SCF Done:  E(UB3LYP) =  -925.187058521     A.U. after   11 cycles
 SCF Done:  E(UB3LYP) =  -925.187058698     A.U. after   11 cycles
 SCF Done:  E(UB3LYP) =  -925.193225046     A.U. after   21 cycles
 SCF Done:  E(UB3LYP) =  -925.193684149     A.U. after   20 cycles
 SCF Done:  E(UB3LYP) =  -925.193842646     A.U. after   16 cycles
 SCF Done:  E(UB3LYP) =  -925.193890047     A.U. after   15 cycles
 SCF Done:  E(UB3LYP) =  -925.193917158     A.U. after   16 cycles
 SCF Done:  E(UB3LYP) =  -925.193926726     A.U. after   16 cycles
 SCF Done:  E(UB3LYP) =  -925.193928171     A.U. after   13 cycles
 SCF Done:  E(UB3LYP) =  -925.193928435     A.U. after   12 cycles
 SCF Done:  E(UB3LYP) =  -925.193928454     A.U. after   10 cycles
 Optimization completed.
    -- Stationary point found.
 Normal termination of Gaussian 16 at Wed Dec 27 01:30:23 2023.

 ----------------------------------------------------------------------
 #P Geom=AllCheck Guess=TCheck SCRF=Check GenChk UB3LYP/6-311++G(d,p) F
 req
 ----------------------------------------------------------------------

 Structure from the checkpoint file:  "286-rad.chk"
 -------
 Radical
 -------
 Charge = -1 Multiplicity = 2

                          Input orientation:
 ---------------------------------------------------------------------
 Center     Atomic      Atomic             Coordinates (Angstroms)
 Number     Number       Type             X           Y           Z
 ---------------------------------------------------------------------
      1          6           0       -0.270001    3.813109   -0.179855
      2          6           0       -1.482209    3.216130   -0.472298
      3          6           0       -1.524207    1.868038   -0.882175
      4          6           0        0.937276    3.088863   -0.285493
      5          6           0        0.896925    1.726498   -0.699965
      6          6           0       -0.348457    1.143200   -0.991536
      7          6           0        2.206002    3.714633    0.021143
      8          6           0        3.386093    2.892694   -0.116990
      9          6           0        3.382463    1.570365   -0.507918
     10          6           0        2.129923    0.920727   -0.829378
     11          8           0        2.356606    4.922911    0.399475
     12          8           0        2.081449   -0.280801   -1.201819
     13          1           0       -0.212076    4.848249    0.137419
     14          1           0       -2.403311    3.785518   -0.386629
     15          1           0       -2.476810    1.399837   -1.111708
     16          1           0       -0.350924    0.105421   -1.305328
     17          8           0        4.543870    3.549654    0.185282
     18          6           0        4.659489    0.779795   -0.629476
     19          6           0        5.240053    0.778154   -2.056908
     20          6           0        6.519297   -0.055976   -2.185202
     21          6           0        7.108889   -0.067110   -3.600353
     22          6           0        8.387480   -0.902933   -3.732512
     23          1           0        4.211540    4.442142    0.428672
     24          1           0        4.448804   -0.255312   -0.341832
     25          1           0        5.407502    1.183430    0.060710
     26          1           0        5.444717    1.811780   -2.360929
     27          1           0        4.477730    0.388969   -2.740203
     28          1           0        6.307999   -1.087940   -1.874554
     29          1           0        7.273937    0.325507   -1.483511
     30          1           0        7.318389    0.964766   -3.912022
     31          1           0        6.354338   -0.447689   -4.301054
     32          1           0        8.177650   -1.934831   -3.420993
     33          1           0        9.141917   -0.522605   -3.030844
     34          6           0        8.976482   -0.914219   -5.147698
     35          1           0        9.187023    0.117263   -5.460339
     36          1           0        8.222870   -1.294529   -5.850033
     37          6           0       10.254513   -1.750353   -5.280644
     38          6           0       10.834631   -1.754917   -6.698540
     39          1           0       10.044462   -2.781225   -4.969526
     40          1           0       11.008199   -1.370397   -4.579718
     41          1           0       10.116116   -2.161903   -7.417560
     42          1           0       11.744745   -2.359627   -6.759808
     43          1           0       11.086822   -0.740656   -7.025071
 ---------------------------------------------------------------------

 SCF Done:  E(UB3LYP) =  -925.193928454     A.U. after    2 cycles

 Alpha  occ. eigenvalues --  -19.01750 -18.95526 -18.94229 -10.10718 -10.10555
 Alpha  occ. eigenvalues --  -10.09836 -10.09513 -10.09384 -10.09133 -10.09058
 Alpha  occ. eigenvalues --  -10.07997 -10.06803 -10.05759 -10.05583 -10.05211
 Alpha  occ. eigenvalues --  -10.05153 -10.05041 -10.04969 -10.04812 -10.04418
 Alpha  occ. eigenvalues --  -10.03706  -0.93670  -0.86743  -0.86493  -0.74132
 Alpha  occ. eigenvalues --   -0.73649  -0.70801  -0.68709  -0.66384  -0.63437
 Alpha  occ. eigenvalues --   -0.62960  -0.60356  -0.56738  -0.54248  -0.52196
 Alpha  occ. eigenvalues --   -0.50757  -0.49518  -0.48336  -0.46316  -0.44587
 Alpha  occ. eigenvalues --   -0.41587  -0.41422  -0.38404  -0.38154  -0.37218
 Alpha  occ. eigenvalues --   -0.36100  -0.34879  -0.34735  -0.33672  -0.33383
 Alpha  occ. eigenvalues --   -0.31791  -0.31323  -0.30799  -0.30485  -0.29848
 Alpha  occ. eigenvalues --   -0.28760  -0.28236  -0.27752  -0.27296  -0.26905
 Alpha  occ. eigenvalues --   -0.26122  -0.26006  -0.25822  -0.25428  -0.24255
 Alpha  occ. eigenvalues --   -0.24038  -0.23429  -0.22346  -0.22201  -0.21807
 Alpha  occ. eigenvalues --   -0.21105  -0.20774  -0.14187  -0.13526  -0.12877
 Alpha  occ. eigenvalues --   -0.10768  -0.10330  -0.02197
 Alpha virt. eigenvalues --    0.04428   0.06447   0.06917   0.07052   0.08299
 Alpha virt. eigenvalues --    0.08889   0.09074   0.09410   0.09825   0.10121
 Alpha virt. eigenvalues --    0.10276   0.10923   0.11218   0.11756   0.12019

  Beta  occ. eigenvalues --  -19.01709 -18.94856 -18.93667 -10.10718 -10.10555
  Beta  occ. eigenvalues --  -10.09836 -10.09419 -10.09287 -10.09058 -10.08869
  Beta  occ. eigenvalues --  -10.07997 -10.06802 -10.05755 -10.05483 -10.05202
  Beta  occ. eigenvalues --  -10.05113 -10.05012 -10.05007 -10.04681 -10.04425
  Beta  occ. eigenvalues --  -10.03623  -0.93476  -0.85780  -0.85363  -0.74132
  Beta  occ. eigenvalues --   -0.73421  -0.70781  -0.68468  -0.66202  -0.63286
  Beta  occ. eigenvalues --   -0.62772  -0.60264  -0.56520  -0.53617  -0.52083
  Beta  occ. eigenvalues --   -0.50710  -0.49383  -0.48214  -0.46142  -0.44345
  Beta  occ. eigenvalues --   -0.41579  -0.41275  -0.38370  -0.37973  -0.37206
  Beta  occ. eigenvalues --   -0.35911  -0.34732  -0.34722  -0.33599  -0.33275
  Beta  occ. eigenvalues --   -0.31761  -0.31076  -0.30648  -0.30343  -0.29181
  Beta  occ. eigenvalues --   -0.28434  -0.28029  -0.27537  -0.27136  -0.26698
  Beta  occ. eigenvalues --   -0.25956  -0.25761  -0.25365  -0.25140  -0.24117
  Beta  occ. eigenvalues --   -0.23430  -0.23233  -0.22095  -0.21654  -0.20956
  Beta  occ. eigenvalues --   -0.20571  -0.19940  -0.12853  -0.12278  -0.12102
  Beta  occ. eigenvalues --   -0.10223  -0.09287
  Beta virt. eigenvalues --    0.04362   0.04428   0.06447   0.06917   0.07051
  Beta virt. eigenvalues --    0.08292   0.09061   0.09364   0.09589   0.09828
  Beta virt. eigenvalues --    0.10119   0.10271   0.10949   0.11740   0.12019

 Mulliken charges and spin densities:
               1          2
     1  C    0.025835   0.066444
     2  C   -0.308025   0.001422
     3  C   -0.376746   0.080077
     4  C    0.596117   0.011132
     5  C   -0.003504   0.079291
     6  C    0.074436  -0.008476
     7  C   -1.164476   0.140361
     8  C   -0.629499   0.059550
     9  C    2.205681   0.060949
    10  C   -0.902569   0.045751
    11  O   -0.451363   0.246463
    12  O   -0.362511   0.209907
    13  H    0.156169  -0.003793
    14  H    0.123506  -0.000778
    15  H    0.119991  -0.005982
    16  H    0.160532   0.000127
    17  O   -0.257716   0.014828
    18  C   -0.464482   0.011282
    19  C   -0.749765  -0.002280
    20  C   -0.109650   0.001691
    21  C    0.034828  -0.005691
    22  C   -0.087655  -0.001025
    23  H    0.266122  -0.004328
    24  H    0.210714   0.002767
    25  H    0.212341  -0.000880
    26  H    0.154979   0.002709
    27  H    0.181910  -0.002129
    28  H    0.105653   0.001008
    29  H    0.095096  -0.000565
    30  H    0.114897   0.000064
    31  H    0.119045  -0.000055
    32  H    0.119435  -0.000019
    33  H    0.117015   0.000003
    34  C   -0.311092   0.000040
    35  H    0.115939  -0.000010
    36  H    0.117076  -0.000004
    37  C   -0.226168   0.000177
    38  C   -0.670678  -0.000016
    39  H    0.124650   0.000008
    40  H    0.123860  -0.000011
    41  H    0.133884   0.000001
    42  H    0.132980  -0.000008
    43  H    0.133207  -0.000001
 Sum of Mulliken charges =  -1.00000   1.00000

 Dipole moment (field-independent basis, Debye):
    X=            -11.4263    Y=            -10.2806    Z=              2.8398  Tot=             15.6306
 Quadrupole moment (field-independent basis, Debye-Ang):
   XX=           -182.4971   YY=           -183.0511   ZZ=           -144.6962
   XY=            -19.7771   XZ=             13.0277   YZ=             -4.0860

  Exact polarizability: 328.211 -27.995 256.852 -17.575  39.624 183.582
 Approx polarizability: 438.712   2.847 448.236  19.243  61.837 264.674

                      1                      2                      3
                      A                      A                      A
 Frequencies --     12.9109                25.0796                32.3447
 Red. masses --      5.3622                 5.1133                 1.5864
 Frc consts  --      0.0005                 0.0019                 0.0010
 IR Inten    --      0.2639                 0.3622                 0.0228

                      4                      5                      6
                      A                      A                      A
 Frequencies --     42.9247                63.8604                91.8894
 Red. masses --      3.5223                 4.7152                 2.1289
 Frc consts  --      0.0038                 0.0113                 0.0106
 IR Inten    --      0.6809                 2.6196                 0.9427

                      7                      8                      9
                      A                      A                      A
 Frequencies --     97.9132               101.9951               121.0953
 Red. masses --      3.5932                 2.5505                 4.7616
 Frc consts  --      0.0203                 0.0156                 0.0411
 IR Inten    --      2.7672                 0.2738                 0.8510

                     10                     11                     12
                      A                      A                      A
 Frequencies --    147.7286               153.8634               155.2075
 Red. masses --      1.7848                 5.5519                 2.1827
 Frc consts  --      0.0229                 0.0774                 0.0310
 IR Inten    --      0.0141                 0.4477                 0.0813

                     13                     14                     15
                      A                      A                      A
 Frequencies --    165.5449               182.8012               243.4806
 Red. masses --      3.9639                 7.2615                 1.1197
 Frc consts  --      0.0640                 0.1430                 0.0391
 IR Inten    --      0.1070                 1.1196                 0.0054

                     16                     17                     18
                      A                      A                      A
 Frequencies --    252.1698               257.1228               298.5488
 Red. masses --      4.3844                 4.3588                 2.8701
 Frc consts  --      0.1643                 0.1698                 0.1507
 IR Inten    --      2.3770                 0.0447                 2.1460

                     19                     20                     21
                      A                      A                      A
 Frequencies --    312.2165               338.1267               363.6998
 Red. masses --      3.6066                 4.9901                 5.3310
 Frc consts  --      0.2071                 0.3361                 0.4155
 IR Inten    --      0.5735                 3.9899                11.4455

                     22                     23                     24
                      A                      A                      A
 Frequencies --    377.8358               411.2926               430.4062
 Red. masses --      9.7433                 5.0540                 9.2083
 Frc consts  --      0.8195                 0.5037                 1.0050
 IR Inten    --      9.3495                 2.8338                 1.5192

                     25                     26                     27
                      A                      A                      A
 Frequencies --    440.3532               457.6328               471.7132
 Red. masses --      4.0623                 3.2890                 4.2285
 Frc consts  --      0.4641                 0.4058                 0.5544
 IR Inten    --      1.1122                 1.2030                 2.8039

                     28                     29                     30
                      A                      A                      A
 Frequencies --    495.8028               532.3919               572.0587
 Red. masses --      4.6801                 6.5948                 5.4578
 Frc consts  --      0.6778                 1.1013                 1.0523
 IR Inten    --      1.6693                 1.1539                 1.7332

                     31                     32                     33
                      A                      A                      A
 Frequencies --    645.5056               676.4504               699.5118
 Red. masses --      6.1934                 5.7386                 3.1401
 Frc consts  --      1.5205                 1.5471                 0.9053
 IR Inten    --     17.7165                 3.2210                 2.0288

                     34                     35                     36
                      A                      A                      A
 Frequencies --    704.9685               712.3539               730.4733
 Red. masses --      3.2406                 4.9460                 1.0646
 Frc consts  --      0.9489                 1.4788                 0.3347
 IR Inten    --     17.3022                 1.7010                 4.6704

                     37                     38                     39
                      A                      A                      A
 Frequencies --    734.1280               734.4281               750.9275
 Red. masses --      1.1353                 1.1267                 1.2304
 Frc consts  --      0.3605                 0.3581                 0.4088
 IR Inten    --     46.5567                79.9413                 0.7561

                     40                     41                     42
                      A                      A                      A
 Frequencies --    761.2051               781.6489               791.5341
 Red. masses --      2.4481                 2.8404                 1.3385
 Frc consts  --      0.8358                 1.0225                 0.4941
 IR Inten    --      8.7915                 5.3495                 1.3297

                     43                     44                     45
                      A                      A                      A
 Frequencies --    846.7420               861.9070               892.8748
 Red. masses --      1.6358                 1.3904                 1.9586
 Frc consts  --      0.6910                 0.6086                 0.9200
 IR Inten    --      4.6767                 0.0578                 8.2385

                     46                     47                     48
                      A                      A                      A
 Frequencies --    893.8769               945.2950               955.0987
 Red. masses --      1.9722                 4.1840                 1.5419
 Frc consts  --      0.9285                 2.2028                 0.8287
 IR Inten    --      9.1564                18.2540                 4.4992

                     49                     50                     51
                      A                      A                      A
 Frequencies --    969.2175               978.0548               987.1893
 Red. masses --      1.3135                 1.2964                 4.5717
 Frc consts  --      0.7270                 0.7306                 2.6250
 IR Inten    --      1.4278                 1.0953                 1.7078

                     52                     53                     54
                      A                      A                      A
 Frequencies --   1004.9618              1023.5950              1036.5273
 Red. masses --      4.0198                 1.3883                 2.2974
 Frc consts  --      2.3920                 0.8570                 1.4543
 IR Inten    --     11.4799                 0.5375                20.8224

                     55                     56                     57
                      A                      A                      A
 Frequencies --   1041.8291              1054.5668              1059.4518
 Red. masses --      2.5768                 2.8763                 2.2081
 Frc consts  --      1.6479                 1.8847                 1.4602
 IR Inten    --      0.7575                 0.7472                32.6935

                     58                     59                     60
                      A                      A                      A
 Frequencies --   1062.0858              1067.4439              1107.0030
 Red. masses --      2.3645                 2.3658                 2.0679
 Frc consts  --      1.5715                 1.5883                 1.4931
 IR Inten    --      0.7076                 0.7525                 4.7581

                     61                     62                     63
                      A                      A                      A
 Frequencies --   1131.6931              1135.8192              1150.6426
 Red. masses --      1.9244                 2.5239                 1.3086
 Frc consts  --      1.4521                 1.9184                 1.0208
 IR Inten    --     39.8231                 7.3779                 0.6252

                     64                     65                     66
                      A                      A                      A
 Frequencies --   1196.0937              1204.8923              1214.5201
 Red. masses --      2.5970                 2.2562                 1.8201
 Frc consts  --      2.1891                 1.9299                 1.5818
 IR Inten    --      9.1522                17.0088                 9.6983

                     67                     68                     69
                      A                      A                      A
 Frequencies --   1233.7430              1246.6690              1261.7584
 Red. masses --      1.2692                 2.1776                 1.6855
 Frc consts  --      1.1382                 1.9940                 1.5810
 IR Inten    --      0.1501                 6.7818                37.0583

                     70                     71                     72
                      A                      A                      A
 Frequencies --   1279.7552              1288.1643              1300.5512
 Red. masses --      1.3898                 1.9077                 1.3712
 Frc consts  --      1.3411                 1.8651                 1.3665
 IR Inten    --      1.0014                19.3404                12.6867

                     73                     74                     75
                      A                      A                      A
 Frequencies --   1322.4951              1325.1161              1326.6329
 Red. masses --      1.0436                 1.3546                 1.1902
 Frc consts  --      1.0754                 1.4014                 1.2342
 IR Inten    --      2.1612                13.4677                 9.5205

                     76                     77                     78
                      A                      A                      A
 Frequencies --   1333.4097              1338.1228              1345.2053
 Red. masses --      1.0657                 1.1291                 2.1864
 Frc consts  --      1.1164                 1.1911                 2.3311
 IR Inten    --      0.6143                 8.7596                26.7085

                     79                     80                     81
                      A                      A                      A
 Frequencies --   1353.7227              1364.3566              1381.0411
 Red. masses --      4.2510                 1.5481                 1.5043
 Frc consts  --      4.5898                 1.6979                 1.6904
 IR Inten    --     56.5814                12.5735                 0.3005

                     82                     83                     84
                      A                      A                      A
 Frequencies --   1392.2752              1395.3148              1408.8448
 Red. masses --      1.5759                 1.5969                 1.2506
 Frc consts  --      1.7999                 1.8318                 1.4625
 IR Inten    --      0.0911                 1.1776                 2.2071

                     85                     86                     87
                      A                      A                      A
 Frequencies --   1436.3059              1461.0969              1465.3885
 Red. masses --      2.4139                 1.5156                 2.2115
 Frc consts  --      2.9340                 1.9063                 2.7979
 IR Inten    --    352.5730                52.1698                24.1265

                     88                     89                     90
                      A                      A                      A
 Frequencies --   1481.9105              1483.5875              1485.5502
 Red. masses --      1.1628                 1.1457                 1.4272
 Frc consts  --      1.5045                 1.4858                 1.8558
 IR Inten    --     10.4488                 9.1896                29.9976

                     91                     92                     93
                      A                      A                      A
 Frequencies --   1487.0374              1491.9119              1498.1421
 Red. masses --      1.3253                 1.0780                 1.0401
 Frc consts  --      1.7266                 1.4137                 1.3753
 IR Inten    --     27.4800                 0.8580                 7.1207

                     94                     95                     96
                      A                      A                      A
 Frequencies --   1499.6949              1507.4850              1513.4815
 Red. masses --      1.0824                 1.0904                 1.0967
 Frc consts  --      1.4343                 1.4600                 1.4801
 IR Inten    --      1.1165                 0.7377                10.3248

                     97                     98                     99
                      A                      A                      A
 Frequencies --   1524.7649              1540.2952              1578.2090
 Red. masses --      5.6351                 5.8456                 5.3975
 Frc consts  --      7.7190                 8.1713                 7.9208
 IR Inten    --    411.9498                70.7623                20.0447

                    100                    101                    102
                      A                      A                      A
 Frequencies --   1621.6051              1639.8669              2982.9581
 Red. masses --      5.8301                 6.1941                 1.0579
 Frc consts  --      9.0327                 9.8140                 5.5463
 IR Inten    --     13.7498                 8.5789                 8.8082

                    103                    104                    105
                      A                      A                      A
 Frequencies --   2987.4112              2988.5685              2996.3316
 Red. masses --      1.0572                 1.0582                 1.0614
 Frc consts  --      5.5591                 5.5686                 5.6145
 IR Inten    --      3.6504                 0.9459                25.1572

                    106                    107                    108
                      A                      A                      A
 Frequencies --   3001.2994              3003.9803              3004.6406
 Red. masses --      1.0939                 1.0789                 1.0773
 Frc consts  --      5.8058                 5.7362                 5.7303
 IR Inten    --      2.6326                35.0606                66.6272

                    109                    110                    111
                      A                      A                      A
 Frequencies --   3010.0811              3011.9539              3015.6096
 Red. masses --      1.0666                 1.0354                 1.0977
 Frc consts  --      5.6941                 5.5345                 5.8813
 IR Inten    --     16.9129                61.3140                 4.2808

                    112                    113                    114
                      A                      A                      A
 Frequencies --   3022.5587              3031.1579              3043.3693
 Red. masses --      1.0621                 1.1029                 1.1035
 Frc consts  --      5.7172                 5.9703                 6.0219
 IR Inten    --     96.6307                 4.4679                59.9951

                    115                    116                    117
                      A                      A                      A
 Frequencies --   3049.4297              3070.6725              3072.5147
 Red. masses --      1.1028                 1.1059                 1.1010
 Frc consts  --      6.0420                 6.1438                 6.1236
 IR Inten    --     52.7001                40.3341                59.0831

                    118                    119                    120
                      A                      A                      A
 Frequencies --   3073.1829              3132.9103              3152.1902
 Red. masses --      1.1024                 1.0845                 1.0909
 Frc consts  --      6.1341                 6.2718                 6.3864
 IR Inten    --     87.8642                15.6629                49.1327

                    121                    122                    123
                      A                      A                      A
 Frequencies --   3179.0965              3182.0380              3481.4866
 Red. masses --      1.0915                 1.0929                 1.0635
 Frc consts  --      6.4996                 6.5200                 7.5950
 IR Inten    --     14.3845                26.2263               105.6704

 - Thermochemistry -
 -------------------
 Temperature   298.150 Kelvin.  Pressure   1.00000 Atm.
 Atom     1 has atomic number  6 and mass  12.00000

 Molecular mass:   286.15689 amu.
 Principal axes and moments of inertia in atomic units:
                           1         2         3
     Eigenvalues --  2514.28210********************
           X            0.82146   0.54803   0.15772
           Y           -0.37476   0.72723  -0.57506
           Z           -0.42985   0.41328   0.80277
 This molecule is an asymmetric top.
 Rotational symmetry number  1.
 Warning -- assumption of classical behavior for rotation
           may cause significant error
 Rotational temperatures (Kelvin)      0.03445     0.00433     0.00403
 Rotational constants (GHZ):           0.71780     0.09020     0.08403
 Zero-point vibrational energy     946853.1 (Joules/Mol)
                                  226.30333 (Kcal/Mol)
 Warning -- explicit consideration of  30 degrees of freedom as
           vibrations may cause significant error
 Vibrational temperatures:     18.58    36.08    46.54    61.76    91.88
          (Kelvin)            132.21   140.88   146.75   174.23   212.55
                              221.38   223.31   238.18   263.01   350.31
                              362.82   369.94   429.55   449.21   486.49
                              523.28   543.62   591.76   619.26   633.57
                              658.43   678.69   713.35   765.99   823.06
                              928.74   973.26  1006.44  1014.29  1024.92
                             1050.99  1056.25  1056.68  1080.42  1095.20
                             1124.62  1138.84  1218.27  1240.09  1284.65
                             1286.09  1360.07  1374.17  1394.49  1407.20
                             1420.35  1445.92  1472.72  1491.33  1498.96
                             1517.29  1524.31  1528.10  1535.81  1592.73
                             1628.25  1634.19  1655.52  1720.91  1733.57
                             1747.42  1775.08  1793.68  1815.39  1841.28
                             1853.38  1871.20  1902.78  1906.55  1908.73
                             1918.48  1925.26  1935.45  1947.71  1963.00
                             1987.01  2003.17  2007.55  2027.01  2066.52
                             2102.19  2108.37  2132.14  2134.55  2137.38
                             2139.52  2146.53  2155.49  2157.73  2168.93
                             2177.56  2193.80  2216.14  2270.69  2333.13
                             2359.40  4291.81  4298.22  4299.88  4311.05
                             4318.20  4322.06  4323.01  4330.84  4333.53
                             4338.79  4348.79  4361.16  4378.73  4387.45
                             4418.01  4420.66  4421.62  4507.56  4535.30
                             4574.01  4578.24  5009.08

 Zero-point correction=                           0.360637 (Hartree/Particle)
 Thermal correction to Energy=                    0.381474
 Thermal correction to Enthalpy=                  0.382418
 Thermal correction to Gibbs Free Energy=         0.307337
 Sum of electronic and zero-point Energies=           -924.833291
 Sum of electronic and thermal Energies=              -924.812455
 Sum of electronic and thermal Enthalpies=            -924.811510
 Sum of electronic and thermal Free Energies=         -924.886591

                     E (Thermal)             CV                S
                      KCal/Mol        Cal/Mol-Kelvin    Cal/Mol-Kelvin
 Total                  239.378             78.368            158.020
 Electronic               0.000              0.000              1.377
 Translational            0.889              2.981             42.852
 Rotational               0.889              2.981             35.334
 Vibrational            237.601             72.406             78.457
 Vibration     1          0.593              1.987              7.503
 Vibration     2          0.593              1.985              6.185
 Vibration     3          0.594              1.983              5.680
 Vibration     4          0.595              1.980              5.119
 Vibration     5          0.597              1.972              4.334
 Vibration     6          0.602              1.955              3.619
 Vibration     7          0.603              1.951              3.495
 Vibration     8          0.604              1.948              3.416
 Vibration     9          0.609              1.932              3.083
 Vibration    10          0.617              1.905              2.701
 Vibration    11          0.619              1.898              2.624
 Vibration    12          0.620              1.897              2.607
 Vibration    13          0.624              1.885              2.485
 Vibration    14          0.630              1.863              2.300
 Vibration    15          0.659              1.774              1.777
 Vibration    16          0.664              1.759              1.715
 Vibration    17          0.667              1.751              1.681
 Vibration    18          0.692              1.676              1.425
 Vibration    19          0.701              1.650              1.351
 Vibration    20          0.718              1.599              1.221
 Vibration    21          0.737              1.547              1.106
 Vibration    22          0.748              1.517              1.048
 Vibration    23          0.775              1.446              0.922
 Vibration    24          0.792              1.404              0.857
 Vibration    25          0.800              1.382              0.825
 Vibration    26          0.816              1.344              0.773
 Vibration    27          0.829              1.313              0.733
 Vibration    28          0.851              1.259              0.669
 Vibration    29          0.887              1.178              0.582
 Vibration    30          0.928              1.092              0.500

 Optimization completed.
    -- Stationary point found.
 Normal termination of Gaussian 16 at Wed Dec 27 05:12:00 2023.
