 Q-Chem 5.4, Q-Chem, Inc., Pleasanton, CA (2021)
 Q-Chem 5.4.0 for Intel X86 EM64T Linux

User input:
--------------------------------------------------------------
$molecule
-2 1
O                  0.0998540000      2.9838620000      0.8637540000
C                  0.0602490000      1.7679800000      0.4854200000
C                  1.1830150000      0.8572000000      0.2926760000
C                  2.5649500000      1.0600420000      0.4677850000
C                  3.4569980000      0.0225770000      0.2205770000
C                  2.9932740000     -1.2472870000     -0.2053610000
C                  1.6217870000     -1.4737640000     -0.3603790000
C                  0.7085110000     -0.4514520000     -0.0973010000
C                 -0.7361000000     -0.3858000000     -0.1567870000
C                 -1.7131090000     -1.3222770000     -0.4982490000
C                 -3.0667910000     -0.9722170000     -0.4551680000
C                 -3.4473150000      0.3354240000     -0.0633380000
C                 -2.4885490000      1.2890080000      0.2603760000
C                 -1.1208050000      0.9617580000      0.1981410000
H                  2.9210150000      2.0344780000      0.7932320000
H                  4.5271770000      0.1827040000      0.3427400000
H                  3.7061970000     -2.0418640000     -0.4173550000
H                  1.2724790000     -2.4542100000     -0.6805850000
H                 -1.4291640000     -2.3313350000     -0.7930510000
H                 -3.8286080000     -1.6999630000     -0.7283390000
H                 -4.5049940000      0.5922520000     -0.0283690000
H                 -2.7800720000      2.2928820000      0.5595820000
$end
$rem
MAX_SCF_CYCLES=200
BASIS  =  6-311++G(d,p)
GUI  =  2
JOB_TYPE  =  SP
METHOD  =  B3LYP
SOLVENT_METHOD = PCM
$end
$pcm
theory = CPCM
$end
$solvent
dielectric 37.219
opticaldielectric 1.43
$end

--------------------------------------------------------------

             Standard Nuclear Orientation (Angstroms)
    I     Atom           X                Y                Z
 ----------------------------------------------------------------
    1      O       0.0998540000     2.9838620000     0.8637540000
    2      C       0.0602490000     1.7679800000     0.4854200000
    3      C       1.1830150000     0.8572000000     0.2926760000
    4      C       2.5649500000     1.0600420000     0.4677850000
    5      C       3.4569980000     0.0225770000     0.2205770000
    6      C       2.9932740000    -1.2472870000    -0.2053610000
    7      C       1.6217870000    -1.4737640000    -0.3603790000
    8      C       0.7085110000    -0.4514520000    -0.0973010000
    9      C      -0.7361000000    -0.3858000000    -0.1567870000
   10      C      -1.7131090000    -1.3222770000    -0.4982490000
   11      C      -3.0667910000    -0.9722170000    -0.4551680000
   12      C      -3.4473150000     0.3354240000    -0.0633380000
   13      C      -2.4885490000     1.2890080000     0.2603760000
   14      C      -1.1208050000     0.9617580000     0.1981410000
   15      H       2.9210150000     2.0344780000     0.7932320000
   16      H       4.5271770000     0.1827040000     0.3427400000
   17      H       3.7061970000    -2.0418640000    -0.4173550000
   18      H       1.2724790000    -2.4542100000    -0.6805850000
   19      H      -1.4291640000    -2.3313350000    -0.7930510000
   20      H      -3.8286080000    -1.6999630000    -0.7283390000
   21      H      -4.5049940000     0.5922520000    -0.0283690000
   22      H      -2.7800720000     2.2928820000     0.5595820000
 ----------------------------------------------------------------

   10    -575.7814128643      3.38e-06  Convergence criterion met
 Total energy in the final basis set =     -575.7814128643

                    Orbital Energies (a.u.)
 --------------------------------------------------------------

 Alpha MOs
 -- Occupied --
-19.0089 -10.1453 -10.1415 -10.1415 -10.1371 -10.1371 -10.1335 -10.1335
-10.1291 -10.1291 -10.1234 -10.1231 -10.1109 -10.1109  -0.9260  -0.8303
 -0.8010  -0.7476  -0.7173  -0.7036  -0.6692  -0.6139  -0.5858  -0.5458
 -0.5329  -0.5105  -0.4662  -0.4580  -0.4276  -0.4059  -0.4051  -0.3880
 -0.3838  -0.3726  -0.3672  -0.3553  -0.3241  -0.3234  -0.3212  -0.3008
 -0.2957  -0.2892  -0.2536  -0.2213  -0.2189  -0.1864  -0.1772  -0.0833

          Ground-State Mulliken Net Atomic Charges

     Atom                 Charge (a.u.)
  ----------------------------------------
      1 O                    -0.792275
      2 C                    -0.196939
      3 C                     0.583964
      4 C                    -0.359036
      5 C                    -0.380381
      6 C                    -0.414126
      7 C                    -0.539213
      8 C                     0.066447
      9 C                     0.067066
     10 C                    -0.541682
     11 C                    -0.412755
     12 C                    -0.383501
     13 C                    -0.370504
     14 C                     0.588509
     15 H                     0.120288
     16 H                     0.149988
     17 H                     0.156192
     18 H                     0.115733
     19 H                     0.115672
     20 H                     0.156378
     21 H                     0.149901
     22 H                     0.120274
  ----------------------------------------
  Sum of atomic charges =    -2.000000

                    Cartesian Multipole Moments
 -----------------------------------------------------------------
    Charge (ESU x 10^10)
                -9.6064
    Dipole Moment (Debye)
         X      -0.3936      Y     -11.6802      Z      -3.3828
       Tot      12.1666
    Quadrupole Moments (Debye-Ang)
        XX    -118.4918     XY      -0.1125     YY    -129.1784
        XZ      -1.1587     YZ      -8.8594     ZZ    -100.0322

 Total job time:  42.10s(wall), 250.59s(cpu)
        *  Thank you very much for using Q-Chem.  Have a nice day.  *
