 Gaussian 16, Revision A.03,
 Gaussian 16:  ES64L-G16RevA.03 25-Dec-2016

 ----------------------------------------------------------------------
 #P UB3LYP/6-311++G(d,p) nosym opt freq SCRF=(PCM,Solvent=n,n-DiMethylF
 ormamide)
 ----------------------------------------------------------------------

 -------
 Radical
 -------
 Symbolic Z-matrix:
 Charge = -1 Multiplicity = 2

 SCF Done:  E(UB3LYP) =  -885.943015305     A.U. after   20 cycles
 SCF Done:  E(UB3LYP) =  -885.943289093     A.U. after   15 cycles
 SCF Done:  E(UB3LYP) =  -885.943320516     A.U. after   15 cycles
 SCF Done:  E(UB3LYP) =  -885.943343528     A.U. after   12 cycles
 SCF Done:  E(UB3LYP) =  -885.943347290     A.U. after   13 cycles
 SCF Done:  E(UB3LYP) =  -885.943348316     A.U. after   11 cycles
 SCF Done:  E(UB3LYP) =  -885.943348481     A.U. after   10 cycles
 SCF Done:  E(UB3LYP) =  -885.943348512     A.U. after    9 cycles
 Optimization completed.
    -- Stationary point found.
 Normal termination of Gaussian 16 at Sun Feb 11 02:49:27 2024.

 ----------------------------------------------------------------------
 #P Geom=AllCheck Guess=TCheck SCRF=Check GenChk UB3LYP/6-311++G(d,p) F
 req
 ----------------------------------------------------------------------

 Structure from the checkpoint file:  "285-rad.chk"
 -------
 Radical
 -------
 Charge = -1 Multiplicity = 2

                          Input orientation:
 ---------------------------------------------------------------------
 Center     Atomic      Atomic             Coordinates (Angstroms)
 Number     Number       Type             X           Y           Z
 ---------------------------------------------------------------------
      1          6           0       -0.217679    3.851827   -0.162054
      2          6           0       -1.446336    3.223122   -0.255703
      3          6           0       -1.511088    1.837846   -0.498602
      4          6           0        0.982414    3.122345   -0.306943
      5          6           0        0.919607    1.721168   -0.552163
      6          6           0       -0.343059    1.106470   -0.643145
      7          6           0        2.270355    3.778435   -0.208908
      8          6           0        3.439487    2.950672   -0.370509
      9          6           0        3.416422    1.589502   -0.604220
     10          6           0        2.145593    0.912713   -0.710715
     11          8           0        2.439035    5.026782    0.009199
     12          8           0        2.069038   -0.331825   -0.927315
     13          1           0       -0.154964    4.917280    0.025293
     14          1           0       -2.360114    3.796563   -0.142242
     15          1           0       -2.474451    1.345027   -0.572412
     16          1           0       -0.377934    0.040008   -0.830972
     17          8           0        4.619991    3.628142   -0.267276
     18          6           0        4.693164    0.804300   -0.769682
     19          6           0        5.185523    0.727992   -2.229274
     20          6           0        6.467862   -0.095968   -2.388095
     21          6           0        6.969203   -0.178648   -3.834481
     22          6           0        8.247726   -1.008756   -3.995843
     23          1           0        4.335075    4.549814   -0.094902
     24          1           0        4.525294   -0.212259   -0.403352
     25          1           0        5.480332    1.251690   -0.154998
     26          1           0        5.354998    1.743915   -2.605148
     27          1           0        4.393287    0.294201   -2.849995
     28          1           0        6.293564   -1.111039   -2.007689
     29          1           0        7.255797    0.335608   -1.756789
     30          1           0        7.147470    0.836171   -4.213477
     31          1           0        6.179590   -0.606197   -4.466117
     32          1           0        8.069685   -2.024210   -3.617982
     33          1           0        9.038382   -0.582530   -3.364306
     34          6           0        8.750037   -1.091978   -5.441829
     35          6           0       10.025883   -1.925968   -5.593211
     36          1           0        8.930385   -0.077918   -5.819195
     37          1           0        7.959993   -1.516494   -6.073388
     38          1           0       10.844373   -1.506325   -4.999339
     39          1           0       10.357099   -1.964924   -6.634979
     40          1           0        9.866583   -2.955354   -5.256019
 ---------------------------------------------------------------------

 SCF Done:  E(UB3LYP) =  -885.943348512     A.U. after    1 cycles

 Alpha  occ. eigenvalues --  -19.14334 -19.08419 -19.07224 -10.22212 -10.22084
 Alpha  occ. eigenvalues --  -10.21998 -10.17452 -10.17247 -10.17230 -10.17114
 Alpha  occ. eigenvalues --  -10.17081 -10.16939 -10.16217 -10.16015 -10.15761
 Alpha  occ. eigenvalues --  -10.15754 -10.15719 -10.15669 -10.15647 -10.15405
 Alpha  occ. eigenvalues --   -1.06221  -0.99490  -0.99296  -0.85802  -0.81383
 Alpha  occ. eigenvalues --   -0.80120  -0.77668  -0.75104  -0.74897  -0.71855
 Alpha  occ. eigenvalues --   -0.68253  -0.65956  -0.62506  -0.61380  -0.58857
 Alpha  occ. eigenvalues --   -0.57282  -0.57246  -0.56793  -0.53581  -0.50455
 Alpha  occ. eigenvalues --   -0.48386  -0.47709  -0.46154  -0.45266  -0.44650
 Alpha  occ. eigenvalues --   -0.43730  -0.42704  -0.42609  -0.42044  -0.41294
 Alpha  occ. eigenvalues --   -0.41008  -0.40025  -0.39486  -0.38635  -0.37998
 Alpha  occ. eigenvalues --   -0.37588  -0.36786  -0.36309  -0.35814  -0.34619
 Alpha  occ. eigenvalues --   -0.34226  -0.33731  -0.33435  -0.33286  -0.32159
 Alpha  occ. eigenvalues --   -0.32008  -0.31714  -0.30712  -0.26632  -0.25762
 Alpha  occ. eigenvalues --   -0.25701  -0.23813  -0.22724  -0.15081
 Alpha virt. eigenvalues --   -0.03270  -0.00833  -0.00452  -0.00033   0.00647
 Alpha virt. eigenvalues --    0.01054   0.01135   0.01790   0.02075   0.02850
 Alpha virt. eigenvalues --    0.02977   0.03727   0.04284   0.04611   0.04711

  Beta  occ. eigenvalues --  -19.14286 -19.07783 -19.06681 -10.22078 -10.21981
  Beta  occ. eigenvalues --  -10.21713 -10.17437 -10.17225 -10.17138 -10.17038
  Beta  occ. eigenvalues --  -10.17030 -10.16959 -10.16139 -10.16015 -10.15767
  Beta  occ. eigenvalues --  -10.15754 -10.15719 -10.15664 -10.15643 -10.15405
  Beta  occ. eigenvalues --   -1.06014  -0.98538  -0.98210  -0.85568  -0.81198
  Beta  occ. eigenvalues --   -0.79972  -0.77532  -0.74907  -0.74758  -0.71760
  Beta  occ. eigenvalues --   -0.67821  -0.65437  -0.62390  -0.61196  -0.58695
  Beta  occ. eigenvalues --   -0.57281  -0.57163  -0.56588  -0.53407  -0.50227
  Beta  occ. eigenvalues --   -0.48216  -0.47582  -0.46022  -0.45175  -0.44604
  Beta  occ. eigenvalues --   -0.43232  -0.42580  -0.41987  -0.41925  -0.41004
  Beta  occ. eigenvalues --   -0.40717  -0.39767  -0.39222  -0.37847  -0.37617
  Beta  occ. eigenvalues --   -0.37291  -0.36701  -0.36170  -0.34635  -0.34441
  Beta  occ. eigenvalues --   -0.33642  -0.33438  -0.33134  -0.32647  -0.32144
  Beta  occ. eigenvalues --   -0.31968  -0.31668  -0.30619  -0.25199  -0.25001
  Beta  occ. eigenvalues --   -0.24641  -0.23300  -0.21790
  Beta virt. eigenvalues --   -0.08523  -0.02520  -0.00474  -0.00026   0.00266
  Beta virt. eigenvalues --    0.00677   0.01068   0.01145   0.01801   0.02079
  Beta virt. eigenvalues --    0.02868   0.02987   0.03740   0.04310   0.04624

 Mulliken charges and spin densities:
               1          2
     1  C    0.052548   0.072130
     2  C   -0.370489  -0.000699
     3  C   -0.436230   0.069225
     4  C    0.486988  -0.003377
     5  C   -0.062318   0.058320
     6  C    0.086425   0.003487
     7  C   -0.905892   0.163123
     8  C   -0.627359   0.062257
     9  C    1.996975   0.055557
    10  C   -0.748774   0.074808
    11  O   -0.528187   0.232464
    12  O   -0.463984   0.201125
    13  H    0.166023  -0.004076
    14  H    0.182522  -0.000614
    15  H    0.177909  -0.004963
    16  H    0.167114  -0.000421
    17  O   -0.278713   0.016314
    18  C   -0.370230   0.010795
    19  C   -0.608586  -0.003124
    20  C   -0.082709   0.001943
    21  C   -0.096486  -0.002875
    22  C   -0.273329  -0.000383
    23  H    0.289562  -0.003594
    24  H    0.201396   0.002052
    25  H    0.210087  -0.000363
    26  H    0.165247   0.002446
    27  H    0.171851  -0.001609
    28  H    0.111310   0.000457
    29  H    0.112993  -0.000399
    30  H    0.123295  -0.000064
    31  H    0.121644  -0.000015
    32  H    0.125778  -0.000007
    33  H    0.125278  -0.000005
    34  C   -0.224584  -0.000018
    35  C   -0.681982   0.000093
    36  H    0.130894  -0.000002
    37  H    0.130924  -0.000003
    38  H    0.139596  -0.000014
    39  H    0.143815   0.000019
    40  H    0.139677   0.000009
 Sum of Mulliken charges =  -1.00000   1.00000

 Dipole moment (field-independent basis, Debye):
    X=            -11.6415    Y=            -10.5108    Z=              2.2888  Tot=             15.8506
 Quadrupole moment (field-independent basis, Debye-Ang):
   XX=           -156.6868   YY=           -179.2095   ZZ=           -130.3163
   XY=            -26.4423   XZ=              5.5658   YZ=              0.1094

  Exact polarizability: 399.804  -9.667 378.669 -14.111  36.377 214.849
 Approx polarizability: 414.026   8.675 439.858  -1.397  37.999 231.514

                      1                      2                      3
                      A                      A                      A
 Frequencies --     19.6560                28.9295                39.9594
 Red. masses --      5.0446                 5.1081                 1.6685
 Frc consts  --      0.0011                 0.0025                 0.0016
 IR Inten    --      0.9352                 1.0858                 0.1840

                      4                      5                      6
                      A                      A                      A
 Frequencies --     60.2540                74.6345                98.0732
 Red. masses --      3.0478                 4.7290                 4.3278
 Frc consts  --      0.0065                 0.0155                 0.0245
 IR Inten    --      1.1336                 7.1605                 3.7451

                      7                      8                      9
                      A                      A                      A
 Frequencies --    107.0290               123.9325               133.1464
 Red. masses --      2.0857                 4.3442                 2.2002
 Frc consts  --      0.0141                 0.0393                 0.0230
 IR Inten    --      1.3743                 1.2486                 0.4498

                     10                     11                     12
                      A                      A                      A
 Frequencies --    154.0402               156.3511               185.2981
 Red. masses --      6.5933                 1.9073                 7.1244
 Frc consts  --      0.0922                 0.0275                 0.1441
 IR Inten    --      0.6078                 0.0363                 2.1298

                     13                     14                     15
                      A                      A                      A
 Frequencies --    204.5046               243.7553               257.3360
 Red. masses --      3.7232                 1.1189                 4.3648
 Frc consts  --      0.0917                 0.0392                 0.1703
 IR Inten    --      0.3254                 0.0033                 5.8499

                     16                     17                     18
                      A                      A                      A
 Frequencies --    275.9876               303.5992               331.4262
 Red. masses --      4.2337                 2.8473                 5.4252
 Frc consts  --      0.1900                 0.1546                 0.3511
 IR Inten    --      0.1058                 5.1882                24.0896

                     19                     20                     21
                      A                      A                      A
 Frequencies --    358.1054               378.3034               396.1892
 Red. masses --      4.2137                 9.9199                 4.1026
 Frc consts  --      0.3184                 0.8364                 0.3794
 IR Inten    --      3.3302                32.5231                 4.0234

                     22                     23                     24
                      A                      A                      A
 Frequencies --    422.6352               430.5255               446.3573
 Red. masses --      5.0149                 9.0239                 3.6293
 Frc consts  --      0.5278                 0.9855                 0.4260
 IR Inten    --      1.3309                 3.4415                 3.4290

                     25                     26                     27
                      A                      A                      A
 Frequencies --    477.1243               488.5124               532.9849
 Red. masses --      3.4610                 5.6745                 6.8220
 Frc consts  --      0.4642                 0.7979                 1.1418
 IR Inten    --      1.8972                 5.0218                 1.2238

                     28                     29                     30
                      A                      A                      A
 Frequencies --    574.1164               643.6050               654.2678
 Red. masses --      5.2955                 6.1125                 1.1159
 Frc consts  --      1.0284                 1.4918                 0.2814
 IR Inten    --      3.3334                34.2305               135.4155

                     31                     32                     33
                      A                      A                      A
 Frequencies --    674.8301               697.6101               705.6965
 Red. masses --      5.7525                 3.2200                 3.3581
 Frc consts  --      1.5435                 0.9233                 0.9853
 IR Inten    --     10.1733                 3.4551                72.9887

                     34                     35                     36
                      A                      A                      A
 Frequencies --    712.6689               729.2435               736.1142
 Red. masses --      5.2708                 1.0787                 1.1739
 Frc consts  --      1.5773                 0.3380                 0.3748
 IR Inten    --     21.2394                13.0055                 0.1206

                     37                     38                     39
                      A                      A                      A
 Frequencies --    761.8901               763.9735               785.9251
 Red. masses --      3.3088                 1.2963                 2.1050
 Frc consts  --      1.1316                 0.4458                 0.7661
 IR Inten    --     26.1111                 2.2792                26.6402

                     40                     41                     42
                      A                      A                      A
 Frequencies --    819.2780               873.5058               877.9642
 Red. masses --      1.4566                 2.1278                 1.3910
 Frc consts  --      0.5761                 0.9566                 0.6317
 IR Inten    --      9.1943                32.2237                 0.0113

                     43                     44                     45
                      A                      A                      A
 Frequencies --    894.5460               930.1365               940.7258
 Red. masses --      1.9446                 1.6083                 4.4763
 Frc consts  --      0.9168                 0.8198                 2.3340
 IR Inten    --      3.0104                16.6379                42.3440

                     46                     47                     48
                      A                      A                      A
 Frequencies --    978.9795               987.5747               995.1136
 Red. masses --      1.3709                 4.5943                 1.2852
 Frc consts  --      0.7741                 2.6400                 0.7498
 IR Inten    --      2.4006                14.3922                 0.0840

                     49                     50                     51
                      A                      A                      A
 Frequencies --   1010.9387              1024.9241              1037.8522
 Red. masses --      1.4470                 3.0457                 3.1036
 Frc consts  --      0.8713                 1.8850                 1.9697
 IR Inten    --      1.6681                21.1320                 7.7632

                     52                     53                     54
                      A                      A                      A
 Frequencies --   1041.8135              1055.3772              1057.2446
 Red. masses --      2.1191                 2.4814                 2.4963
 Frc consts  --      1.3551                 1.6284                 1.6440
 IR Inten    --     28.7577                78.4706                11.5670

                     55                     56                     57
                      A                      A                      A
 Frequencies --   1065.2970              1109.7350              1125.7224
 Red. masses --      2.2435                 2.1584                 1.7372
 Frc consts  --      1.5001                 1.5661                 1.2971
 IR Inten    --      0.5928                 7.8466               136.3871

                     58                     59                     60
                      A                      A                      A
 Frequencies --   1132.0573              1154.8263              1193.6786
 Red. masses --      2.4995                 1.3190                 2.6156
 Frc consts  --      1.8873                 1.0364                 2.1958
 IR Inten    --     12.2338                 2.9928                39.6189

                     61                     62                     63
                      A                      A                      A
 Frequencies --   1202.9153              1213.7538              1241.6023
 Red. masses --      2.0750                 1.7704                 1.2658
 Frc consts  --      1.7691                 1.5367                 1.1496
 IR Inten    --     15.8617                31.3249                 0.7091

                     64                     65                     66
                      A                      A                      A
 Frequencies --   1249.4456              1267.3091              1285.9041
 Red. masses --      2.2471                 1.5990                 1.8026
 Frc consts  --      2.0669                 1.5131                 1.7562
 IR Inten    --     38.2060               126.6526                15.6572

                     67                     68                     69
                      A                      A                      A
 Frequencies --   1296.8945              1308.8129              1322.6288
 Red. masses --      1.4926                 1.3596                 1.3761
 Frc consts  --      1.4791                 1.3722                 1.4183
 IR Inten    --     32.6533                73.9428               155.2214

                     70                     71                     72
                      A                      A                      A
 Frequencies --   1325.1985              1330.4684              1332.2068
 Red. masses --      1.1572                 1.1454                 1.1238
 Frc consts  --      1.1974                 1.1946                 1.1751
 IR Inten    --     38.8994                 1.4806                 0.7311

                     73                     74                     75
                      A                      A                      A
 Frequencies --   1342.0625              1350.3117              1369.3174
 Red. masses --      1.4499                 8.6451                 1.4661
 Frc consts  --      1.5386                 9.2873                 1.6197
 IR Inten    --      3.8862                51.2077                 5.0012

                     76                     77                     78
                      A                      A                      A
 Frequencies --   1387.0861              1394.4043              1403.5698
 Red. masses --      1.5453                 1.6097                 1.2570
 Frc consts  --      1.7518                 1.8441                 1.4590
 IR Inten    --      1.1587                 0.5899                 2.5984

                     79                     80                     81
                      A                      A                      A
 Frequencies --   1422.7688              1454.6074              1459.3865
 Red. masses --      2.7941                 1.9079                 2.2157
 Frc consts  --      3.3324                 2.3785                 2.7804
 IR Inten    --    742.4538               382.8750                48.2650

                     82                     83                     84
                      A                      A                      A
 Frequencies --   1470.9588              1474.0094              1477.6963
 Red. masses --      1.0692                 1.1183                 1.8258
 Frc consts  --      1.3631                 1.4316                 2.3490
 IR Inten    --      0.4264                17.7058               120.3969

                     85                     86                     87
                      A                      A                      A
 Frequencies --   1482.4553              1487.9150              1491.3225
 Red. masses --      1.1372                 1.0402                 1.0945
 Frc consts  --      1.4724                 1.3568                 1.4342
 IR Inten    --      5.4469                10.3199                 6.9139

                     88                     89                     90
                      A                      A                      A
 Frequencies --   1499.3231              1500.3882              1506.8411
 Red. masses --      2.9876                 1.2216                 1.0984
 Frc consts  --      3.9570                 1.6203                 1.4695
 IR Inten    --    834.4806               133.7705                20.0410

                     91                     92                     93
                      A                      A                      A
 Frequencies --   1529.0643              1571.8625              1622.9813
 Red. masses --      5.1762                 5.3496                 5.8959
 Frc consts  --      7.1303                 7.7875                 9.1501
 IR Inten    --     16.9828                16.9784                 8.0747

                     94                     95                     96
                      A                      A                      A
 Frequencies --   1631.3634              2987.9037              2989.0037
 Red. masses --      6.5592                 1.0576                 1.0572
 Frc consts  --     10.2849                 5.5631                 5.5648
 IR Inten    --      6.4065                 0.5297                 3.4369

                     97                     98                     99
                      A                      A                      A
 Frequencies --   2994.5546              3002.6063              3004.1385
 Red. masses --      1.0588                 1.0594                 1.0984
 Frc consts  --      5.5942                 5.6275                 5.8406
 IR Inten    --     82.1680               137.1803                 1.1331

                    100                    101                    102
                      A                      A                      A
 Frequencies --   3009.3965              3011.9925              3012.8565
 Red. masses --      1.0625                 1.0970                 1.0356
 Frc consts  --      5.6693                 5.8635                 5.5387
 IR Inten    --     70.0626                 7.5338                55.4304

                    103                    104                    105
                      A                      A                      A
 Frequencies --   3025.8268              3029.6459              3038.7337
 Red. masses --      1.1018                 1.0620                 1.1041
 Frc consts  --      5.9434                 5.7430                 6.0070
 IR Inten    --      6.3230               108.7695                65.6137

                    106                    107                    108
                      A                      A                      A
 Frequencies --   3046.4030              3071.4983              3074.9679
 Red. masses --      1.1037                 1.1026                 1.1045
 Frc consts  --      6.0351                 6.1288                 6.1534
 IR Inten    --    176.5824               116.4490                69.8421

                    109                    110                    111
                      A                      A                      A
 Frequencies --   3076.3350              3158.4893              3172.1549
 Red. masses --      1.1011                 1.0858                 1.0898
 Frc consts  --      6.1397                 6.3821                 6.4614
 IR Inten    --     73.1013                 9.0547                19.9766

                    112                    113                    114
                      A                      A                      A
 Frequencies --   3186.1611              3190.6113              3533.5160
 Red. masses --      1.0923                 1.0946                 1.0640
 Frc consts  --      6.5333                 6.5651                 7.8269
 IR Inten    --     21.3477                35.3280               196.4603

 - Thermochemistry -
 -------------------
 Temperature   298.150 Kelvin.  Pressure   1.00000 Atm.
 Atom     1 has atomic number  6 and mass  12.00000

 Molecular mass:   272.14124 amu.
 Principal axes and moments of inertia in atomic units:
                           1         2         3
     Eigenvalues --  2349.17810********************
           X            0.81657   0.52205   0.24632
           Y           -0.39357   0.81567  -0.42401
           Z           -0.42227   0.24929   0.87152
 This molecule is an asymmetric top.
 Rotational symmetry number  1.
 Warning -- assumption of classical behavior for rotation
           may cause significant error
 Rotational temperatures (Kelvin)      0.03687     0.00551     0.00503
 Rotational constants (GHZ):           0.76824     0.11472     0.10472
 Zero-point vibrational energy     872074.8 (Joules/Mol)
                                  208.43087 (Kcal/Mol)
 Warning -- explicit consideration of  28 degrees of freedom as
           vibrations may cause significant error
 Vibrational temperatures:     28.28    41.62    57.49    86.69   107.38
          (Kelvin)            141.11   153.99   178.31   191.57   221.63
                              224.95   266.60   294.24   350.71   370.25
                              397.08   436.81   476.85   515.23   544.29
                              570.03   608.08   619.43   642.21   686.48
                              702.86   766.85   826.03   926.00   941.35
                              970.93  1003.71  1015.34  1025.37  1049.22
                             1059.10  1096.19  1099.19  1130.77  1178.76
                             1256.78  1263.19  1287.05  1338.26  1353.49
                             1408.53  1420.90  1431.75  1454.52  1474.64
                             1493.24  1498.94  1518.45  1521.14  1532.72
                             1596.66  1619.66  1628.78  1661.54  1717.44
                             1730.73  1746.32  1786.39  1797.67  1823.38
                             1850.13  1865.94  1883.09  1902.97  1906.67
                             1914.25  1916.75  1930.93  1942.80  1970.14
                             1995.71  2006.24  2019.42  2047.05  2092.86
                             2099.73  2116.38  2120.77  2126.08  2132.92
                             2140.78  2145.68  2157.19  2158.72  2168.01
                             2199.98  2261.56  2335.11  2347.17  4298.93
                             4300.51  4308.50  4320.08  4322.29  4329.85
                             4333.59  4334.83  4353.49  4358.98  4372.06
                             4383.09  4419.20  4424.19  4426.16  4544.36
                             4564.02  4584.18  4590.58  5083.94

 Zero-point correction=                           0.332156 (Hartree/Particle)
 Thermal correction to Energy=                    0.351600
 Thermal correction to Enthalpy=                  0.352544
 Thermal correction to Gibbs Free Energy=         0.281624
 Sum of electronic and zero-point Energies=           -885.611193
 Sum of electronic and thermal Energies=              -885.591749
 Sum of electronic and thermal Enthalpies=            -885.590805
 Sum of electronic and thermal Free Energies=         -885.661725

                     E (Thermal)             CV                S
                      KCal/Mol        Cal/Mol-Kelvin    Cal/Mol-Kelvin
 Total                  220.632             73.668            149.264
 Electronic               0.000              0.000              1.377
 Translational            0.889              2.981             42.702
 Rotational               0.889              2.981             34.809
 Vibrational            218.855             67.707             70.375
 Vibration     1          0.593              1.986              6.669
 Vibration     2          0.593              1.984              5.902
 Vibration     3          0.594              1.981              5.261
 Vibration     4          0.597              1.973              4.449
 Vibration     5          0.599              1.966              4.027
 Vibration     6          0.604              1.951              3.492
 Vibration     7          0.606              1.944              3.322
 Vibration     8          0.610              1.929              3.038
 Vibration     9          0.613              1.920              2.900
 Vibration    10          0.620              1.898              2.622
 Vibration    11          0.620              1.896              2.593
 Vibration    12          0.631              1.860              2.274
 Vibration    13          0.640              1.833              2.092
 Vibration    14          0.659              1.773              1.775
 Vibration    15          0.667              1.750              1.680
 Vibration    16          0.678              1.718              1.558
 Vibration    17          0.695              1.667              1.397
 Vibration    18          0.714              1.613              1.253
 Vibration    19          0.733              1.559              1.130
 Vibration    20          0.749              1.516              1.046
 Vibration    21          0.763              1.478              0.977
 Vibration    22          0.785              1.421              0.883
 Vibration    23          0.792              1.404              0.857
 Vibration    24          0.806              1.369              0.807
 Vibration    25          0.834              1.301              0.718
 Vibration    26          0.844              1.276              0.687
 Vibration    27          0.888              1.177              0.581
 Vibration    28          0.930              1.087              0.496

 Optimization completed.
    -- Stationary point found.
 Normal termination of Gaussian 16 at Sun Feb 11 05:00:01 2024.
