 Q-Chem 5.4, Q-Chem, Inc., Pleasanton, CA (2021)
 Q-Chem 5.4.0 for Intel X86 EM64T Linux

User input:
--------------------------------------------------------------
$molecule
-1 2
C                 -2.1767190000     -2.1014920000      4.9811520000
C                 -1.2991420000     -3.1441910000      4.4844160000
C                 -1.2403990000     -3.3830210000      3.1268500000
C                 -2.0101080000     -2.6529800000      2.1370340000
C                 -2.8681570000     -1.6114520000      2.6407180000
C                 -2.9402850000     -1.3321990000      3.9851810000
O                 -2.3357830000     -1.8164960000      6.2143430000
O                 -1.9220190000     -2.9249490000      0.9044630000
N                 -3.6980260000     -0.3121040000      4.5474640000
C                 -4.8840240000      0.2420160000      3.9203050000
C                 -6.0530540000     -0.7592700000      3.8422310000
C                 -5.2919780000      1.5178380000      4.6641670000
H                 -3.4412280000     -1.0539230000      1.9067870000
H                 -3.7153390000     -0.4183820000      5.5596750000
H                 -4.6132470000      0.5244380000      2.8962250000
H                 -6.8987640000     -0.3394480000      3.2850220000
H                 -6.3989980000     -1.0187640000      4.8487410000
H                 -5.7341620000     -1.6771950000      3.3442920000
H                 -6.1713770000      1.9771960000      4.2021060000
H                 -4.4740890000      2.2425400000      4.6626250000
H                 -5.5417190000      1.2917330000      5.7072770000
C                 -0.4680500000     -3.9585280000      5.4946800000
C                 -1.4111680000     -4.7000930000      6.4731410000
C                  0.4203310000     -5.0142330000      4.8093650000
C                  0.4585340000     -3.0115020000      6.2951760000
H                 -0.6013200000     -4.1551830000      2.7162050000
H                 -2.0450630000     -3.9884680000      7.0017890000
H                 -0.8272170000     -5.2729250000      7.2052340000
H                 -2.0512510000     -5.4011960000      5.9272410000
H                  0.9900090000     -5.5584150000      5.5710010000
H                  1.1348340000     -4.5577970000      4.1182400000
H                 -0.1720780000     -5.7436600000      4.2495450000
H                 -0.1291290000     -2.2572260000      6.8181460000
H                  1.1584610000     -2.5051170000      5.6222480000
H                  1.0442050000     -3.5811830000      7.0282930000
$end
$rem
MAX_SCF_CYCLES=200
BASIS  =  6-311++G(d,p)
GUI  =  2
JOB_TYPE  =  SP
METHOD  =  B3LYP
SOLVENT_METHOD = PCM
$end
$pcm
theory = CPCM
$end
$solvent
dielectric 37.219
opticaldielectric 1.43
$end

--------------------------------------------------------------

             Standard Nuclear Orientation (Angstroms)
    I     Atom           X                Y                Z
 ----------------------------------------------------------------
    1      C      -2.1767190000    -2.1014920000     4.9811520000
    2      C      -1.2991420000    -3.1441910000     4.4844160000
    3      C      -1.2403990000    -3.3830210000     3.1268500000
    4      C      -2.0101080000    -2.6529800000     2.1370340000
    5      C      -2.8681570000    -1.6114520000     2.6407180000
    6      C      -2.9402850000    -1.3321990000     3.9851810000
    7      O      -2.3357830000    -1.8164960000     6.2143430000
    8      O      -1.9220190000    -2.9249490000     0.9044630000
    9      N      -3.6980260000    -0.3121040000     4.5474640000
   10      C      -4.8840240000     0.2420160000     3.9203050000
   11      C      -6.0530540000    -0.7592700000     3.8422310000
   12      C      -5.2919780000     1.5178380000     4.6641670000
   13      H      -3.4412280000    -1.0539230000     1.9067870000
   14      H      -3.7153390000    -0.4183820000     5.5596750000
   15      H      -4.6132470000     0.5244380000     2.8962250000
   16      H      -6.8987640000    -0.3394480000     3.2850220000
   17      H      -6.3989980000    -1.0187640000     4.8487410000
   18      H      -5.7341620000    -1.6771950000     3.3442920000
   19      H      -6.1713770000     1.9771960000     4.2021060000
   20      H      -4.4740890000     2.2425400000     4.6626250000
   21      H      -5.5417190000     1.2917330000     5.7072770000
   22      C      -0.4680500000    -3.9585280000     5.4946800000
   23      C      -1.4111680000    -4.7000930000     6.4731410000
   24      C       0.4203310000    -5.0142330000     4.8093650000
   25      C       0.4585340000    -3.0115020000     6.2951760000
   26      H      -0.6013200000    -4.1551830000     2.7162050000
   27      H      -2.0450630000    -3.9884680000     7.0017890000
   28      H      -0.8272170000    -5.2729250000     7.2052340000
   29      H      -2.0512510000    -5.4011960000     5.9272410000
   30      H       0.9900090000    -5.5584150000     5.5710010000
   31      H       1.1348340000    -4.5577970000     4.1182400000
   32      H      -0.1720780000    -5.7436600000     4.2495450000
   33      H      -0.1291290000    -2.2572260000     6.8181460000
   34      H       1.1584610000    -2.5051170000     5.6222480000
   35      H       1.0442050000    -3.5811830000     7.0282930000
 ----------------------------------------------------------------

    8    -712.3720646463      9.42e-06  Convergence criterion met
 Total energy in the final basis set =     -712.3720646463

                    Orbital Energies (a.u.)
 --------------------------------------------------------------

 Alpha MOs
 -- Occupied --
-19.0738 -19.0659 -14.3083 -10.2142 -10.2119 -10.2006 -10.1991 -10.1775
-10.1647 -10.1538 -10.1507 -10.1487 -10.1459 -10.1424 -10.1424 -10.1397
 -0.9980  -0.9874  -0.9206  -0.8254  -0.7939  -0.7620  -0.7134  -0.6819
 -0.6783  -0.6719  -0.6644  -0.6145  -0.5752  -0.5688  -0.5190  -0.4902
 -0.4835  -0.4579  -0.4489  -0.4395  -0.4366  -0.4284  -0.4199  -0.4132
 -0.4019  -0.4015  -0.3822  -0.3812  -0.3777  -0.3701  -0.3652  -0.3641
 -0.3579  -0.3529  -0.3441  -0.3341  -0.3257  -0.3221  -0.3149  -0.2977
 -0.2621  -0.2397  -0.2311  -0.2054  -0.1506

 Beta MOs
 -- Occupied --
-19.0674 -19.0607 -14.3073 -10.2113 -10.2106 -10.2006 -10.1980 -10.1776
-10.1641 -10.1538 -10.1506 -10.1465 -10.1459 -10.1424 -10.1423 -10.1399
 -0.9869  -0.9781  -0.9178  -0.8222  -0.7916  -0.7601  -0.7116  -0.6817
 -0.6760  -0.6718  -0.6561  -0.6123  -0.5732  -0.5654  -0.5172  -0.4877
 -0.4822  -0.4554  -0.4468  -0.4379  -0.4358  -0.4270  -0.4159  -0.4115
 -0.3964  -0.3931  -0.3816  -0.3808  -0.3702  -0.3661  -0.3643  -0.3563
 -0.3553  -0.3478  -0.3352  -0.3336  -0.3242  -0.3208  -0.3143  -0.2847
 -0.2385  -0.2343  -0.2261  -0.1977

          Ground-State Mulliken Net Atomic Charges

     Atom                 Charge (a.u.)    Spin (a.u.)
  --------------------------------------------------------
      1 C                    -1.477161       0.196445
      2 C                     1.059625       0.010629
      3 C                    -0.603589       0.162930
      4 C                    -0.370527       0.088798
      5 C                     0.669310      -0.001250
      6 C                     0.022803       0.079508
      7 O                    -0.469554       0.246648
      8 O                    -0.560291       0.182389
      9 N                    -0.022125       0.047042
     10 C                    -0.043731      -0.005212
     11 C                    -0.546863       0.005399
     12 C                    -0.551691       0.002356
     13 H                     0.209237      -0.000581
     14 H                     0.308556      -0.002365
     15 H                     0.142461       0.000624
     16 H                     0.147962       0.000476
     17 H                     0.162060       0.000290
     18 H                     0.147667      -0.001307
     19 H                     0.161170      -0.000123
     20 H                     0.157207       0.000620
     21 H                     0.150239      -0.000110
     22 C                     0.610632      -0.015438
     23 C                    -0.693719       0.007696
     24 C                    -0.497987       0.001316
     25 C                    -0.690776       0.006802
     26 H                     0.191521      -0.012313
     27 H                     0.180053      -0.000926
     28 H                     0.149658       0.000219
     29 H                     0.138570       0.000824
     30 H                     0.176415       0.000142
     31 H                     0.137805      -0.000611
     32 H                     0.137633      -0.000604
     33 H                     0.177876      -0.001207
     34 H                     0.138651       0.000719
     35 H                     0.150904       0.000176
  --------------------------------------------------------
  Sum of atomic charges =    -1.000000

                    Cartesian Multipole Moments
 -----------------------------------------------------------------
    Charge (ESU x 10^10)
                -4.8032
    Dipole Moment (Debye)
         X       8.3977      Y      12.4186      Z     -14.9527
       Tot      21.1737
    Quadrupole Moments (Debye-Ang)
        XX    -112.6295     XY     -27.6229     YY    -135.5913
        XZ      27.0941     YZ      31.3241     ZZ    -186.9660

 Total job time:  66.27s(wall), 486.04s(cpu)
        *  Thank you very much for using Q-Chem.  Have a nice day.  *
