 Gaussian 16, Revision A.03,
 Gaussian 16:  ES64L-G16RevA.03 25-Dec-2016

 --------------------------------------
 #P UB3LYP/6-311++G(d,p) nosym opt freq
 --------------------------------------

 -------
 Reduced
 -------
 Symbolic Z-matrix:
 Charge = -2 Multiplicity = 1

 SCF Done:  E(UB3LYP) =  -1239.98737491     A.U. after   27 cycles
 Optimization completed.
    -- Stationary point found.
 Normal termination of Gaussian 16 at Wed Jan 10 05:01:38 2024.

 ----------------------------------------------------------------------
 #P Geom=AllCheck Guess=TCheck SCRF=Check GenChk UB3LYP/6-311++G(d,p) F
 req
 ----------------------------------------------------------------------

 Structure from the checkpoint file:  "070-an.chk"
 -------
 Reduced
 -------
 Charge = -2 Multiplicity = 1

                          Input orientation:
 ---------------------------------------------------------------------
 Center     Atomic      Atomic             Coordinates (Angstroms)
 Number     Number       Type             X           Y           Z
 ---------------------------------------------------------------------
      1          6           0        1.090559    1.741631   -0.681345
      2          6           0       -0.110361    1.261934   -0.022748
      3          6           0       -0.402538   -0.090574    0.121940
      4          6           0        0.467160   -1.153354   -0.371713
      5          6           0        1.635197   -0.694162   -1.022982
      6          6           0        1.922071    0.682098   -1.181989
      7          8           0        1.369543    2.994625   -0.769605
      8          8           0        0.165964   -2.404816   -0.224227
      9         16           0        3.421786    1.114745   -2.013399
     10          6           0        4.450935    1.991283   -0.797413
     11          6           0        4.200119    3.334474   -0.484466
     12          6           0        5.492400    1.297913   -0.173298
     13          6           0        6.297222    1.948091    0.759443
     14          6           0        5.009836    3.971398    0.454984
     15          6           0        6.061417    3.291624    1.076696
     16          8           0        3.228308    2.054339   -3.142186
     17          8           0        4.185789   -0.126264   -2.319108
     18          1           0        3.348990    3.819481   -0.944544
     19          1           0        5.656596    0.260502   -0.439115
     20          1           0        4.813262    5.009819    0.708415
     21          1           0        2.318141   -1.428333   -1.432251
     22          1           0        7.109742    1.408565    1.238984
     23          6           0       -1.666297   -0.531808    0.823048
     24          6           0       -1.040272    2.320450    0.525473
     25          1           0        6.686656    3.799159    1.806593
     26          1           0       -1.706902   -0.182649    1.865997
     27          1           0       -1.692807   -1.624255    0.811632
     28          1           0       -2.570866   -0.144036    0.330640
     29          1           0       -0.628728    3.302749    0.283437
     30          1           0       -1.155321    2.249107    1.618226
     31          1           0       -2.052852    2.243953    0.101642
 ---------------------------------------------------------------------

 SCF Done:  E(UB3LYP) =  -1239.98737491     A.U. after    2 cycles

 Alpha  occ. eigenvalues --  -88.79390 -18.85891 -18.85793 -18.79006 -18.76693
 Alpha  occ. eigenvalues --   -9.98488  -9.98342  -9.98142  -9.98019  -9.97646
 Alpha  occ. eigenvalues --   -9.96524  -9.95291  -9.93193  -9.92596  -9.92329
 Alpha  occ. eigenvalues --   -9.92270  -9.90864  -9.90645  -9.88600  -7.85699
 Alpha  occ. eigenvalues --   -5.82007  -5.81908  -5.81749  -0.84637  -0.74067
 Alpha  occ. eigenvalues --   -0.70856  -0.68093  -0.65817  -0.56609  -0.55791
 Alpha  occ. eigenvalues --   -0.54930  -0.52477  -0.48049  -0.45603  -0.41409
 Alpha  occ. eigenvalues --   -0.40749  -0.40447  -0.36840  -0.32746  -0.30219
 Alpha  occ. eigenvalues --   -0.29470  -0.25670  -0.25499  -0.24305  -0.23061
 Alpha  occ. eigenvalues --   -0.22496  -0.21964  -0.19772  -0.19330  -0.18214
 Alpha  occ. eigenvalues --   -0.17117  -0.16883  -0.16207  -0.15006  -0.14751
 Alpha  occ. eigenvalues --   -0.14626  -0.13727  -0.11575  -0.11338  -0.09775
 Alpha  occ. eigenvalues --   -0.08400  -0.07824  -0.07042  -0.06825  -0.06263
 Alpha  occ. eigenvalues --   -0.05388  -0.04801  -0.04082   0.00956   0.02321
 Alpha  occ. eigenvalues --    0.03297   0.05398   0.11815
 Alpha virt. eigenvalues --    0.13748   0.15757   0.16707   0.17200   0.17459
 Alpha virt. eigenvalues --    0.18504   0.18717   0.19905   0.20436   0.21316
 Alpha virt. eigenvalues --    0.21543   0.22363   0.22695   0.23035   0.23893

  Beta  occ. eigenvalues --  -88.79390 -18.85891 -18.85793 -18.79006 -18.76693
  Beta  occ. eigenvalues --   -9.98488  -9.98342  -9.98142  -9.98019  -9.97646
  Beta  occ. eigenvalues --   -9.96524  -9.95291  -9.93193  -9.92596  -9.92329
  Beta  occ. eigenvalues --   -9.92270  -9.90864  -9.90645  -9.88600  -7.85699
  Beta  occ. eigenvalues --   -5.82007  -5.81908  -5.81749  -0.84637  -0.74067
  Beta  occ. eigenvalues --   -0.70856  -0.68093  -0.65817  -0.56609  -0.55791
  Beta  occ. eigenvalues --   -0.54930  -0.52477  -0.48049  -0.45603  -0.41409
  Beta  occ. eigenvalues --   -0.40749  -0.40447  -0.36840  -0.32746  -0.30219
  Beta  occ. eigenvalues --   -0.29470  -0.25670  -0.25499  -0.24305  -0.23061
  Beta  occ. eigenvalues --   -0.22496  -0.21964  -0.19772  -0.19330  -0.18214
  Beta  occ. eigenvalues --   -0.17117  -0.16883  -0.16207  -0.15006  -0.14751
  Beta  occ. eigenvalues --   -0.14626  -0.13727  -0.11575  -0.11338  -0.09775
  Beta  occ. eigenvalues --   -0.08400  -0.07824  -0.07042  -0.06825  -0.06263
  Beta  occ. eigenvalues --   -0.05388  -0.04801  -0.04082   0.00956   0.02321
  Beta  occ. eigenvalues --    0.03297   0.05398   0.11815
  Beta virt. eigenvalues --    0.13748   0.15757   0.16707   0.17200   0.17459
  Beta virt. eigenvalues --    0.18504   0.18717   0.19905   0.20436   0.21316
  Beta virt. eigenvalues --    0.21543   0.22363   0.22695   0.23035   0.23893

 Mulliken charges and spin densities:
               1          2
     1  C   -1.039573  -0.000000
     2  C    0.316411   0.000000
     3  C    1.095123  -0.000000
     4  C   -1.438346  -0.000000
     5  C    0.554429   0.000000
     6  C    0.142237  -0.000000
     7  O   -0.440091   0.000000
     8  O   -0.552140   0.000000
     9  S    0.048439   0.000000
    10  C    0.207729   0.000000
    11  C   -0.246873   0.000000
    12  C    0.082847  -0.000000
    13  C   -0.430573  -0.000000
    14  C   -0.366857   0.000000
    15  C   -0.294154   0.000000
    16  O   -0.143427   0.000000
    17  O   -0.249266   0.000000
    18  H    0.307182   0.000000
    19  H    0.223629  -0.000000
    20  H    0.127583  -0.000000
    21  H    0.204304   0.000000
    22  H    0.117953   0.000000
    23  C   -0.477829   0.000000
    24  C   -0.557628   0.000000
    25  H    0.092785  -0.000000
    26  H    0.087825  -0.000000
    27  H    0.188057   0.000000
    28  H    0.087979  -0.000000
    29  H    0.184089   0.000000
    30  H    0.083094  -0.000000
    31  H    0.085063  -0.000000
 Sum of Mulliken charges =  -2.00000  -0.00000

 Dipole moment (field-independent basis, Debye):
    X=            -16.8980    Y=             -4.6281    Z=              9.4263  Tot=             19.8951
 Quadrupole moment (field-independent basis, Debye-Ang):
   XX=           -204.3665   YY=           -185.2584   ZZ=           -158.2176
   XY=            -29.2416   XZ=             32.5440   YZ=             11.1652

  Exact polarizability: 427.606  94.706 287.362   1.830  21.348 186.276
 Approx polarizability: 678.367 135.383 501.454  11.194  31.308 297.428

                      1                      2                      3
                      A                      A                      A
 Frequencies --     29.6726                37.9022                64.8568
 Red. masses --      4.7300                 5.2242                 1.3115
 Frc consts  --      0.0025                 0.0044                 0.0033
 IR Inten    --      1.7375                 1.7585                 1.2868

                      4                      5                      6
                      A                      A                      A
 Frequencies --     69.7033               102.5364               125.9501
 Red. masses --      2.9994                 4.2090                 1.0919
 Frc consts  --      0.0086                 0.0261                 0.0102
 IR Inten    --      1.3337                 2.1671                 1.1617

                      7                      8                      9
                      A                      A                      A
 Frequencies --    141.4865               155.1019               165.4467
 Red. masses --      3.0513                 7.8546                 6.7882
 Frc consts  --      0.0360                 0.1113                 0.1095
 IR Inten    --      0.3605                 0.8284                 5.3264

                     10                     11                     12
                      A                      A                      A
 Frequencies --    177.6410               215.6369               250.0959
 Red. masses --      6.4229                 4.8592                 5.7068
 Frc consts  --      0.1194                 0.1331                 0.2103
 IR Inten    --      1.3165                 3.0758                 0.4224

                     13                     14                     15
                      A                      A                      A
 Frequencies --    275.3350               285.2733               300.6060
 Red. masses --      7.4544                 6.5186                 7.7956
 Frc consts  --      0.3330                 0.3126                 0.4150
 IR Inten    --      1.1966                 0.9304                 1.2637

                     16                     17                     18
                      A                      A                      A
 Frequencies --    317.9605               336.5753               375.6798
 Red. masses --      2.7047                 3.8193                 8.3050
 Frc consts  --      0.1611                 0.2549                 0.6906
 IR Inten    --      2.6520                 2.5052                 4.2144

                     19                     20                     21
                      A                      A                      A
 Frequencies --    389.1336               411.4569               420.1718
 Red. masses --      7.9813                 7.7725                 3.0456
 Frc consts  --      0.7121                 0.7753                 0.3168
 IR Inten    --      8.0653                 0.9049                 0.4106

                     22                     23                     24
                      A                      A                      A
 Frequencies --    446.9924               477.4239               482.3183
 Red. masses --      5.0232                 7.4351                 5.1826
 Frc consts  --      0.5913                 0.9985                 0.7103
 IR Inten    --     21.4360                35.4359                13.3815

                     25                     26                     27
                      A                      A                      A
 Frequencies --    502.4453               544.2139               580.0546
 Red. masses --      5.0807                 9.0829                 8.5181
 Frc consts  --      0.7557                 1.5849                 1.6886
 IR Inten    --     10.1652                44.7307                53.8021

                     28                     29                     30
                      A                      A                      A
 Frequencies --    627.3407               659.5317               670.6993
 Red. masses --      6.3979                 4.1372                 2.9327
 Frc consts  --      1.4835                 1.0603                 0.7773
 IR Inten    --      0.3025                 7.0409                 6.4862

                     31                     32                     33
                      A                      A                      A
 Frequencies --    682.8800               688.5656               699.6856
 Red. masses --      1.7497                 4.5276                 6.7435
 Frc consts  --      0.4807                 1.2648                 1.9451
 IR Inten    --     28.4603                54.8211                 3.0826

                     34                     35                     36
                      A                      A                      A
 Frequencies --    734.2827               747.3747               815.2597
 Red. masses --      2.1932                 5.2351                 1.6846
 Frc consts  --      0.6967                 1.7229                 0.6597
 IR Inten    --      9.2767                 5.4955                24.9284

                     37                     38                     39
                      A                      A                      A
 Frequencies --    820.9768               826.2887               874.5029
 Red. masses --      3.0127                 1.7406                 1.4121
 Frc consts  --      1.1964                 0.7002                 0.6362
 IR Inten    --     24.0076                27.4787                 2.3034

                     40                     41                     42
                      A                      A                      A
 Frequencies --    882.5602               947.9777               963.2489
 Red. masses --      2.4533                 1.3187                 1.3309
 Frc consts  --      1.1259                 0.6982                 0.7276
 IR Inten    --      5.9378                 3.0759                 0.0652

                     43                     44                     45
                      A                      A                      A
 Frequencies --    966.9653              1003.7760              1023.2211
 Red. masses --      1.6119                 5.9417                 1.4150
 Frc consts  --      0.8880                 3.5272                 0.8728
 IR Inten    --      2.5032               139.1120                 1.8334

                     46                     47                     48
                      A                      A                      A
 Frequencies --   1025.8058              1039.9271              1048.2201
 Red. masses --      8.1641                 2.6419                 1.5085
 Frc consts  --      5.0616                 1.6834                 0.9766
 IR Inten    --    170.1833                50.2891                 0.5500

                     49                     50                     51
                      A                      A                      A
 Frequencies --   1077.1489              1082.5514              1087.1135
 Red. masses --      3.2926                 3.7154                 1.6947
 Frc consts  --      2.2508                 2.5654                 1.1801
 IR Inten    --     49.8539               270.6752                 9.6063

                     52                     53                     54
                      A                      A                      A
 Frequencies --   1099.6039              1157.3167              1163.2233
 Red. masses --      2.5887                 2.3174                 1.1143
 Frc consts  --      1.8442                 1.8287                 0.8883
 IR Inten    --     46.5568                16.7437                 5.5571

                     55                     56                     57
                      A                      A                      A
 Frequencies --   1181.2679              1187.4415              1205.5957
 Red. masses --      3.2441                 1.6650                 5.8765
 Frc consts  --      2.6671                 1.3832                 5.0324
 IR Inten    --    109.0008                49.4027               129.3734

                     58                     59                     60
                      A                      A                      A
 Frequencies --   1279.0167              1324.6852              1337.3824
 Red. masses --      2.8493                 1.9901                 3.4069
 Frc consts  --      2.7463                 2.0576                 3.5902
 IR Inten    --     69.6363                44.2897               168.3637

                     61                     62                     63
                      A                      A                      A
 Frequencies --   1345.3364              1351.3227              1368.0035
 Red. masses --      2.3663                 1.4429                 1.6256
 Frc consts  --      2.5234                 1.5524                 1.7924
 IR Inten    --     12.7193                13.4084                32.4672

                     64                     65                     66
                      A                      A                      A
 Frequencies --   1411.8629              1448.6435              1458.2853
 Red. masses --      4.6237                 3.1692                 2.1186
 Frc consts  --      5.4303                 3.9185                 2.6545
 IR Inten    --    324.0237                27.7187               103.9894

                     67                     68                     69
                      A                      A                      A
 Frequencies --   1461.0167              1475.9962              1486.8636
 Red. masses --      2.0580                 1.1756                 2.0041
 Frc consts  --      2.5882                 1.5089                 2.6104
 IR Inten    --    307.3395                30.3879                82.0718

                     70                     71                     72
                      A                      A                      A
 Frequencies --   1488.0092              1494.1697              1503.2298
 Red. masses --      1.0805                 1.9686                 1.0520
 Frc consts  --      1.4096                 2.5894                 1.4005
 IR Inten    --      3.0010                13.1686                 5.7089

                     73                     74                     75
                      A                      A                      A
 Frequencies --   1576.6116              1585.1059              1608.8773
 Red. masses --      6.2118                 5.3746                 6.0104
 Frc consts  --      9.0974                 7.9563                 9.1664
 IR Inten    --    609.1155               142.5622                18.6318

                     76                     77                     78
                      A                      A                      A
 Frequencies --   2947.0551              2952.5262              2967.5186
 Red. masses --      1.0435                 1.0411                 1.0953
 Frc consts  --      5.3396                 5.3472                 5.6831
 IR Inten    --     56.5117               461.3134                75.4400

                     79                     80                     81
                      A                      A                      A
 Frequencies --   2973.7039              3075.8406              3083.0035
 Red. masses --      1.0978                 1.0935                 1.0918
 Frc consts  --      5.7199                 6.0953                 6.1141
 IR Inten    --    127.8534                11.2291                11.8018

                     82                     83                     84
                      A                      A                      A
 Frequencies --   3117.8785              3133.9267              3149.7556
 Red. masses --      1.0829                 1.0889                 1.0951
 Frc consts  --      6.2022                 6.3008                 6.4012
 IR Inten    --      2.8168                61.9719                94.6473

                     85                     86                     87
                      A                      A                      A
 Frequencies --   3184.6259              3189.3055              3202.4167
 Red. masses --      1.0875                 1.0914                 1.0926
 Frc consts  --      6.4983                 6.5407                 6.6017
 IR Inten    --     16.6371                 8.3788                 3.4036

 - Thermochemistry -
 -------------------
 Temperature   298.150 Kelvin.  Pressure   1.00000 Atm.
 Atom     1 has atomic number  6 and mass  12.00000

 Molecular mass:   276.04563 amu.
 Principal axes and moments of inertia in atomic units:
                           1         2         3
     Eigenvalues --  3076.795777634.469768523.80632
           X            0.89712  -0.35501   0.26295
           Y            0.43810   0.79153  -0.42608
           Z           -0.05687   0.49744   0.86563
 This molecule is an asymmetric top.
 Rotational symmetry number  1.
 Warning -- assumption of classical behavior for rotation
           may cause significant error
 Rotational temperatures (Kelvin)      0.02815     0.01135     0.01016
 Rotational constants (GHZ):           0.58657     0.23639     0.21173
 Zero-point vibrational energy     590082.0 (Joules/Mol)
                                  141.03297 (Kcal/Mol)
 Warning -- explicit consideration of  27 degrees of freedom as
           vibrations may cause significant error
 Vibrational temperatures:     42.69    54.53    93.31   100.29   147.53
          (Kelvin)            181.21   203.57   223.16   238.04   255.59
                              310.25   359.83   396.15   410.44   432.50
                              457.47   484.26   540.52   559.88   591.99
                              604.53   643.12   686.91   693.95   722.91
                              783.00   834.57   902.60   948.92   964.99
                              982.51   990.69  1006.69  1056.47  1075.31
                             1172.98  1181.20  1188.85  1258.21  1269.81
                             1363.93  1385.90  1391.25  1444.21  1472.19
                             1475.91  1496.22  1508.15  1549.78  1557.55
                             1564.11  1582.08  1665.12  1673.62  1699.58
                             1708.46  1734.58  1840.22  1905.93  1924.20
                             1935.64  1944.25  1968.25  2031.36  2084.27
                             2098.15  2102.08  2123.63  2139.27  2140.91
                             2149.78  2162.81  2268.39  2280.61  2314.82
                             4240.15  4248.03  4269.60  4278.50  4425.45
                             4435.75  4485.93  4509.02  4531.80  4581.97
                             4588.70  4607.56

 Zero-point correction=                           0.224750 (Hartree/Particle)
 Thermal correction to Energy=                    0.242415
 Thermal correction to Enthalpy=                  0.243359
 Thermal correction to Gibbs Free Energy=         0.178618
 Sum of electronic and zero-point Energies=          -1239.762625
 Sum of electronic and thermal Energies=             -1239.744960
 Sum of electronic and thermal Enthalpies=           -1239.744016
 Sum of electronic and thermal Free Energies=        -1239.808757

                     E (Thermal)             CV                S
                      KCal/Mol        Cal/Mol-Kelvin    Cal/Mol-Kelvin
 Total                  152.118             67.251            136.261
 Electronic               0.000              0.000              0.000
 Translational            0.889              2.981             42.745
 Rotational               0.889              2.981             33.659
 Vibrational            150.340             61.289             59.857
 Vibration     1          0.593              1.984              5.851
 Vibration     2          0.594              1.982              5.366
 Vibration     3          0.597              1.971              4.304
 Vibration     4          0.598              1.969              4.162
 Vibration     5          0.605              1.947              3.406
 Vibration     6          0.611              1.927              3.007
 Vibration     7          0.615              1.912              2.784
 Vibration     8          0.620              1.897              2.609
 Vibration     9          0.624              1.885              2.487
 Vibration    10          0.628              1.870              2.353
 Vibration    11          0.645              1.817              1.995
 Vibration    12          0.663              1.763              1.730
 Vibration    13          0.677              1.719              1.562
 Vibration    14          0.683              1.701              1.502
 Vibration    15          0.693              1.673              1.414
 Vibration    16          0.704              1.639              1.321
 Vibration    17          0.717              1.602              1.228
 Vibration    18          0.747              1.522              1.057
 Vibration    19          0.757              1.493              1.003
 Vibration    20          0.775              1.445              0.921
 Vibration    21          0.783              1.426              0.891
 Vibration    22          0.806              1.368              0.805
 Vibration    23          0.834              1.300              0.717
 Vibration    24          0.839              1.289              0.704
 Vibration    25          0.858              1.245              0.652
 Vibration    26          0.899              1.152              0.556
 Vibration    27          0.937              1.074              0.485

 Optimization completed.
    -- Stationary point found.
 Normal termination of Gaussian 16 at Wed Jan 10 07:03:30 2024.
