 Gaussian 16, Revision A.03,
 Gaussian 16:  ES64L-G16RevA.03 25-Dec-2016

 ----------------------------------------------------------------
 #P UB3LYP/6-311++G(d,p) SCRF=(PCM,Solvent=n,n-DiMethylFormamide)
 ----------------------------------------------------------------

 -------
 Reduced
 -------
 Symbolic Z-matrix:
 Charge = -2 Multiplicity = 1

                         Standard orientation:
 ---------------------------------------------------------------------
 Center     Atomic      Atomic             Coordinates (Angstroms)
 Number     Number       Type             X           Y           Z
 ---------------------------------------------------------------------
      1          6           0        0.957128    0.842322    0.644569
      2          6           0        2.283923    1.190946    0.171129
      3          6           0        3.129374    0.274995   -0.446793
      4          6           0        2.764973   -1.118952   -0.678510
      5          6           0        1.477013   -1.469137   -0.211767
      6          6           0        0.625469   -0.539196    0.429913
      7          8           0        0.169014    1.710176    1.174967
      8          8           0        3.575930   -1.949216   -1.254391
      9         16           0       -0.961460   -1.112633    0.959439
     10          6           0       -2.193078   -0.175225    0.005254
     11          6           0       -2.517350    1.142590    0.356276
     12          6           0       -2.804846   -0.790435   -1.091189
     13          6           0       -3.754099   -0.094535   -1.836252
     14          6           0       -3.465026    1.829393   -0.401412
     15          6           0       -4.091838    1.220449   -1.492621
     16          8           0       -1.249658   -0.837122    2.386137
     17          8           0       -1.143977   -2.522275    0.515750
     18          1           0       -1.979920    1.603944    1.174594
     19          1           0       -2.529098   -1.809714   -1.333826
     20          1           0       -3.712647    2.854683   -0.139399
     21          1           0        1.147085   -2.493536   -0.332908
     22          1           0       -4.232409   -0.576933   -2.684632
     23          6           0        4.499130    0.696846   -0.925476
     24          6           0        2.707707    2.628709    0.368565
     25          1           0       -4.830007    1.765584   -2.075030
     26          1           0        4.448013    1.496516   -1.679942
     27          1           0        4.985250   -0.177540   -1.365260
     28          1           0        5.124200    1.082875   -0.106119
     29          1           0        1.905578    3.158701    0.886792
     30          1           0        2.904901    3.140270   -0.586346
     31          1           0        3.631057    2.712149    0.961241
 ---------------------------------------------------------------------

 SCF Done:  E(UB3LYP) =  -1240.25015521     A.U. after   20 cycles

 The electronic state is 1-A.
 Alpha  occ. eigenvalues --  -89.02880 -19.09749 -19.09576 -19.02584 -19.01433
 Alpha  occ. eigenvalues --  -10.19705 -10.18859 -10.18159 -10.18015 -10.17880
 Alpha  occ. eigenvalues --  -10.17723 -10.17508 -10.17241 -10.15847 -10.14054
 Alpha  occ. eigenvalues --  -10.13903 -10.13788 -10.13778 -10.12699  -8.09239
 Alpha  occ. eigenvalues --   -6.05558  -6.05425  -6.05287  -1.08472  -0.97979
 Alpha  occ. eigenvalues --   -0.94650  -0.92893  -0.86230  -0.79956  -0.77075
 Alpha  occ. eigenvalues --   -0.75179  -0.74994  -0.70159  -0.68280  -0.63944
 Alpha  occ. eigenvalues --   -0.62769  -0.60969  -0.58567  -0.54106  -0.53244
 Alpha  occ. eigenvalues --   -0.51521  -0.47361  -0.46726  -0.46163  -0.45406
 Alpha  occ. eigenvalues --   -0.44349  -0.43284  -0.42634  -0.41383  -0.41075
 Alpha  occ. eigenvalues --   -0.38065  -0.37650  -0.37536  -0.37314  -0.36814
 Alpha  occ. eigenvalues --   -0.36480  -0.36008  -0.34894  -0.34471  -0.33046
 Alpha  occ. eigenvalues --   -0.31934  -0.31392  -0.31344  -0.30559  -0.28918
 Alpha  occ. eigenvalues --   -0.28121  -0.26396  -0.25910  -0.23383  -0.21018
 Alpha  occ. eigenvalues --   -0.20483  -0.19405  -0.12576
 Alpha virt. eigenvalues --   -0.03284  -0.01531  -0.00201   0.00444   0.00760
 Alpha virt. eigenvalues --    0.01393   0.02034   0.02550   0.03310   0.03584
 Alpha virt. eigenvalues --    0.03896   0.04181   0.04598   0.05258   0.05928

  Beta  occ. eigenvalues --  -89.02880 -19.09749 -19.09576 -19.02584 -19.01433
  Beta  occ. eigenvalues --  -10.19705 -10.18859 -10.18159 -10.18015 -10.17880
  Beta  occ. eigenvalues --  -10.17723 -10.17508 -10.17241 -10.15847 -10.14054
  Beta  occ. eigenvalues --  -10.13903 -10.13788 -10.13778 -10.12699  -8.09239
  Beta  occ. eigenvalues --   -6.05558  -6.05425  -6.05287  -1.08472  -0.97979
  Beta  occ. eigenvalues --   -0.94650  -0.92893  -0.86230  -0.79956  -0.77075
  Beta  occ. eigenvalues --   -0.75179  -0.74994  -0.70159  -0.68280  -0.63944
  Beta  occ. eigenvalues --   -0.62769  -0.60969  -0.58567  -0.54106  -0.53244
  Beta  occ. eigenvalues --   -0.51521  -0.47361  -0.46726  -0.46163  -0.45406
  Beta  occ. eigenvalues --   -0.44349  -0.43284  -0.42634  -0.41383  -0.41075
  Beta  occ. eigenvalues --   -0.38065  -0.37650  -0.37536  -0.37314  -0.36814
  Beta  occ. eigenvalues --   -0.36480  -0.36008  -0.34894  -0.34471  -0.33046
  Beta  occ. eigenvalues --   -0.31934  -0.31392  -0.31344  -0.30559  -0.28918
  Beta  occ. eigenvalues --   -0.28121  -0.26396  -0.25910  -0.23383  -0.21018
  Beta  occ. eigenvalues --   -0.20483  -0.19405  -0.12576
  Beta virt. eigenvalues --   -0.03284  -0.01531  -0.00201   0.00444   0.00760
  Beta virt. eigenvalues --    0.01393   0.02034   0.02550   0.03310   0.03584
  Beta virt. eigenvalues --    0.03896   0.04181   0.04598   0.05258   0.05928

 Mulliken charges and spin densities:
               1          2
     1  C   -0.870831  -0.000000
     2  C    0.135279  -0.000000
     3  C    0.888000   0.000000
     4  C   -1.042178  -0.000000
     5  C    0.393814   0.000000
     6  C   -0.131048   0.000000
     7  O   -0.559626   0.000000
     8  O   -0.701138   0.000000
     9  S    0.208139  -0.000000
    10  C    0.104615  -0.000000
    11  C   -0.276470   0.000000
    12  C    0.212974   0.000000
    13  C   -0.439472   0.000000
    14  C   -0.381238   0.000000
    15  C   -0.336542  -0.000000
    16  O   -0.230578   0.000000
    17  O   -0.302139   0.000000
    18  H    0.287190   0.000000
    19  H    0.241123   0.000000
    20  H    0.201793   0.000000
    21  H    0.203772   0.000000
    22  H    0.200718   0.000000
    23  C   -0.430910   0.000000
    24  C   -0.457599   0.000000
    25  H    0.182197  -0.000000
    26  H    0.138274   0.000000
    27  H    0.175885  -0.000000
    28  H    0.139020   0.000000
    29  H    0.177133   0.000000
    30  H    0.135390   0.000000
    31  H    0.134453  -0.000000
 Sum of Mulliken charges =  -2.00000   0.00000

 Dipole moment (field-independent basis, Debye):
    X=            -12.0516    Y=              8.4538    Z=             -4.3396  Tot=             15.3473
 Quadrupole moment (field-independent basis, Debye-Ang):
   XX=           -177.5783   YY=           -161.6658   ZZ=           -148.1111
   XY=             16.1615   XZ=             27.4271   YZ=             -8.1919

 Normal termination of Gaussian 16 at Wed Jan 24 22:58:20 2024.
