 Q-Chem 5.4, Q-Chem, Inc., Pleasanton, CA (2021)
 Q-Chem 5.4.0 for Intel X86 EM64T Linux

User input:
--------------------------------------------------------------
$molecule
-2 1
C                 -1.2202220000      1.9887820000     -0.4394690000
C                 -2.4643770000      1.2617270000     -0.4350260000
C                 -2.6687270000     -0.0575580000     -0.0144880000
C                 -1.5606300000     -0.8476530000      0.4840380000
C                 -0.3133040000     -0.1544020000      0.4992370000
C                 -0.1764500000      1.1605100000      0.0632520000
Br                 1.6379230000      1.9547500000      0.1511580000
C                 -4.0695280000     -0.7030400000     -0.0579100000
C                 -5.1642390000      0.2370260000     -0.5985900000
C                 -4.4792790000     -1.1388370000      1.3705710000
C                 -4.0295670000     -1.9533540000     -0.9726250000
O                 -1.1149380000      3.2071010000     -0.8431360000
O                 -1.6660690000     -2.0835280000      0.8911400000
H                 -3.2968610000      1.8510450000     -0.8085310000
H                  0.5486450000     -0.7025300000      0.8641480000
H                 -5.2694140000      1.1341670000      0.0194900000
H                 -6.1298100000     -0.2876200000     -0.6039900000
H                 -4.9494470000      0.5609460000     -1.6222320000
H                 -4.5836970000     -0.2587020000      2.0164490000
H                 -3.6995340000     -1.7884250000      1.7763880000
H                 -5.4412840000     -1.6743630000      1.3603980000
H                 -3.8002040000     -1.6573370000     -2.0028330000
H                 -5.0028430000     -2.4719420000     -0.9738620000
H                 -3.2493850000     -2.6284100000     -0.6140660000
$end

$rem
BASIS  =  6-311++G(d,p)
GUI  =  2
JOB_TYPE  =  SP
METHOD  =  B3LYP
SCF_CONVERGENCE  = 8
SOLVENT_METHOD = sm12
$end

$smx
solvent dimethylformamide
charges CM5
$end

--------------------------------------------------------------

             Standard Nuclear Orientation (Angstroms)
    I     Atom           X                Y                Z
 ----------------------------------------------------------------
    1      C      -1.2202220000     1.9887820000    -0.4394690000
    2      C      -2.4643770000     1.2617270000    -0.4350260000
    3      C      -2.6687270000    -0.0575580000    -0.0144880000
    4      C      -1.5606300000    -0.8476530000     0.4840380000
    5      C      -0.3133040000    -0.1544020000     0.4992370000
    6      C      -0.1764500000     1.1605100000     0.0632520000
    7      Br      1.6379230000     1.9547500000     0.1511580000
    8      C      -4.0695280000    -0.7030400000    -0.0579100000
    9      C      -5.1642390000     0.2370260000    -0.5985900000
   10      C      -4.4792790000    -1.1388370000     1.3705710000
   11      C      -4.0295670000    -1.9533540000    -0.9726250000
   12      O      -1.1149380000     3.2071010000    -0.8431360000
   13      O      -1.6660690000    -2.0835280000     0.8911400000
   14      H      -3.2968610000     1.8510450000    -0.8085310000
   15      H       0.5486450000    -0.7025300000     0.8641480000
   16      H      -5.2694140000     1.1341670000     0.0194900000
   17      H      -6.1298100000    -0.2876200000    -0.6039900000
   18      H      -4.9494470000     0.5609460000    -1.6222320000
   19      H      -4.5836970000    -0.2587020000     2.0164490000
   20      H      -3.6995340000    -1.7884250000     1.7763880000
   21      H      -5.4412840000    -1.6743630000     1.3603980000
   22      H      -3.8002040000    -1.6573370000    -2.0028330000
   23      H      -5.0028430000    -2.4719420000    -0.9738620000
   24      H      -3.2493850000    -2.6284100000    -0.6140660000
 ----------------------------------------------------------------

   17   -3112.3898715517      9.72e-09  Convergence criterion met
 Total energy in the final basis set =    -3112.6675351660

                    Orbital Energies (a.u.)
 --------------------------------------------------------------

 Alpha MOs
 -- Occupied --
******** -62.4527 -56.2729 -56.2697 -56.2695 -19.0161 -19.0160 -10.1899
-10.1838 -10.1817 -10.1796 -10.1697 -10.1613 -10.1610 -10.1472 -10.1394
-10.1386  -8.6608  -6.4908  -6.4801  -6.4795  -2.6019  -2.5989  -2.5984
 -2.5899  -2.5899  -0.9325  -0.9273  -0.8253  -0.8000  -0.7542  -0.6964
 -0.6911  -0.6886  -0.6562  -0.5826  -0.5572  -0.5114  -0.4632  -0.4571
 -0.4428  -0.4273  -0.4172  -0.4124  -0.4022  -0.3824  -0.3741  -0.3625
 -0.3576  -0.3470  -0.3377  -0.3351  -0.3262  -0.3165  -0.3098  -0.2825
 -0.2615  -0.2263  -0.2170  -0.1944  -0.1932  -0.1235

          Ground-State Mulliken Net Atomic Charges

     Atom                 Charge (a.u.)
  ----------------------------------------
      1 C                    -1.913021
      2 C                    -1.384299
      3 C                    -0.607505
      4 C                    -1.545723
      5 C                    -1.185553
      6 C                     1.974588
      7 Br                    0.363941
      8 C                     1.495027
      9 C                     0.688082
     10 C                    -0.305231
     11 C                    -0.300551
     12 O                    -0.370158
     13 O                    -0.346118
     14 H                    -0.144524
     15 H                    -0.015543
     16 H                     0.113945
     17 H                     0.464499
     18 H                     0.116438
     19 H                     0.045749
     20 H                     0.071353
     21 H                     0.331784
     22 H                     0.048803
     23 H                     0.334876
     24 H                     0.069143
  ----------------------------------------
  Sum of atomic charges =    -2.000000

                    Cartesian Multipole Moments
 -----------------------------------------------------------------
    Charge (ESU x 10^10)
                -9.6064
    Dipole Moment (Debye)
         X      11.7733      Y      -6.1513      Z      -0.3144
       Tot      13.2872
    Quadrupole Moments (Debye-Ang)
        XX    -143.2470     XY      -5.7061     YY    -160.1416
        XZ       0.2306     YZ      15.0217     ZZ    -110.3416

 Total job time:  454.93s(wall), 3552.65s(cpu)
        *  Thank you very much for using Q-Chem.  Have a nice day.  *
