 Gaussian 16, Revision A.03,
 Gaussian 16:  ES64L-G16RevA.03 25-Dec-2016

 ------------------------------------
 #P UB3LYP/gen nosym opt freq SCF=YQC
 ------------------------------------

 -------
 Reduced
 -------
 Symbolic Z-matrix:
 Charge = -2 Multiplicity = 1

 SCF Done:  E(UB3LYP) =  -3109.66153097     a.u. after    9 cycles
 SCF Done:  E(UB3LYP) =  -3109.66164057     A.U. after   33 cycles
 SCF Done:  E(UB3LYP) =  -3109.66170953     a.u. after   10 cycles
 SCF Done:  E(UB3LYP) =  -3109.66171516     a.u. after    2 cycles
 SCF Done:  E(UB3LYP) =  -3109.66172478     A.U. after   24 cycles
 SCF Done:  E(UB3LYP) =  -3109.66168073     a.u. after    7 cycles
 SCF Done:  E(UB3LYP) =  -3109.66171706     A.U. after   27 cycles
 SCF Done:  E(UB3LYP) =  -3109.66160080     a.u. after    7 cycles
 SCF Done:  E(UB3LYP) =  -3109.66169982     A.U. after   25 cycles
 SCF Done:  E(UB3LYP) =  -3109.66168574     a.u. after    5 cycles
 SCF Done:  E(UB3LYP) =  -3109.66172716     A.U. after   28 cycles
 SCF Done:  E(UB3LYP) =  -3109.66172815     a.u. after    2 cycles
 SCF Done:  E(UB3LYP) =  -3109.66172925     A.U. after   21 cycles
 Optimization completed.
    -- Stationary point found.
 Normal termination of Gaussian 16 at Wed Jan 10 18:23:54 2024.

 ------------------------------------------------------------------
 #P Geom=AllCheck Guess=TCheck SCRF=Check GenChk UB3LYP/ChkBas Freq
 ------------------------------------------------------------------

 Structure from the checkpoint file:  "004-an.chk"
 -------
 Reduced
 -------
 Charge = -2 Multiplicity = 1

                          Input orientation:
 ---------------------------------------------------------------------
 Center     Atomic      Atomic             Coordinates (Angstroms)
 Number     Number       Type             X           Y           Z
 ---------------------------------------------------------------------
      1          6           0       -1.220222    1.988782   -0.439469
      2          6           0       -2.464377    1.261727   -0.435026
      3          6           0       -2.668727   -0.057558   -0.014488
      4          6           0       -1.560630   -0.847653    0.484038
      5          6           0       -0.313304   -0.154402    0.499237
      6          6           0       -0.176450    1.160510    0.063252
      7         35           0        1.637923    1.954750    0.151158
      8          6           0       -4.069528   -0.703040   -0.057910
      9          6           0       -5.164239    0.237026   -0.598590
     10          6           0       -4.479279   -1.138837    1.370571
     11          6           0       -4.029567   -1.953354   -0.972625
     12          8           0       -1.114938    3.207101   -0.843136
     13          8           0       -1.666069   -2.083528    0.891140
     14          1           0       -3.296861    1.851045   -0.808531
     15          1           0        0.548645   -0.702530    0.864148
     16          1           0       -5.269414    1.134167    0.019490
     17          1           0       -6.129810   -0.287620   -0.603990
     18          1           0       -4.949447    0.560946   -1.622232
     19          1           0       -4.583697   -0.258702    2.016449
     20          1           0       -3.699534   -1.788425    1.776388
     21          1           0       -5.441284   -1.674363    1.360398
     22          1           0       -3.800204   -1.657337   -2.002833
     23          1           0       -5.002843   -2.471942   -0.973862
     24          1           0       -3.249385   -2.628410   -0.614066
 ---------------------------------------------------------------------

 SCF Done:  E(UB3LYP) =  -3109.66172925     a.u. after    1 cycles
 SCF Done:  E(UB3LYP) =  -3109.66172925     A.U. after    8 cycles

 Alpha  occ. eigenvalues -- -482.40978 -61.49338 -56.06292 -56.06000 -56.05967
 Alpha  occ. eigenvalues --  -18.75810 -18.75605  -9.94542  -9.93531  -9.92696
 Alpha  occ. eigenvalues --   -9.92416  -9.92052  -9.91872  -9.91849  -9.88947
 Alpha  occ. eigenvalues --   -9.87832  -9.87686  -8.26305  -6.27741  -6.26786
 Alpha  occ. eigenvalues --   -6.26726  -2.39735  -2.39473  -2.39425  -2.38664
 Alpha  occ. eigenvalues --   -2.38663  -0.67290  -0.66829  -0.57956  -0.54125
 Alpha  occ. eigenvalues --   -0.49545  -0.45631  -0.44634  -0.43531  -0.39790
 Alpha  occ. eigenvalues --   -0.32885  -0.30063  -0.26045  -0.21434  -0.20902
 Alpha  occ. eigenvalues --   -0.20532  -0.17706  -0.16397  -0.16090  -0.16048
 Alpha  occ. eigenvalues --   -0.13572  -0.13332  -0.10654  -0.09931  -0.09878
 Alpha  occ. eigenvalues --   -0.09400  -0.08793  -0.07018  -0.06344  -0.05229
 Alpha  occ. eigenvalues --   -0.03691  -0.02196   0.03404   0.04014   0.06391
 Alpha  occ. eigenvalues --    0.06475   0.13755
 Alpha virt. eigenvalues --    0.15343   0.17813   0.18357   0.19348   0.20063
 Alpha virt. eigenvalues --    0.21316   0.21384   0.21512   0.22709   0.22870
 Alpha virt. eigenvalues --    0.24292   0.24471   0.25382   0.26037   0.26316

  Beta  occ. eigenvalues -- -482.40978 -61.49338 -56.06292 -56.06000 -56.05967
  Beta  occ. eigenvalues --  -18.75810 -18.75605  -9.94542  -9.93531  -9.92696
  Beta  occ. eigenvalues --   -9.92416  -9.92052  -9.91872  -9.91849  -9.88947
  Beta  occ. eigenvalues --   -9.87832  -9.87686  -8.26305  -6.27741  -6.26786
  Beta  occ. eigenvalues --   -6.26726  -2.39735  -2.39473  -2.39425  -2.38664
  Beta  occ. eigenvalues --   -2.38663  -0.67290  -0.66829  -0.57956  -0.54125
  Beta  occ. eigenvalues --   -0.49545  -0.45631  -0.44634  -0.43531  -0.39790
  Beta  occ. eigenvalues --   -0.32885  -0.30063  -0.26045  -0.21434  -0.20902
  Beta  occ. eigenvalues --   -0.20532  -0.17706  -0.16397  -0.16090  -0.16048
  Beta  occ. eigenvalues --   -0.13572  -0.13332  -0.10654  -0.09931  -0.09878
  Beta  occ. eigenvalues --   -0.09400  -0.08793  -0.07018  -0.06344  -0.05229
  Beta  occ. eigenvalues --   -0.03691  -0.02196   0.03404   0.04014   0.06391
  Beta  occ. eigenvalues --    0.06475   0.13755
  Beta virt. eigenvalues --    0.15343   0.17813   0.18357   0.19348   0.20063
  Beta virt. eigenvalues --    0.21316   0.21384   0.21512   0.22709   0.22870
  Beta virt. eigenvalues --    0.24292   0.24471   0.25382   0.26037   0.26316

 Mulliken charges and spin densities:
               1          2
     1  C   -0.870969   0.000000
     2  C   -0.195502  -0.000000
     3  C    1.309168  -0.000000
     4  C   -0.912864   0.000000
     5  C   -0.054572  -0.000000
     6  C    0.394445  -0.000000
     7  Br  -0.428665   0.000000
     8  C    0.562342   0.000000
     9  C   -0.500647  -0.000000
    10  C   -0.616457  -0.000000
    11  C   -0.522640  -0.000000
    12  O   -0.523420  -0.000000
    13  O   -0.538038  -0.000000
    14  H    0.109780  -0.000000
    15  H    0.143572  -0.000000
    16  H    0.092309   0.000000
    17  H   -0.067868   0.000000
    18  H    0.101372   0.000000
    19  H    0.087762  -0.000000
    20  H    0.172826   0.000000
    21  H    0.050138   0.000000
    22  H    0.082505   0.000000
    23  H   -0.097037   0.000000
    24  H    0.222459   0.000000
 Sum of Mulliken charges =  -2.00000  -0.00000

 Dipole moment (field-independent basis, Debye):
    X=             13.5851    Y=             -5.5212    Z=              0.0908  Tot=             14.6645
 Quadrupole moment (field-independent basis, Debye-Ang):
   XX=           -167.0285   YY=           -162.1906   ZZ=           -111.4818
   XY=            -13.7604   XZ=             -2.6453   YZ=             13.1854

  Exact polarizability:2461.394 806.943 604.180 351.227 119.700 248.899
 Approx polarizability:1398.622 430.636 540.477 200.733  35.308 279.112

                      1                      2                      3
                      A                      A                      A
 Frequencies --     55.8913                72.5283               146.9678
 Red. masses --      6.4101                 3.5342                 6.8232
 Frc consts  --      0.0118                 0.0110                 0.0868
 IR Inten    --      9.2895                 0.7755                68.5953

                      4                      5                      6
                      A                      A                      A
 Frequencies --    171.3572               190.2288               200.7788
 Red. masses --      7.6542                 4.4022                 8.7797
 Frc consts  --      0.1324                 0.0939                 0.2085
 IR Inten    --     11.6489                71.7073                38.2070

                      7                      8                      9
                      A                      A                      A
 Frequencies --    221.2384               256.9526               286.3991
 Red. masses --      5.2760                 1.0472                 3.0249
 Frc consts  --      0.1522                 0.0407                 0.1462
 IR Inten    --     47.4394                88.4719               363.5779

                     10                     11                     12
                      A                      A                      A
 Frequencies --    297.9733               298.6735               314.8471
 Red. masses --      4.0654                 1.1857                 2.1296
 Frc consts  --      0.2127                 0.0623                 0.1244
 IR Inten    --     30.0334                12.1050              1050.5793

                     13                     14                     15
                      A                      A                      A
 Frequencies --    322.2100               371.8234               410.3713
 Red. masses --      1.3211                 2.7856                 2.9718
 Frc consts  --      0.0808                 0.2269                 0.2949
 IR Inten    --     88.0898               174.4970               596.8331

                     16                     17                     18
                      A                      A                      A
 Frequencies --    419.9750               429.7543               444.5692
 Red. masses --      7.6319                 3.8256                 3.9844
 Frc consts  --      0.7931                 0.4163                 0.4640
 IR Inten    --   4746.4532                15.4670                16.4474

                     19                     20                     21
                      A                      A                      A
 Frequencies --    500.8725               562.5745               626.1672
 Red. masses --      2.9503                 3.9734                 4.6953
 Frc consts  --      0.4361                 0.7409                 1.0847
 IR Inten    --     20.1533                 1.1144                15.1215

                     22                     23                     24
                      A                      A                      A
 Frequencies --    695.4649               696.8208               711.8435
 Red. masses --      5.4343                 2.5873                 2.8576
 Frc consts  --      1.5486                 0.7402                 0.8532
 IR Inten    --    249.3961                 7.6256                26.9417

                     25                     26                     27
                      A                      A                      A
 Frequencies --    805.8841               812.5389               838.6447
 Red. masses --      7.1423                 3.2757                 2.7003
 Frc consts  --      2.7330                 1.2742                 1.1190
 IR Inten    --    290.9572                47.5588                31.6116

                     28                     29                     30
                      A                      A                      A
 Frequencies --    848.2277               913.1405               921.9292
 Red. masses --      1.6672                 1.8397                 3.2314
 Frc consts  --      0.7067                 0.9038                 1.6182
 IR Inten    --    165.4591               174.8385              1289.0299

                     31                     32                     33
                      A                      A                      A
 Frequencies --    924.6071               953.0164              1026.7780
 Red. masses --      1.7571                 1.2122                 1.6657
 Frc consts  --      0.8851                 0.6487                 1.0347
 IR Inten    --    159.0470                16.9261              1059.6480

                     34                     35                     36
                      A                      A                      A
 Frequencies --   1047.1220              1058.4581              1141.6191
 Red. masses --      1.3837                 2.0221                 9.5307
 Frc consts  --      0.8939                 1.3348                 7.3184
 IR Inten    --    100.5542                51.3461                86.2527

                     37                     38                     39
                      A                      A                      A
 Frequencies --   1197.2455              1207.2739              1218.3035
 Red. masses --      2.0475                 2.5888                 1.8035
 Frc consts  --      1.7292                 2.2231                 1.5772
 IR Inten    --   5195.9239                20.5163              1764.4726

                     40                     41                     42
                      A                      A                      A
 Frequencies --   1249.2586              1272.3213              1317.2864
 Red. masses --      2.2736                 2.7452                 3.8666
 Frc consts  --      2.0906                 2.6183                 3.9531
 IR Inten    --    477.6045               550.9556              5403.7659

                     43                     44                     45
                      A                      A                      A
 Frequencies --   1349.9427              1364.8326              1382.8705
 Red. masses --      1.2137                 1.3158                 5.4643
 Frc consts  --      1.3031                 1.4441                 6.1566
 IR Inten    --     11.2552               318.4296               415.0253

                     46                     47                     48
                      A                      A                      A
 Frequencies --   1389.6770              1434.9605              1455.4151
 Red. masses --      1.4548                 4.6113                 3.0423
 Frc consts  --      1.6554                 5.5944                 3.7969
 IR Inten    --    208.9230              1736.9427               590.6832

                     49                     50                     51
                      A                      A                      A
 Frequencies --   1457.1981              1483.7947              1486.6175
 Red. masses --      1.0922                 1.0555                 1.2054
 Frc consts  --      1.3665                 1.3691                 1.5696
 IR Inten    --     42.0175                13.9318                83.2504

                     52                     53                     54
                      A                      A                      A
 Frequencies --   1492.2677              1509.8542              1527.0285
 Red. masses --      1.0502                 1.0575                 1.0808
 Frc consts  --      1.3779                 1.4204                 1.4848
 IR Inten    --    118.3668                99.0365               334.1442

                     55                     56                     57
                      A                      A                      A
 Frequencies --   1549.7692              2934.8922              2945.9140
 Red. masses --      4.7516                 1.0517                 1.0485
 Frc consts  --      6.7239                 5.3373                 5.3613
 IR Inten    --   9591.3554               186.9029              2700.2391

                     58                     59                     60
                      A                      A                      A
 Frequencies --   2979.7140              3020.7610              3026.4259
 Red. masses --      1.0449                 1.0852                 1.0833
 Frc consts  --      5.4661                 5.8346                 5.8458
 IR Inten    --    470.4721               744.2978                17.4093

                     61                     62                     63
                      A                      A                      A
 Frequencies --   3040.3868              3067.6342              3077.2892
 Red. masses --      1.0875                 1.1009                 1.1006
 Frc consts  --      5.9232                 6.1036                 6.1409
 IR Inten    --    404.7832                57.7283                 3.9948

                     64                     65                     66
                      A                      A                      A
 Frequencies --   3087.0813              3139.7247              3158.0231
 Red. masses --      1.0998                 1.0854                 1.0887
 Frc consts  --      6.1756                 6.3041                 6.3973
 IR Inten    --    319.2113               215.2577               157.4308

 - Thermochemistry -
 -------------------
 Temperature   298.150 Kelvin.  Pressure   1.00000 Atm.
 Atom     1 has atomic number  6 and mass  12.00000

 Molecular mass:   241.99424 amu.
 Principal axes and moments of inertia in atomic units:
                           1         2         3
     Eigenvalues --  1352.400446171.891527126.82382
           X            0.87354  -0.45004  -0.18545
           Y            0.48673   0.81109   0.32439
           Z            0.00443  -0.37364   0.92757
 This molecule is an asymmetric top.
 Rotational symmetry number  1.
 Warning -- assumption of classical behavior for rotation
           may cause significant error
 Rotational temperatures (Kelvin)      0.06404     0.01403     0.01215
 Rotational constants (GHZ):           1.33447     0.29241     0.25323
 Zero-point vibrational energy     477441.7 (Joules/Mol)
                                  114.11130 (Kcal/Mol)
 Warning -- explicit consideration of  20 degrees of freedom as
           vibrations may cause significant error
 Vibrational temperatures:     80.42   104.35   211.45   246.54   273.70
          (Kelvin)            288.88   318.31   369.70   412.06   428.72
                              429.72   452.99   463.59   534.97   590.43
                              604.25   618.32   639.64   720.64   809.42
                              900.91  1000.62  1002.57  1024.18  1159.49
                             1169.06  1206.62  1220.41  1313.81  1326.45
                             1330.30  1371.18  1477.30  1506.58  1522.89
                             1642.54  1722.57  1737.00  1752.87  1797.40
                             1830.59  1895.28  1942.27  1963.69  1989.64
                             1999.44  2064.59  2094.02  2096.58  2134.85
                             2138.91  2147.04  2172.34  2197.05  2229.77
                             4222.66  4238.51  4287.14  4346.20  4354.35
                             4374.44  4413.64  4427.53  4441.62  4517.36
                             4543.69

 Zero-point correction=                           0.181848 (Hartree/Particle)
 Thermal correction to Energy=                    0.194890
 Thermal correction to Enthalpy=                  0.195834
 Thermal correction to Gibbs Free Energy=         0.142343
 Sum of electronic and zero-point Energies=          -3109.479881
 Sum of electronic and thermal Energies=             -3109.466839
 Sum of electronic and thermal Enthalpies=           -3109.465895
 Sum of electronic and thermal Free Energies=        -3109.519386

                     E (Thermal)             CV                S
                      KCal/Mol        Cal/Mol-Kelvin    Cal/Mol-Kelvin
 Total                  122.295             50.048            112.581
 Electronic               0.000              0.000              0.000
 Translational            0.889              2.981             42.352
 Rotational               0.889              2.981             32.453
 Vibrational            120.518             44.086             37.776
 Vibration     1          0.596              1.975              4.597
 Vibration     2          0.599              1.967              4.084
 Vibration     3          0.617              1.906              2.711
 Vibration     4          0.626              1.878              2.421
 Vibration     5          0.634              1.853              2.226
 Vibration     6          0.638              1.839              2.126
 Vibration     7          0.648              1.809              1.949
 Vibration     8          0.667              1.751              1.682
 Vibration     9          0.684              1.699              1.495
 Vibration    10          0.691              1.677              1.428
 Vibration    11          0.692              1.676              1.424
 Vibration    12          0.702              1.645              1.337
 Vibration    13          0.707              1.631              1.299
 Vibration    14          0.744              1.530              1.072
 Vibration    15          0.775              1.448              0.925
 Vibration    16          0.783              1.427              0.892
 Vibration    17          0.791              1.405              0.859
 Vibration    18          0.804              1.373              0.812
 Vibration    19          0.856              1.248              0.656
 Vibration    20          0.918              1.112              0.519

 Optimization completed.
    -- Stationary point found.
 Normal termination of Gaussian 16 at Wed Jan 10 18:55:04 2024.
