 Q-Chem 5.4, Q-Chem, Inc., Pleasanton, CA (2021)
 Q-Chem 5.4.0 for Intel X86 EM64T Linux

User input:
--------------------------------------------------------------
$molecule
-3 1
C                 -3.4720500000      2.4439540000      1.1368210000
C                 -4.2054110000      2.3160240000      2.3044930000
C                 -3.8230030000      1.3684200000      3.2610850000
C                 -2.3194680000      1.6534510000      0.8934070000
C                 -1.9613420000      0.6591830000      1.8368880000
C                 -2.7250440000      0.5426890000      3.0031500000
C                 -1.5670870000      1.8774940000     -0.3462600000
C                 -0.4160150000      0.9949450000     -0.6101580000
C                 -0.0255090000     -0.0185120000      0.2979110000
C                 -0.7486460000     -0.2633290000      1.6335620000
C                  0.3043610000      1.1661240000     -1.8174870000
C                  1.4026580000      0.3753030000     -2.1187970000
C                  1.8025330000     -0.6149730000     -1.2180860000
C                  1.0849410000     -0.8018030000     -0.0352590000
O                 -1.9113650000      2.7620130000     -1.1654840000
S                  2.3572130000      0.6201380000     -3.6668600000
O                  1.3567630000      0.5847910000     -4.7710690000
O                  3.0283310000      1.9447270000     -3.5232190000
O                  3.3209930000     -0.5218890000     -3.7059520000
C                  0.2575500000     -0.0118160000      2.7907710000
C                 -1.2208620000     -1.7474160000      1.6938580000
H                 -3.7456240000      3.1651390000      0.3753090000
H                 -5.0772600000      2.9458370000      2.4797240000
H                 -4.3832540000      1.2554440000      4.1867840000
H                 -2.4598930000     -0.2025580000      3.7460700000
H                 -0.0329900000      1.9364550000     -2.4988950000
H                  2.6592770000     -1.2317300000     -1.4596470000
H                  1.4143830000     -1.5828530000      0.6431840000
H                  0.5868310000      1.0317000000      2.7864070000
H                  1.1406870000     -0.6481110000      2.6896540000
H                 -0.1910250000     -0.2256080000      3.7640950000
H                 -0.3805470000     -2.4374040000      1.5668220000
H                 -1.9490980000     -1.9494100000      0.9034530000
H                 -1.6870700000     -1.9819780000      2.6552920000
$end
$rem
MAX_SCF_CYCLES=200
BASIS  =  6-311++G(d,p)
GUI  =  2
JOB_TYPE  =  SP
METHOD  =  B3LYP
SOLVENT_METHOD = PCM
$end
$pcm
theory = CPCM
$end
$solvent
dielectric 37.219
opticaldielectric 1.43
$end

--------------------------------------------------------------

             Standard Nuclear Orientation (Angstroms)
    I     Atom           X                Y                Z
 ----------------------------------------------------------------
    1      C      -3.4720500000     2.4439540000     1.1368210000
    2      C      -4.2054110000     2.3160240000     2.3044930000
    3      C      -3.8230030000     1.3684200000     3.2610850000
    4      C      -2.3194680000     1.6534510000     0.8934070000
    5      C      -1.9613420000     0.6591830000     1.8368880000
    6      C      -2.7250440000     0.5426890000     3.0031500000
    7      C      -1.5670870000     1.8774940000    -0.3462600000
    8      C      -0.4160150000     0.9949450000    -0.6101580000
    9      C      -0.0255090000    -0.0185120000     0.2979110000
   10      C      -0.7486460000    -0.2633290000     1.6335620000
   11      C       0.3043610000     1.1661240000    -1.8174870000
   12      C       1.4026580000     0.3753030000    -2.1187970000
   13      C       1.8025330000    -0.6149730000    -1.2180860000
   14      C       1.0849410000    -0.8018030000    -0.0352590000
   15      O      -1.9113650000     2.7620130000    -1.1654840000
   16      S       2.3572130000     0.6201380000    -3.6668600000
   17      O       1.3567630000     0.5847910000    -4.7710690000
   18      O       3.0283310000     1.9447270000    -3.5232190000
   19      O       3.3209930000    -0.5218890000    -3.7059520000
   20      C       0.2575500000    -0.0118160000     2.7907710000
   21      C      -1.2208620000    -1.7474160000     1.6938580000
   22      H      -3.7456240000     3.1651390000     0.3753090000
   23      H      -5.0772600000     2.9458370000     2.4797240000
   24      H      -4.3832540000     1.2554440000     4.1867840000
   25      H      -2.4598930000    -0.2025580000     3.7460700000
   26      H      -0.0329900000     1.9364550000    -2.4988950000
   27      H       2.6592770000    -1.2317300000    -1.4596470000
   28      H       1.4143830000    -1.5828530000     0.6431840000
   29      H       0.5868310000     1.0317000000     2.7864070000
   30      H       1.1406870000    -0.6481110000     2.6896540000
   31      H      -0.1910250000    -0.2256080000     3.7640950000
   32      H      -0.3805470000    -2.4374040000     1.5668220000
   33      H      -1.9490980000    -1.9494100000     0.9034530000
   34      H      -1.6870700000    -1.9819780000     2.6552920000
 ----------------------------------------------------------------

   10   -1317.1887912694      5.77e-06  Convergence criterion met
 Total energy in the final basis set =    -1317.1887912694

                    Orbital Energies (a.u.)
 --------------------------------------------------------------

 Alpha MOs
 -- Occupied --
-89.0295 -19.0787 -19.0783 -19.0773 -19.0026 -10.1693 -10.1625 -10.1423
-10.1397 -10.1392 -10.1382 -10.1375 -10.1374 -10.1340 -10.1309 -10.1253
-10.1251 -10.1237 -10.1213 -10.1202 -10.1170  -8.0887  -6.0516  -6.0515
 -6.0498  -1.0937  -0.9592  -0.9579  -0.9345  -0.8337  -0.8128  -0.7797
 -0.7221  -0.7146  -0.6997  -0.6929  -0.6669  -0.6176  -0.5995  -0.5863
 -0.5581  -0.5488  -0.5226  -0.4962  -0.4907  -0.4551  -0.4450  -0.4411
 -0.4383  -0.4249  -0.4129  -0.4076  -0.4036  -0.3996  -0.3848  -0.3806
 -0.3751  -0.3674  -0.3559  -0.3518  -0.3431  -0.3318  -0.3259  -0.3244
 -0.3237  -0.3230  -0.3136  -0.3033  -0.2944  -0.2834  -0.2818  -0.2793
 -0.2669  -0.2455  -0.2191  -0.2150  -0.2128  -0.2091  -0.1835  -0.0626

          Ground-State Mulliken Net Atomic Charges

     Atom                 Charge (a.u.)
  ----------------------------------------
      1 C                    -0.383467
      2 C                    -0.410269
      3 C                    -0.647152
      4 C                     0.643917
      5 C                     0.313276
      6 C                    -0.335991
      7 C                    -0.484018
      8 C                     0.493048
      9 C                     0.333392
     10 C                     0.528406
     11 C                    -0.475029
     12 C                    -1.092255
     13 C                    -0.434459
     14 C                    -0.161069
     15 O                    -0.729420
     16 S                     0.839746
     17 O                    -0.423121
     18 O                    -0.397961
     19 O                    -0.464678
     20 C                    -0.820056
     21 C                    -0.806509
     22 H                     0.139585
     23 H                     0.153439
     24 H                     0.148599
     25 H                     0.111211
     26 H                     0.169689
     27 H                     0.188749
     28 H                     0.125717
     29 H                     0.157872
     30 H                     0.141708
     31 H                     0.140395
     32 H                     0.136883
     33 H                     0.159687
     34 H                     0.140123
  ----------------------------------------
  Sum of atomic charges =    -3.000009

                    Cartesian Multipole Moments
 -----------------------------------------------------------------
    Charge (ESU x 10^10)
               -14.4097
    Dipole Moment (Debye)
         X      -0.0058      Y     -19.9010      Z      24.5049
       Tot      31.5680
    Quadrupole Moments (Debye-Ang)
        XX    -238.1086     XY      22.9849     YY    -195.8464
        XZ      69.5279     YZ      17.5920     ZZ    -266.3720

 Total job time:  89.25s(wall), 656.91s(cpu)
        *  Thank you very much for using Q-Chem.  Have a nice day.  *
