 Q-Chem 5.4, Q-Chem, Inc., Pleasanton, CA (2021)
 Q-Chem 5.4.0 for Intel X86 EM64T Linux

User input:
--------------------------------------------------------------
$molecule
0 1
O                  2.5429200000     -0.9802570000     -0.2511560000
C                  1.3521900000     -0.4204030000     -0.1256240000
C                  1.1545980000      0.9136500000     -0.0067770000
Cl                 2.4612190000      2.0465710000     -0.0069760000
C                 -0.2034900000      1.4158100000      0.1260840000
O                 -0.5146140000      2.5901530000      0.2388780000
C                 -1.3521540000      0.4203690000      0.1256920000
C                 -1.1545710000     -0.9136980000      0.0069470000
Cl                -2.4612220000     -2.0465600000      0.0066430000
C                  0.2035560000     -1.4159180000     -0.1253400000
O                  0.5145070000     -2.5902260000     -0.2390530000
O                 -2.5428870000      0.9803720000      0.2507880000
H                  2.3853430000     -1.9452640000     -0.3162290000
H                 -2.3853960000      1.9454000000      0.3161240000
$end
$rem
MAX_SCF_CYCLES=200
BASIS  =  6-311++G(d,p)
GUI  =  2
JOB_TYPE  =  SP
METHOD  =  B3LYP
SOLVENT_METHOD = PCM
$end
$pcm
theory = CPCM
$end
$solvent
dielectric 37.219
opticaldielectric 1.43
$end

--------------------------------------------------------------

             Standard Nuclear Orientation (Angstroms)
    I     Atom           X                Y                Z
 ----------------------------------------------------------------
    1      O       2.5429200000    -0.9802570000    -0.2511560000
    2      C       1.3521900000    -0.4204030000    -0.1256240000
    3      C       1.1545980000     0.9136500000    -0.0067770000
    4      Cl      2.4612190000     2.0465710000    -0.0069760000
    5      C      -0.2034900000     1.4158100000     0.1260840000
    6      O      -0.5146140000     2.5901530000     0.2388780000
    7      C      -1.3521540000     0.4203690000     0.1256920000
    8      C      -1.1545710000    -0.9136980000     0.0069470000
    9      Cl     -2.4612220000    -2.0465600000     0.0066430000
   10      C       0.2035560000    -1.4159180000    -0.1253400000
   11      O       0.5145070000    -2.5902260000    -0.2390530000
   12      O      -2.5428870000     0.9803720000     0.2507880000
   13      H       2.3853430000    -1.9452640000    -0.3162290000
   14      H      -2.3853960000     1.9454000000     0.3161240000
 ----------------------------------------------------------------

    8   -1451.3294829330      9.68e-06  Convergence criterion met
 Total energy in the final basis set =    -1451.3294829330

                    Orbital Energies (a.u.)
 --------------------------------------------------------------

 Alpha MOs
 -- Occupied --
********-101.5808 -19.2038 -19.2038 -19.1663 -19.1663 -10.3167 -10.3166
-10.3016 -10.3016 -10.2661 -10.2661  -9.4951  -9.4951  -7.2602  -7.2602
 -7.2500  -7.2500  -7.2492  -7.2492  -1.1373  -1.1346  -1.0903  -1.0889
 -0.9206  -0.9045  -0.8426  -0.7736  -0.7254  -0.6702  -0.6362  -0.6201
 -0.5707  -0.5620  -0.5038  -0.4979  -0.4970  -0.4810  -0.4805  -0.4656
 -0.4423  -0.4294  -0.4135  -0.4127  -0.3747  -0.3699  -0.3486  -0.3430
 -0.3257  -0.3201  -0.2942  -0.2616

          Ground-State Mulliken Net Atomic Charges

     Atom                 Charge (a.u.)
  ----------------------------------------
      1 O                    -0.166404
      2 C                    -1.269548
      3 C                     2.020674
      4 Cl                    0.254258
      5 C                    -0.890248
      6 O                    -0.281414
      7 C                    -1.269775
      8 C                     2.020728
      9 Cl                    0.254248
     10 C                    -0.890241
     11 O                    -0.281386
     12 O                    -0.166461
     13 H                     0.332775
     14 H                     0.332793
  ----------------------------------------
  Sum of atomic charges =     0.000000

                    Cartesian Multipole Moments
 -----------------------------------------------------------------
    Charge (ESU x 10^10)
                 0.0000
    Dipole Moment (Debye)
         X       0.0004      Y      -0.0001      Z       0.0021
       Tot       0.0021
    Quadrupole Moments (Debye-Ang)
        XX     -84.3166     XY      -7.5892     YY     -91.4808
        XZ      -0.2785     YZ      -0.4030     ZZ     -79.6970

 Total job time:  86.76s(wall), 100.91s(cpu)
        *  Thank you very much for using Q-Chem.  Have a nice day.  *
