 Gaussian 16, Revision A.03,
 Gaussian 16:  ES64L-G16RevA.03 25-Dec-2016

 ----------------------------------------------------------------
 #P UB3LYP/6-311++G(d,p) SCRF=(PCM,Solvent=n,n-DiMethylFormamide)
 ----------------------------------------------------------------

 ------------------
 Radical PCM in DMF
 ------------------
 Symbolic Z-matrix:
 Charge = -1 Multiplicity = 2

                         Standard orientation:
 ---------------------------------------------------------------------
 Center     Atomic      Atomic             Coordinates (Angstroms)
 Number     Number       Type             X           Y           Z
 ---------------------------------------------------------------------
      1          6           0        4.230009    0.811178    0.001957
      2          6           0        5.317258   -0.039151    0.007505
      3          6           0        5.122378   -1.437823    0.009409
      4          6           0        2.908211    0.310529   -0.001264
      5          6           0        2.716428   -1.095949    0.000268
      6          6           0        3.840873   -1.949858    0.005541
      7          6           0        1.797590    1.273465   -0.006980
      8          6           0        1.376615   -1.671461   -0.004206
      9          6           0        0.440758    0.707520   -0.008444
     10          6           0        0.263198   -0.716193   -0.009120
     11          6           0       -0.745923    1.492995   -0.009858
     12          6           0       -2.036352    0.954165   -0.022375
     13          6           0       -2.133083   -0.460567   -0.016479
     14          6           0       -1.029934   -1.267448   -0.007536
     15          8           0        2.034430    2.504252   -0.012653
     16          8           0        1.181135   -2.910298   -0.002822
     17          1           0        4.352989    1.887561    0.000009
     18          1           0        6.324472    0.367096    0.010217
     19          1           0        5.978392   -2.105920    0.013485
     20          1           0        3.655728   -3.017738    0.006340
     21         35           0       -3.892528   -1.279899    0.008405
     22          1           0       -1.107696   -2.346727    0.001193
     23          7           0       -3.176132    1.748480   -0.091031
     24         17           0       -0.695018    3.266448    0.019591
     25          1           0       -3.035388    2.704612    0.200882
     26          1           0       -4.014471    1.318586    0.271160
 ---------------------------------------------------------------------

 SCF Done:  E(UB3LYP) =  -3777.62928201     A.U. after   21 cycles

 The electronic state is 2-A.
 Alpha  occ. eigenvalues -- -482.83825-101.55239 -62.49104 -56.31132 -56.30757
 Alpha  occ. eigenvalues --  -56.30746 -19.07857 -19.07446 -14.32971 -10.24049
 Alpha  occ. eigenvalues --  -10.23847 -10.23456 -10.22894 -10.22867 -10.19405
 Alpha  occ. eigenvalues --  -10.18520 -10.18042 -10.17466 -10.17404 -10.17334
 Alpha  occ. eigenvalues --  -10.17324 -10.17141 -10.16981  -9.46721  -8.70067
 Alpha  occ. eigenvalues --   -7.23162  -7.22238  -7.22148  -6.53173  -6.51931
 Alpha  occ. eigenvalues --   -6.51911  -2.64270  -2.63916  -2.63902  -2.62916
 Alpha  occ. eigenvalues --   -2.62913  -1.00779  -1.00490  -0.94635  -0.87302
 Alpha  occ. eigenvalues --   -0.85898  -0.85187  -0.81055  -0.77318  -0.75190
 Alpha  occ. eigenvalues --   -0.74093  -0.73290  -0.66838  -0.64042  -0.62157
 Alpha  occ. eigenvalues --   -0.59788  -0.56500  -0.54573  -0.53691  -0.51467
 Alpha  occ. eigenvalues --   -0.49495  -0.47053  -0.46077  -0.45506  -0.43992
 Alpha  occ. eigenvalues --   -0.43663  -0.42804  -0.42279  -0.41674  -0.40975
 Alpha  occ. eigenvalues --   -0.40627  -0.39539  -0.38598  -0.36641  -0.35586
 Alpha  occ. eigenvalues --   -0.35454  -0.35006  -0.33936  -0.32277  -0.32149
 Alpha  occ. eigenvalues --   -0.30906  -0.30236  -0.26496  -0.25767  -0.25207
 Alpha  occ. eigenvalues --   -0.24798  -0.23390  -0.22696  -0.14240
 Alpha virt. eigenvalues --   -0.05831  -0.02848  -0.02442  -0.00839  -0.00419
 Alpha virt. eigenvalues --    0.00294   0.00937   0.01896   0.02072   0.03088
 Alpha virt. eigenvalues --    0.03874   0.03972   0.04604   0.04922   0.05232

  Beta  occ. eigenvalues -- -482.83824-101.55236 -62.49104 -56.31132 -56.30754
  Beta  occ. eigenvalues --  -56.30746 -19.07364 -19.06830 -14.32950 -10.24008
  Beta  occ. eigenvalues --  -10.23787 -10.23413 -10.22734 -10.22687 -10.19308
  Beta  occ. eigenvalues --  -10.18532 -10.17979 -10.17397 -10.17365 -10.17286
  Beta  occ. eigenvalues --  -10.17250 -10.17140 -10.16974  -9.46718  -8.70066
  Beta  occ. eigenvalues --   -7.23164  -7.22225  -7.22147  -6.53174  -6.51927
  Beta  occ. eigenvalues --   -6.51909  -2.64270  -2.63915  -2.63901  -2.62913
  Beta  occ. eigenvalues --   -2.62911  -0.99886  -0.99445  -0.94548  -0.87148
  Beta  occ. eigenvalues --   -0.85731  -0.85116  -0.80873  -0.77057  -0.74967
  Beta  occ. eigenvalues --   -0.73918  -0.73112  -0.66159  -0.63866  -0.61919
  Beta  occ. eigenvalues --   -0.59704  -0.56284  -0.54407  -0.53574  -0.51319
  Beta  occ. eigenvalues --   -0.49328  -0.46793  -0.46006  -0.45381  -0.43937
  Beta  occ. eigenvalues --   -0.43040  -0.42601  -0.42130  -0.41335  -0.40546
  Beta  occ. eigenvalues --   -0.39798  -0.39309  -0.36714  -0.36557  -0.35375
  Beta  occ. eigenvalues --   -0.34974  -0.34306  -0.33827  -0.32196  -0.31783
  Beta  occ. eigenvalues --   -0.30224  -0.30106  -0.25338  -0.24777  -0.24519
  Beta  occ. eigenvalues --   -0.24332  -0.22865  -0.22035
  Beta virt. eigenvalues --   -0.08396  -0.04902  -0.02786  -0.01492  -0.00516
  Beta virt. eigenvalues --   -0.00402   0.00301   0.00957   0.01911   0.02085
  Beta virt. eigenvalues --    0.03117   0.03894   0.04107   0.04621   0.05267

 Mulliken charges and spin densities:
               1          2
     1  C    0.125378   0.033789
     2  C   -0.493356   0.027939
     3  C   -0.430187   0.039884
     4  C    0.027104   0.034569
     5  C    0.087066   0.019437
     6  C    0.066170   0.019551
     7  C   -1.139341   0.099018
     8  C   -0.640336   0.086662
     9  C    0.666456   0.074324
    10  C    0.189284   0.029443
    11  C    0.256084   0.054083
    12  C   -1.083859   0.033159
    13  C    0.540574   0.028107
    14  C    0.315415   0.007658
    15  O   -0.351542   0.227406
    16  O   -0.443223   0.183257
    17  H    0.166696  -0.002392
    18  H    0.182913  -0.002508
    19  H    0.183743  -0.003157
    20  H    0.162864  -0.000888
    21  Br  -0.171640   0.000928
    22  H    0.219674  -0.000800
    23  N   -0.209697   0.009304
    24  Cl   0.262142   0.001524
    25  H    0.252522  -0.000386
    26  H    0.259095   0.000087
 Sum of Mulliken charges =  -1.00000   1.00000

 Dipole moment (field-independent basis, Debye):
    X=             -6.5474    Y=              0.5319    Z=              1.1561  Tot=              6.6700
 Quadrupole moment (field-independent basis, Debye-Ang):
   XX=           -138.6843   YY=           -166.0552   ZZ=           -136.2024
   XY=             -8.4301   XZ=             -4.1883   YZ=              2.3381

 Normal termination of Gaussian 16 at Sun Jan 14 01:18:44 2024.
