 Gaussian 16, Revision A.03,
 Gaussian 16:  ES64L-G16RevA.03 25-Dec-2016

 ----------------------------------------------------------------------
 #P UB3LYP/6-311++G(d,p) nosym opt freq SCRF=(PCM,Solvent=n,n-DiMethylF
 ormamide)
 ----------------------------------------------------------------------

 -------
 Reduced
 -------
 Symbolic Z-matrix:
 Charge = -2 Multiplicity = 1

 SCF Done:  E(UB3LYP) =  -1145.09174138     A.U. after   18 cycles
 SCF Done:  E(UB3LYP) =  -1145.09466768     A.U. after   14 cycles
 SCF Done:  E(UB3LYP) =  -1145.09366331     A.U. after   14 cycles
 SCF Done:  E(UB3LYP) =  -1145.09595182     A.U. after   14 cycles
 SCF Done:  E(UB3LYP) =  -1145.09620461     A.U. after   13 cycles
 SCF Done:  E(UB3LYP) =  -1145.09634270     A.U. after   13 cycles
 SCF Done:  E(UB3LYP) =  -1145.09643382     A.U. after   12 cycles
 SCF Done:  E(UB3LYP) =  -1145.09646283     A.U. after   11 cycles
 SCF Done:  E(UB3LYP) =  -1145.09648844     A.U. after   11 cycles
 SCF Done:  E(UB3LYP) =  -1145.09649711     A.U. after   11 cycles
 SCF Done:  E(UB3LYP) =  -1145.09652817     A.U. after   11 cycles
 SCF Done:  E(UB3LYP) =  -1145.09654474     A.U. after   10 cycles
 SCF Done:  E(UB3LYP) =  -1145.09656864     A.U. after   11 cycles
 SCF Done:  E(UB3LYP) =  -1145.09658510     A.U. after   10 cycles
 SCF Done:  E(UB3LYP) =  -1145.09659061     A.U. after   11 cycles
 SCF Done:  E(UB3LYP) =  -1145.09659108     A.U. after    9 cycles
 SCF Done:  E(UB3LYP) =  -1145.09659136     A.U. after   10 cycles
 SCF Done:  E(UB3LYP) =  -1145.09659148     A.U. after    9 cycles
 SCF Done:  E(UB3LYP) =  -1145.09659152     A.U. after    8 cycles
 Optimization completed.
    -- Stationary point found.
 Normal termination of Gaussian 16 at Sat Feb 10 21:13:18 2024.

 ----------------------------------------------------------------------
 #P Geom=AllCheck Guess=TCheck SCRF=Check GenChk UB3LYP/6-311++G(d,p) F
 req
 ----------------------------------------------------------------------

 Structure from the checkpoint file:  "148-an.chk"
 -------
 Reduced
 -------
 Charge = -2 Multiplicity = 1

                          Input orientation:
 ---------------------------------------------------------------------
 Center     Atomic      Atomic             Coordinates (Angstroms)
 Number     Number       Type             X           Y           Z
 ---------------------------------------------------------------------
      1          6           0       -3.019266    3.698478    0.346327
      2          6           0       -4.255031    3.124641    0.425719
      3          6           0       -4.440194    1.723765    0.327755
      4          6           0       -1.848936    2.902686    0.166851
      5          6           0       -2.012876    1.463377    0.067362
      6          6           0       -3.329458    0.931436    0.153916
      7          6           0       -0.567599    3.544269    0.089040
      8          6           0        0.544867    2.656614   -0.094376
      9          6           0        0.389769    1.216461   -0.196536
     10          6           0       -0.896296    0.574041   -0.119666
     11          6           0        1.862905    3.195749   -0.185810
     12          6           0        2.944754    2.382798   -0.363449
     13          6           0        2.817319    0.976036   -0.472393
     14          6           0        1.558775    0.428406   -0.385801
     15          8           0       -0.425537    4.837887    0.178524
     16          8           0       -1.038507   -0.713395   -0.213709
     17          1           0       -3.437287   -0.144257    0.073338
     18          1           0        1.427508   -0.644829   -0.464377
     19          1           0       -2.905593    4.773840    0.413414
     20          1           0        1.986127    4.269826   -0.115158
     21          1           0        3.696835    0.360199   -0.621941
     22          8           0        4.226697    2.965245   -0.535479
     23          6           0        5.102848    2.950408    0.497580
     24          6           0        6.414875    3.565698    0.092909
     25          8           0        4.848118    2.496117    1.589616
     26          8           0       -5.400376    3.956595    0.518620
     27          1           0        6.250997    4.558559   -0.330214
     28          1           0        6.882735    2.951234   -0.680258
     29          1           0        7.074251    3.631136    0.955643
     30          6           0       -5.993859    4.130877    1.723751
     31          6           0       -7.207962    5.010627    1.597955
     32          8           0       -5.589531    3.635864    2.750974
     33          1           0       -5.437129    1.301895    0.386433
     34          1           0       -6.942995    5.949282    1.107524
     35          1           0       -7.624554    5.208684    2.583119
     36          1           0       -7.956603    4.513921    0.975964
 ---------------------------------------------------------------------

 SCF Done:  E(UB3LYP) =  -1145.09659152     A.U. after    1 cycles

 Alpha  occ. eigenvalues --  -19.17198 -19.17191 -19.11908 -19.11907 -19.02232
 Alpha  occ. eigenvalues --  -19.01822 -10.31128 -10.31126 -10.21578 -10.21571
 Alpha  occ. eigenvalues --  -10.17883 -10.17780 -10.17779 -10.17424 -10.15731
 Alpha  occ. eigenvalues --  -10.15726 -10.15571 -10.15561 -10.15366 -10.15360
 Alpha  occ. eigenvalues --  -10.14449 -10.14447 -10.14194 -10.14186  -1.11250
 Alpha  occ. eigenvalues --   -1.11247  -1.02962  -1.02961  -0.93581  -0.92873
 Alpha  occ. eigenvalues --   -0.83795  -0.83376  -0.77660  -0.76525  -0.74813
 Alpha  occ. eigenvalues --   -0.73214  -0.73068  -0.71115  -0.65480  -0.63647
 Alpha  occ. eigenvalues --   -0.62873  -0.58506  -0.58446  -0.55718  -0.53373
 Alpha  occ. eigenvalues --   -0.50527  -0.50225  -0.49243  -0.49225  -0.48565
 Alpha  occ. eigenvalues --   -0.48055  -0.47123  -0.46877  -0.44520  -0.43883
 Alpha  occ. eigenvalues --   -0.42099  -0.41684  -0.41445  -0.41421  -0.40846
 Alpha  occ. eigenvalues --   -0.40328  -0.39278  -0.39097  -0.38668  -0.37730
 Alpha  occ. eigenvalues --   -0.37662  -0.37284  -0.35986  -0.34635  -0.33684
 Alpha  occ. eigenvalues --   -0.33466  -0.32559  -0.32377  -0.31123  -0.30420
 Alpha  occ. eigenvalues --   -0.30147  -0.28941  -0.28923  -0.24217  -0.23044
 Alpha  occ. eigenvalues --   -0.22486  -0.21919  -0.20336  -0.19765  -0.11173
 Alpha virt. eigenvalues --   -0.03304  -0.00644  -0.00434  -0.00299  -0.00166
 Alpha virt. eigenvalues --    0.00010   0.00997   0.01466   0.01762   0.01978
 Alpha virt. eigenvalues --    0.03352   0.03404   0.03705   0.03993   0.04615

  Beta  occ. eigenvalues --  -19.17198 -19.17191 -19.11908 -19.11907 -19.02232
  Beta  occ. eigenvalues --  -19.01822 -10.31128 -10.31126 -10.21578 -10.21571
  Beta  occ. eigenvalues --  -10.17883 -10.17780 -10.17779 -10.17424 -10.15731
  Beta  occ. eigenvalues --  -10.15726 -10.15571 -10.15561 -10.15366 -10.15360
  Beta  occ. eigenvalues --  -10.14449 -10.14447 -10.14194 -10.14186  -1.11250
  Beta  occ. eigenvalues --   -1.11247  -1.02962  -1.02961  -0.93581  -0.92873
  Beta  occ. eigenvalues --   -0.83795  -0.83376  -0.77660  -0.76525  -0.74813
  Beta  occ. eigenvalues --   -0.73214  -0.73068  -0.71115  -0.65480  -0.63647
  Beta  occ. eigenvalues --   -0.62873  -0.58506  -0.58446  -0.55718  -0.53373
  Beta  occ. eigenvalues --   -0.50527  -0.50225  -0.49243  -0.49225  -0.48565
  Beta  occ. eigenvalues --   -0.48055  -0.47123  -0.46877  -0.44520  -0.43883
  Beta  occ. eigenvalues --   -0.42099  -0.41684  -0.41445  -0.41421  -0.40846
  Beta  occ. eigenvalues --   -0.40328  -0.39278  -0.39097  -0.38668  -0.37730
  Beta  occ. eigenvalues --   -0.37662  -0.37284  -0.35986  -0.34635  -0.33684
  Beta  occ. eigenvalues --   -0.33466  -0.32559  -0.32377  -0.31123  -0.30420
  Beta  occ. eigenvalues --   -0.30147  -0.28941  -0.28923  -0.24217  -0.23044
  Beta  occ. eigenvalues --   -0.22486  -0.21919  -0.20336  -0.19765  -0.11173
  Beta virt. eigenvalues --   -0.03304  -0.00644  -0.00434  -0.00299  -0.00166
  Beta virt. eigenvalues --    0.00010   0.00997   0.01466   0.01762   0.01978
  Beta virt. eigenvalues --    0.03352   0.03404   0.03705   0.03993   0.04615

 Mulliken charges and spin densities:
               1          2
     1  C   -0.029721   0.000000
     2  C   -1.020488  -0.000000
     3  C    0.182226   0.000000
     4  C    0.441187   0.000000
     5  C    0.255296  -0.000000
     6  C    0.125402  -0.000000
     7  C   -0.779491  -0.000000
     8  C    0.435687   0.000000
     9  C    0.252769  -0.000000
    10  C   -0.455797  -0.000000
    11  C   -0.024407  -0.000000
    12  C   -1.018821  -0.000000
    13  C    0.167760   0.000000
    14  C    0.128426   0.000000
    15  O   -0.673018   0.000000
    16  O   -0.651763  -0.000000
    17  H    0.163195   0.000000
    18  H    0.163123   0.000000
    19  H    0.163922  -0.000000
    20  H    0.163876   0.000000
    21  H    0.190867   0.000000
    22  O   -0.018353   0.000000
    23  C    0.125359  -0.000000
    24  C   -0.531201   0.000000
    25  O   -0.304808   0.000000
    26  O   -0.017590   0.000000
    27  H    0.183069  -0.000000
    28  H    0.187374   0.000000
    29  H    0.172836   0.000000
    30  C    0.126472  -0.000000
    31  C   -0.532731  -0.000000
    32  O   -0.304256   0.000000
    33  H    0.190449   0.000000
    34  H    0.183325   0.000000
    35  H    0.172748   0.000000
    36  H    0.187077  -0.000000
 Sum of Mulliken charges =  -2.00000   0.00000

 Dipole moment (field-independent basis, Debye):
    X=              6.5332    Y=            -19.2676    Z=             -4.6760  Tot=             20.8755
 Quadrupole moment (field-independent basis, Debye-Ang):
   XX=           -152.8719   YY=           -228.9247   ZZ=           -167.6269
   XY=              8.4646   XZ=              0.7050   YZ=            -13.6952

  Exact polarizability: 634.563 -21.323 420.176 -43.295  16.514 229.885
 Approx polarizability: 673.893 -17.771 494.927 -43.781  13.432 265.858

                      1                      2                      3
                      A                      A                      A
 Frequencies --     24.5088                30.6776                31.8512
 Red. masses --      7.7812                 1.5951                 1.4263
 Frc consts  --      0.0028                 0.0009                 0.0009
 IR Inten    --      5.5259                 3.4488                 5.3166

                      4                      5                      6
                      A                      A                      A
 Frequencies --     33.8105                40.5272                56.0076
 Red. masses --      2.5519                 7.0151                 5.2295
 Frc consts  --      0.0017                 0.0068                 0.0097
 IR Inten    --      2.1382                 4.8922                 0.3984

                      7                      8                      9
                      A                      A                      A
 Frequencies --     73.5127                80.5988                87.0371
 Red. masses --      2.3721                 2.4631                 8.1732
 Frc consts  --      0.0076                 0.0094                 0.0365
 IR Inten    --     10.8445                 3.1646                 4.4749

                     10                     11                     12
                      A                      A                      A
 Frequencies --    134.4963               155.3518               168.9378
 Red. masses --      4.8005                 7.1094                 8.0088
 Frc consts  --      0.0512                 0.1011                 0.1347
 IR Inten    --      1.5385                10.0930                 9.7313

                     13                     14                     15
                      A                      A                      A
 Frequencies --    180.8964               210.4827               240.6184
 Red. masses --      7.4115                 7.3615                 4.9268
 Frc consts  --      0.1429                 0.1922                 0.1681
 IR Inten    --      7.9648                 2.7218                12.5657

                     16                     17                     18
                      A                      A                      A
 Frequencies --    254.7304               286.2338               314.7676
 Red. masses --      9.9654                 5.1297                 6.6509
 Frc consts  --      0.3810                 0.2476                 0.3882
 IR Inten    --      0.0691                 0.0726                 3.9850

                     19                     20                     21
                      A                      A                      A
 Frequencies --    347.0160               372.9960               396.6875
 Red. masses --      5.6491                 9.2311                 5.6676
 Frc consts  --      0.4008                 0.7567                 0.5255
 IR Inten    --      3.0811                 6.1812                 5.0226

                     22                     23                     24
                      A                      A                      A
 Frequencies --    406.7975               416.7143               420.0047
 Red. masses --      5.0457                 5.0054                 5.0281
 Frc consts  --      0.4920                 0.5121                 0.5226
 IR Inten    --     29.2868                 4.4443                 7.5693

                     25                     26                     27
                      A                      A                      A
 Frequencies --    457.8366               474.1933               481.2335
 Red. masses --      5.1558                 4.0437                 3.4376
 Frc consts  --      0.6368                 0.5357                 0.4690
 IR Inten    --     14.8342                 2.3683                 1.9637

                     28                     29                     30
                      A                      A                      A
 Frequencies --    495.6203               562.9615               567.3902
 Red. masses --     10.2502                 5.6509                 4.8689
 Frc consts  --      1.4835                 1.0552                 0.9235
 IR Inten    --      2.3537                20.6414                52.1580

                     31                     32                     33
                      A                      A                      A
 Frequencies --    574.5078               605.1500               610.6557
 Red. masses --      5.0085                 2.9117                 2.9291
 Frc consts  --      0.9740                 0.6282                 0.6435
 IR Inten    --      9.3107                17.1209                 0.7678

                     34                     35                     36
                      A                      A                      A
 Frequencies --    629.5252               641.7147               668.1738
 Red. masses --      4.0876                 7.0839                 4.2215
 Frc consts  --      0.9544                 1.7187                 1.1104
 IR Inten    --     22.5306                 0.2710                46.9440

                     37                     38                     39
                      A                      A                      A
 Frequencies --    686.8783               703.5203               712.7466
 Red. masses --      5.6661                 6.3908                 4.6906
 Frc consts  --      1.5750                 1.8636                 1.4039
 IR Inten    --      0.1033                 6.7527                35.7644

                     40                     41                     42
                      A                      A                      A
 Frequencies --    718.9786               758.4477               776.2184
 Red. masses --      4.6758                 4.5527                 2.3985
 Frc consts  --      1.4241                 1.5430                 0.8515
 IR Inten    --      5.1150                 4.4548                22.2988

                     43                     44                     45
                      A                      A                      A
 Frequencies --    782.2432               804.4555               818.1250
 Red. masses --      2.0061                 2.9140                 3.4378
 Frc consts  --      0.7232                 1.1111                 1.3557
 IR Inten    --     28.5373                90.3934                25.3236

                     46                     47                     48
                      A                      A                      A
 Frequencies --    880.4515               897.4747               918.7190
 Red. masses --      3.7522                 2.3409                 1.9550
 Frc consts  --      1.7137                 1.1109                 0.9722
 IR Inten    --      8.3609                50.5201                29.7858

                     49                     50                     51
                      A                      A                      A
 Frequencies --    923.0851               940.2596               953.2264
 Red. masses --      3.9584                 2.9998                 3.6355
 Frc consts  --      1.9873                 1.5626                 1.9463
 IR Inten    --     49.5314                 0.5767               101.5032

                     52                     53                     54
                      A                      A                      A
 Frequencies --    975.1492               979.0527               995.7668
 Red. masses --      1.3005                 1.3008                 2.5662
 Frc consts  --      0.7286                 0.7346                 1.4992
 IR Inten    --      2.5122                 5.1526               140.0856

                     55                     56                     57
                      A                      A                      A
 Frequencies --   1020.1949              1020.6069              1061.6051
 Red. masses --      1.7472                 1.7583                 1.7997
 Frc consts  --      1.0714                 1.0791                 1.1950
 IR Inten    --    234.1121                95.7990                19.9018

                     58                     59                     60
                      A                      A                      A
 Frequencies --   1061.7241              1078.2816              1101.6390
 Red. masses --      1.7981                 3.0408                 1.6919
 Frc consts  --      1.1942                 2.0831                 1.2098
 IR Inten    --     16.8314               361.6789               208.5304

                     61                     62                     63
                      A                      A                      A
 Frequencies --   1114.4980              1134.9888              1156.8684
 Red. masses --      1.9326                 3.0509                 1.4210
 Frc consts  --      1.4144                 2.3156                 1.1205
 IR Inten    --    471.1630               880.8851               726.6030

                     64                     65                     66
                      A                      A                      A
 Frequencies --   1191.1990              1194.9516              1196.6310
 Red. masses --      1.8241                 9.0161                 6.2352
 Frc consts  --      1.5250                 7.5853                 5.2604
 IR Inten    --     20.8975               282.5399               109.0258

                     67                     68                     69
                      A                      A                      A
 Frequencies --   1218.7364              1226.6828              1243.2810
 Red. masses --      2.9719                 3.9068                 2.5662
 Frc consts  --      2.6008                 3.4636                 2.3371
 IR Inten    --    296.3162              1313.0022               214.5573

                     70                     71                     72
                      A                      A                      A
 Frequencies --   1307.6978              1316.8606              1338.9159
 Red. masses --      6.3844                 2.1203                 4.3182
 Frc consts  --      6.4325                 2.1664                 4.5610
 IR Inten    --    281.3736                10.6909              2425.6223

                     73                     74                     75
                      A                      A                      A
 Frequencies --   1350.1754              1393.8724              1394.0326
 Red. masses --      6.4220                 1.3039                 1.3045
 Frc consts  --      6.8977                 1.4926                 1.4936
 IR Inten    --    644.7368               100.1561                61.5291

                     76                     77                     78
                      A                      A                      A
 Frequencies --   1420.8041              1452.3340              1459.0603
 Red. masses --      5.7029                 3.1611                 1.1118
 Frc consts  --      6.7828                 3.9285                 1.3946
 IR Inten    --    382.9624                44.2033                55.3962

                     79                     80                     81
                      A                      A                      A
 Frequencies --   1459.3872              1462.2555              1464.8570
 Red. masses --      1.0660                 4.5281                 1.0524
 Frc consts  --      1.3377                 5.7044                 1.3306
 IR Inten    --     11.0974                45.1566                 2.5461

                     82                     83                     84
                      A                      A                      A
 Frequencies --   1465.1427              1484.8178              1501.4159
 Red. masses --      1.1208                 2.9743                 6.7238
 Frc consts  --      1.4176                 3.8634                 8.9303
 IR Inten    --      7.9839                89.0377                 1.2100

                     85                     86                     87
                      A                      A                      A
 Frequencies --   1534.1775              1578.6352              1613.9459
 Red. masses --      6.6825                 7.4651                 6.7034
 Frc consts  --      9.2670                10.9610                10.2879
 IR Inten    --     63.8983                27.3368               289.5581

                     88                     89                     90
                      A                      A                      A
 Frequencies --   1619.1252              1754.6892              1755.4551
 Red. masses --      7.5696                11.2292                11.2252
 Frc consts  --     11.6919                20.3703                20.3810
 IR Inten    --     16.7418               214.5966               783.2379

                     91                     92                     93
                      A                      A                      A
 Frequencies --   3051.1018              3051.3913              3112.5305
 Red. masses --      1.0369                 1.0370                 1.0997
 Frc consts  --      5.6875                 5.6886                 6.2770
 IR Inten    --      2.3843                 2.3042                 5.4437

                     94                     95                     96
                      A                      A                      A
 Frequencies --   3112.6596              3155.0833              3155.7599
 Red. masses --      1.0998                 1.1035                 1.1033
 Frc consts  --      6.2780                 6.4720                 6.4739
 IR Inten    --      5.3827                14.0940                13.9695

                     97                     98                     99
                      A                      A                      A
 Frequencies --   3165.3060              3166.6714              3181.2336
 Red. masses --      1.0862                 1.0861                 1.0947
 Frc consts  --      6.4120                 6.4169                 6.5274
 IR Inten    --      0.2438                 0.0666                36.8984

                    100                    101                    102
                      A                      A                      A
 Frequencies --   3181.4070              3182.7764              3184.5572
 Red. masses --      1.0910                 1.0940                 1.0903
 Frc consts  --      6.5061                 6.5297                 6.5146
 IR Inten    --     21.2721                65.2755                20.3687

 - Thermochemistry -
 -------------------
 Temperature   298.150 Kelvin.  Pressure   1.00000 Atm.
 Atom     1 has atomic number  6 and mass  12.00000

 Molecular mass:   324.06339 amu.
 Principal axes and moments of inertia in atomic units:
                           1         2         3
     Eigenvalues --  3038.54534********************
           X            0.98855   0.12822   0.07958
           Y           -0.10449   0.96205  -0.25208
           Z           -0.10888   0.24088   0.96443
 This molecule is an asymmetric top.
 Rotational symmetry number  1.
 Warning -- assumption of classical behavior for rotation
           may cause significant error
 Rotational temperatures (Kelvin)      0.02851     0.00479     0.00429
 Rotational constants (GHZ):           0.59395     0.09977     0.08941
 Zero-point vibrational energy     673551.7 (Joules/Mol)
                                  160.98272 (Kcal/Mol)
 Warning -- explicit consideration of  33 degrees of freedom as
           vibrations may cause significant error
 Vibrational temperatures:     35.26    44.14    45.83    48.65    58.31
          (Kelvin)             80.58   105.77   115.96   125.23   193.51
                              223.52   243.06   260.27   302.84   346.20
                              366.50   411.83   452.88   499.28   536.66
                              570.74   585.29   599.56   604.29   658.72
                              682.26   692.39   713.09   809.98   816.35
                              826.59   870.68   878.60   905.75   923.28
                              961.35   988.26  1012.21  1025.48  1034.45
                             1091.24  1116.81  1125.47  1157.43  1177.10
                             1266.77  1291.27  1321.83  1328.11  1352.82
                             1371.48  1403.02  1408.64  1432.69  1467.83
                             1468.43  1527.41  1527.58  1551.41  1585.01
                             1603.51  1633.00  1664.48  1713.87  1719.27
                             1721.69  1753.49  1764.92  1788.80  1881.49
                             1894.67  1926.40  1942.60  2005.47  2005.70
                             2044.22  2089.58  2099.26  2099.73  2103.86
                             2107.60  2108.01  2136.32  2160.20  2207.34
                             2271.30  2322.11  2329.56  2524.61  2525.71
                             4389.85  4390.27  4478.24  4478.42  4539.46
                             4540.43  4554.17  4556.13  4577.09  4577.34
                             4579.31  4581.87

 Zero-point correction=                           0.256542 (Hartree/Particle)
 Thermal correction to Energy=                    0.277610
 Thermal correction to Enthalpy=                  0.278554
 Thermal correction to Gibbs Free Energy=         0.203064
 Sum of electronic and zero-point Energies=          -1144.840049
 Sum of electronic and thermal Energies=             -1144.818982
 Sum of electronic and thermal Enthalpies=           -1144.818038
 Sum of electronic and thermal Free Energies=        -1144.893527

                     E (Thermal)             CV                S
                      KCal/Mol        Cal/Mol-Kelvin    Cal/Mol-Kelvin
 Total                  174.203             78.582            158.882
 Electronic               0.000              0.000              0.000
 Translational            0.889              2.981             43.223
 Rotational               0.889              2.981             35.360
 Vibrational            172.425             72.621             80.299
 Vibration     1          0.593              1.985              6.231
 Vibration     2          0.594              1.984              5.785
 Vibration     3          0.594              1.983              5.711
 Vibration     4          0.594              1.983              5.592
 Vibration     5          0.594              1.981              5.233
 Vibration     6          0.596              1.975              4.593
 Vibration     7          0.599              1.966              4.057
 Vibration     8          0.600              1.962              3.876
 Vibration     9          0.601              1.958              3.726
 Vibration    10          0.613              1.919              2.881
 Vibration    11          0.620              1.897              2.606
 Vibration    12          0.625              1.881              2.447
 Vibration    13          0.630              1.866              2.319
 Vibration    14          0.643              1.825              2.039
 Vibration    15          0.658              1.778              1.798
 Vibration    16          0.665              1.755              1.698
 Vibration    17          0.684              1.699              1.496
 Vibration    18          0.702              1.645              1.337
 Vibration    19          0.725              1.581              1.180
 Vibration    20          0.744              1.528              1.067
 Vibration    21          0.763              1.477              0.975
 Vibration    22          0.772              1.455              0.938
 Vibration    23          0.780              1.434              0.903
 Vibration    24          0.783              1.427              0.892
 Vibration    25          0.816              1.344              0.772
 Vibration    26          0.831              1.307              0.726
 Vibration    27          0.838              1.292              0.707
 Vibration    28          0.851              1.260              0.669
 Vibration    29          0.919              1.111              0.518
 Vibration    30          0.923              1.102              0.509
 Vibration    31          0.931              1.086              0.496
 Vibration    32          0.964              1.021              0.441
 Vibration    33          0.970              1.009              0.432

                           ! Non-Optimized Parameters !
 Normal termination of Gaussian 16 at Sun Feb 11 00:09:56 2024.
