 Q-Chem 5.4, Q-Chem, Inc., Pleasanton, CA (2021)
 Q-Chem 5.4.0 for Intel X86 EM64T Linux

User input:
--------------------------------------------------------------
$molecule
-2 1
C                  3.8827580000      0.6176390000      0.0056110000
O                  2.6921660000      1.2485270000     -0.3978250000
C                  1.4968960000      0.5473360000     -0.2489370000
C                  1.4768040000     -0.8500900000     -0.1464000000
C                  0.2905000000     -1.6304550000     -0.0323060000
O                  0.2973320000     -2.9137350000      0.0661380000
C                 -0.9399450000     -0.8469520000     -0.0291550000
C                 -2.1889880000     -1.4943200000      0.0860500000
C                 -3.3845520000     -0.7958440000      0.0910600000
C                 -3.3633190000      0.6192280000     -0.0258310000
C                 -2.1545710000      1.2809570000     -0.1376270000
C                 -0.9149210000      0.5947520000     -0.1414790000
C                  0.3166890000      1.3657040000     -0.2535730000
O                  0.3281130000      2.6440120000     -0.3568810000
H                  3.8139580000      0.2201870000      1.0320860000
H                  4.6768570000      1.3707280000     -0.0276940000
H                  4.1697140000     -0.2091380000     -0.6587040000
H                  2.4065340000     -1.4097560000     -0.1416950000
H                 -2.1653720000     -2.5770020000      0.1717500000
H                 -4.3321110000     -1.3247540000      0.1815420000
H                 -4.2966870000      1.1808480000     -0.0279850000
H                 -2.1078520000      2.3621290000     -0.2282390000
$end

$rem
BASIS  =  6-311++G(d,p)
GUI  =  2
JOB_TYPE  =  SP
METHOD  =  B3LYP
SCF_CONVERGENCE  = 8
SOLVENT_METHOD = sm12
$end

$smx
solvent dimethylformamide
charges CM5
$end

--------------------------------------------------------------

             Standard Nuclear Orientation (Angstroms)
    I     Atom           X                Y                Z
 ----------------------------------------------------------------
    1      C       3.8827580000     0.6176390000     0.0056110000
    2      O       2.6921660000     1.2485270000    -0.3978250000
    3      C       1.4968960000     0.5473360000    -0.2489370000
    4      C       1.4768040000    -0.8500900000    -0.1464000000
    5      C       0.2905000000    -1.6304550000    -0.0323060000
    6      O       0.2973320000    -2.9137350000     0.0661380000
    7      C      -0.9399450000    -0.8469520000    -0.0291550000
    8      C      -2.1889880000    -1.4943200000     0.0860500000
    9      C      -3.3845520000    -0.7958440000     0.0910600000
   10      C      -3.3633190000     0.6192280000    -0.0258310000
   11      C      -2.1545710000     1.2809570000    -0.1376270000
   12      C      -0.9149210000     0.5947520000    -0.1414790000
   13      C       0.3166890000     1.3657040000    -0.2535730000
   14      O       0.3281130000     2.6440120000    -0.3568810000
   15      H       3.8139580000     0.2201870000     1.0320860000
   16      H       4.6768570000     1.3707280000    -0.0276940000
   17      H       4.1697140000    -0.2091380000    -0.6587040000
   18      H       2.4065340000    -1.4097560000    -0.1416950000
   19      H      -2.1653720000    -2.5770020000     0.1717500000
   20      H      -4.3321110000    -1.3247540000     0.1815420000
   21      H      -4.2966870000     1.1808480000    -0.0279850000
   22      H      -2.1078520000     2.3621290000    -0.2282390000
 ----------------------------------------------------------------

   18    -649.7706694107      5.06e-09  Convergence criterion met
 Total energy in the final basis set =     -650.0662750374

                    Orbital Energies (a.u.)
 --------------------------------------------------------------

 Alpha MOs
 -- Occupied --
-19.1333 -19.0262 -19.0189 -10.2179 -10.1968 -10.1871 -10.1798 -10.1754
-10.1732 -10.1711 -10.1689 -10.1524 -10.1515 -10.1392  -1.0442  -0.9418
 -0.9353  -0.8439  -0.7810  -0.7430  -0.7284  -0.6979  -0.6452  -0.6086
 -0.5890  -0.5496  -0.5085  -0.5022  -0.4722  -0.4558  -0.4472  -0.4384
 -0.4243  -0.4101  -0.3894  -0.3869  -0.3734  -0.3616  -0.3466  -0.3423
 -0.3314  -0.3279  -0.3129  -0.2930  -0.2492  -0.2345  -0.2153  -0.2031
 -0.1966  -0.1163

          Ground-State Mulliken Net Atomic Charges

     Atom                 Charge (a.u.)
  ----------------------------------------
      1 C                     0.441330
      2 O                    -0.040800
      3 C                     0.802573
      4 C                     1.090918
      5 C                    -2.020834
      6 O                    -0.383785
      7 C                    -1.835162
      8 C                    -0.112254
      9 C                     1.342777
     10 C                     1.289473
     11 C                    -0.302010
     12 C                    -1.710520
     13 C                    -1.881189
     14 O                    -0.417423
     15 H                     0.146682
     16 H                     0.405483
     17 H                     0.201682
     18 H                     0.036606
     19 H                     0.080091
     20 H                     0.398498
     21 H                     0.390765
     22 H                     0.077097
  ----------------------------------------
  Sum of atomic charges =    -2.000000

                    Cartesian Multipole Moments
 -----------------------------------------------------------------
    Charge (ESU x 10^10)
                -9.6064
    Dipole Moment (Debye)
         X       2.4298      Y       0.4528      Z       1.5819
       Tot       2.9345
    Quadrupole Moments (Debye-Ang)
        XX    -107.8790     XY      -2.5080     YY    -149.5743
        XZ       1.9823     YZ       4.7324     ZZ     -95.4644

 Total job time:  424.92s(wall), 2687.38s(cpu)
        *  Thank you very much for using Q-Chem.  Have a nice day.  *
