 Gaussian 16, Revision A.03,
 Gaussian 16:  ES64L-G16RevA.03 25-Dec-2016

 ----------------------------------------------------------------
 #P UB3LYP/6-311++G(d,p) SCRF=(PCM,Solvent=n,n-DiMethylFormamide)
 ----------------------------------------------------------------

 ------------------
 Radical PCM in DMF
 ------------------
 Symbolic Z-matrix:
 Charge = -1 Multiplicity = 2

                         Standard orientation:
 ---------------------------------------------------------------------
 Center     Atomic      Atomic             Coordinates (Angstroms)
 Number     Number       Type             X           Y           Z
 ---------------------------------------------------------------------
      1          8           0        1.384209    2.367771    0.000229
      2          6           0        0.761745    1.169262    0.000057
      3          6           0        1.423013   -0.033063   -0.000159
      4         17           0        3.180349   -0.084797   -0.000081
      5          6           0        0.700701   -1.269434   -0.000185
      6          8           0        1.192338   -2.434236    0.000531
      7          6           0       -0.761466   -1.169119   -0.000195
      8          6           0       -1.423051    0.033308    0.000020
      9         17           0       -3.180354    0.084552    0.000145
     10          6           0       -0.700902    1.269511   -0.000049
     11          8           0       -1.192545    2.434348   -0.000168
     12          8           0       -1.383985   -2.367662   -0.000384
     13          1           0        0.622106    2.990998   -0.000040
     14          1           0       -0.622397   -2.991402    0.000353
 ---------------------------------------------------------------------

 SCF Done:  E(UB3LYP) =  -1451.48747148     A.U. after   18 cycles

 The electronic state is 2-A.
 Alpha  occ. eigenvalues -- -101.55673-101.55672 -19.16222 -19.16219 -19.10320
 Alpha  occ. eigenvalues --  -19.10319 -10.24904 -10.24902 -10.24845 -10.24842
 Alpha  occ. eigenvalues --  -10.22787 -10.22785  -9.47103  -9.47102  -7.23559
 Alpha  occ. eigenvalues --   -7.23558  -7.22598  -7.22597  -7.22551  -7.22550
 Alpha  occ. eigenvalues --   -1.08758  -1.08526  -1.01875  -1.01815  -0.88448
 Alpha  occ. eigenvalues --   -0.86966  -0.81150  -0.73056  -0.69846  -0.62328
 Alpha  occ. eigenvalues --   -0.59806  -0.57297  -0.52458  -0.51251  -0.46570
 Alpha  occ. eigenvalues --   -0.46483  -0.45332  -0.43523  -0.42773  -0.42681
 Alpha  occ. eigenvalues --   -0.39785  -0.39410  -0.37275  -0.36951  -0.34700
 Alpha  occ. eigenvalues --   -0.34059  -0.32231  -0.32016  -0.28233  -0.27534
 Alpha  occ. eigenvalues --   -0.27485  -0.23079  -0.17499
 Alpha virt. eigenvalues --   -0.01438  -0.00434   0.00829   0.01398   0.01432
 Alpha virt. eigenvalues --    0.02236   0.03921   0.04278   0.05034   0.05635
 Alpha virt. eigenvalues --    0.06060   0.07094   0.08238   0.08545   0.09092

  Beta  occ. eigenvalues -- -101.55674-101.55673 -19.16103 -19.16100 -19.09722
  Beta  occ. eigenvalues --  -19.09720 -10.24670 -10.24668 -10.24630 -10.24627
  Beta  occ. eigenvalues --  -10.22842 -10.22840  -9.47104  -9.47103  -7.23561
  Beta  occ. eigenvalues --   -7.23560  -7.22601  -7.22600  -7.22553  -7.22552
  Beta  occ. eigenvalues --   -1.08401  -1.08186  -1.00877  -1.00837  -0.88264
  Beta  occ. eigenvalues --   -0.86941  -0.80727  -0.72796  -0.68800  -0.61956
  Beta  occ. eigenvalues --   -0.59426  -0.57043  -0.52113  -0.51086  -0.46381
  Beta  occ. eigenvalues --   -0.45187  -0.45165  -0.42977  -0.42343  -0.41298
  Beta  occ. eigenvalues --   -0.39173  -0.38402  -0.37017  -0.35754  -0.33695
  Beta  occ. eigenvalues --   -0.33030  -0.32190  -0.31967  -0.27694  -0.26960
  Beta  occ. eigenvalues --   -0.25329  -0.22535
  Beta virt. eigenvalues --   -0.10328  -0.01363   0.00833   0.00994   0.01444
  Beta virt. eigenvalues --    0.02243   0.03945   0.04212   0.04315   0.05136
  Beta virt. eigenvalues --    0.05674   0.06134   0.07123   0.08252   0.08556

 Mulliken charges and spin densities:
               1          2
     1  O   -0.230724   0.035735
     2  C   -1.401053   0.181976
     3  C    2.138055  -0.026700
     4  Cl   0.161097  -0.002727
     5  C   -1.001292   0.097960
     6  O   -0.461844   0.216618
     7  C   -1.401236   0.182331
     8  C    2.138088  -0.026699
     9  Cl   0.161068  -0.002713
    10  C   -1.001398   0.098076
    11  O   -0.461828   0.216466
    12  O   -0.230750   0.035793
    13  H    0.295899  -0.003058
    14  H    0.295920  -0.003058
 Sum of Mulliken charges =  -1.00000   1.00000

 Dipole moment (field-independent basis, Debye):
    X=             -0.0004    Y=             -0.0014    Z=             -0.0002  Tot=              0.0015
 Quadrupole moment (field-independent basis, Debye-Ang):
   XX=           -111.3868   YY=           -105.8012   ZZ=            -84.3198
   XY=              7.5873   XZ=             -0.0042   YZ=             -0.0007

 Normal termination of Gaussian 16 at Wed Jan 24 22:49:17 2024.
