 Gaussian 16, Revision A.03,
 Gaussian 16:  ES64L-G16RevA.03 25-Dec-2016

 --------------------------------------
 #P UB3LYP/6-311++G(d,p) nosym opt freq
 --------------------------------------

 -------
 Reduced
 -------
 Symbolic Z-matrix:
 Charge = -2 Multiplicity = 1

 SCF Done:  E(UB3LYP) =  -696.131953529     A.U. after   44 cycles
 SCF Done:  E(UB3LYP) =  -696.132330364     A.U. after   28 cycles
 SCF Done:  E(UB3LYP) =  -696.131844785     A.U. after   25 cycles
 SCF Done:  E(UB3LYP) =  -696.132378746     A.U. after   28 cycles
 SCF Done:  E(UB3LYP) =  -696.132447929     A.U. after   80 cycles
 SCF Done:  E(UB3LYP) =  -696.132449312     A.U. after   36 cycles
 SCF Done:  E(UB3LYP) =  -696.132449774     A.U. after   19 cycles
 SCF Done:  E(UB3LYP) =  -696.132449979     A.U. after   22 cycles
 Optimization completed.
    -- Stationary point found.
 Normal termination of Gaussian 16 at Sat Jan  6 07:56:13 2024.

 ----------------------------------------------------------------------
 #P Geom=AllCheck Guess=TCheck SCRF=Check GenChk UB3LYP/6-311++G(d,p) F
 req
 ----------------------------------------------------------------------

 Structure from the checkpoint file:  "046-an.chk"
 -------
 Reduced
 -------
 Charge = -2 Multiplicity = 1

                          Input orientation:
 ---------------------------------------------------------------------
 Center     Atomic      Atomic             Coordinates (Angstroms)
 Number     Number       Type             X           Y           Z
 ---------------------------------------------------------------------
      1          6           0        2.584220   -0.331165   -1.936510
      2          6           0        2.562305   -0.006489   -0.421661
      3          6           0        2.764380    1.517778   -0.230850
      4          6           0        3.768986   -0.718338    0.222274
      5          6           0        1.202107   -0.429556    0.180962
      6          6           0        1.142219   -1.378037    1.216552
      7          6           0       -0.064744   -1.827250    1.832166
      8          8           0       -0.095970   -2.708972    2.792487
      9          6           0       -1.234021   -1.213091    1.290732
     10          6           0       -1.226573   -0.260964    0.256773
     11          6           0        0.006198    0.175425   -0.348411
     12          8           0        0.037927    1.070228   -1.321797
     13          6           0       -2.550169    0.348391   -0.262050
     14          6           0       -2.710594    0.036400   -1.771204
     15          6           0       -3.801195   -0.192866    0.458644
     16          6           0       -2.527957    1.885113   -0.065584
     17          1           0        3.518440    0.022793   -2.404043
     18          1           0        2.515355   -1.414995   -2.088457
     19          1           0        1.725919    0.152561   -2.408665
     20          1           0        1.909469    2.039423   -0.667520
     21          1           0        3.696902    1.857198   -0.712370
     22          1           0        2.824847    1.756904    0.837635
     23          1           0        3.711575   -1.804404    0.098683
     24          1           0        3.837817   -0.508881    1.294410
     25          1           0        4.695666   -0.368306   -0.254824
     26          1           0        2.051800   -1.826957    1.607184
     27          1           0       -2.170822   -1.533942    1.738950
     28          1           0       -3.614159    0.517968   -2.181455
     29          1           0       -2.801557   -1.045899   -1.922490
     30          1           0       -1.824614    0.399060   -2.297649
     31          1           0       -3.773860    0.019779    1.532008
     32          1           0       -4.698516    0.283581    0.038311
     33          1           0       -3.901940   -1.275948    0.336723
     34          1           0       -3.433503    2.351729   -0.488578
     35          1           0       -2.487133    2.125560    1.003535
     36          1           0       -1.638801    2.286168   -0.557708
 ---------------------------------------------------------------------

 SCF Done:  E(UB3LYP) =  -696.132449979     A.U. after    1 cycles

 Alpha  occ. eigenvalues --  -18.74727 -18.73687  -9.93762  -9.93761  -9.92957
 Alpha  occ. eigenvalues --   -9.92957  -9.91215  -9.91215  -9.91214  -9.91213
 Alpha  occ. eigenvalues --   -9.90547  -9.89860  -9.87617  -9.87615  -9.85694
 Alpha  occ. eigenvalues --   -9.85694  -0.65830  -0.64404  -0.57195  -0.56968
 Alpha  occ. eigenvalues --   -0.50325  -0.45032  -0.44878  -0.43993  -0.43956
 Alpha  occ. eigenvalues --   -0.43531  -0.38331  -0.33169  -0.31564  -0.26139
 Alpha  occ. eigenvalues --   -0.25659  -0.20759  -0.20719  -0.20060  -0.19910
 Alpha  occ. eigenvalues --   -0.19848  -0.18814  -0.16519  -0.16460  -0.15769
 Alpha  occ. eigenvalues --   -0.15108  -0.14804  -0.13045  -0.12849  -0.12493
 Alpha  occ. eigenvalues --   -0.10365  -0.09368  -0.08931  -0.08484  -0.08393
 Alpha  occ. eigenvalues --   -0.07798  -0.07544  -0.06871  -0.04774  -0.04459
 Alpha  occ. eigenvalues --   -0.02939   0.04900   0.05200   0.07364   0.08514
 Alpha  occ. eigenvalues --    0.14965
 Alpha virt. eigenvalues --    0.16112   0.16249   0.18369   0.18440   0.18486
 Alpha virt. eigenvalues --    0.18809   0.19624   0.20449   0.21539   0.21593
 Alpha virt. eigenvalues --    0.21970   0.22069   0.22355   0.22576   0.24724

  Beta  occ. eigenvalues --  -18.74727 -18.73687  -9.93762  -9.93761  -9.92957
  Beta  occ. eigenvalues --   -9.92957  -9.91215  -9.91215  -9.91214  -9.91213
  Beta  occ. eigenvalues --   -9.90547  -9.89860  -9.87617  -9.87615  -9.85694
  Beta  occ. eigenvalues --   -9.85694  -0.65830  -0.64404  -0.57195  -0.56968
  Beta  occ. eigenvalues --   -0.50325  -0.45032  -0.44878  -0.43993  -0.43956
  Beta  occ. eigenvalues --   -0.43531  -0.38331  -0.33169  -0.31564  -0.26139
  Beta  occ. eigenvalues --   -0.25659  -0.20759  -0.20719  -0.20060  -0.19910
  Beta  occ. eigenvalues --   -0.19848  -0.18814  -0.16519  -0.16460  -0.15769
  Beta  occ. eigenvalues --   -0.15108  -0.14804  -0.13045  -0.12849  -0.12493
  Beta  occ. eigenvalues --   -0.10365  -0.09368  -0.08931  -0.08484  -0.08393
  Beta  occ. eigenvalues --   -0.07798  -0.07544  -0.06871  -0.04774  -0.04459
  Beta  occ. eigenvalues --   -0.02939   0.04900   0.05200   0.07364   0.08514
  Beta  occ. eigenvalues --    0.14965
  Beta virt. eigenvalues --    0.16112   0.16249   0.18369   0.18440   0.18486
  Beta virt. eigenvalues --    0.18809   0.19624   0.20449   0.21539   0.21593
  Beta virt. eigenvalues --    0.21970   0.22069   0.22355   0.22576   0.24724

 Mulliken charges and spin densities:
               1          2
     1  C   -0.722458  -0.000000
     2  C    1.038001  -0.000000
     3  C   -0.722339   0.000000
     4  C   -0.552696   0.000000
     5  C    0.675169  -0.000000
     6  C   -0.149926  -0.000000
     7  C   -1.393802   0.000000
     8  O   -0.587746  -0.000000
     9  C   -0.150009  -0.000000
    10  C    0.675417   0.000000
    11  C   -0.677194   0.000000
    12  O   -0.538293  -0.000000
    13  C    1.037945  -0.000000
    14  C   -0.722503  -0.000000
    15  C   -0.552431  -0.000000
    16  C   -0.722431   0.000000
    17  H    0.049923   0.000000
    18  H    0.090297   0.000000
    19  H    0.190385  -0.000000
    20  H    0.190488   0.000000
    21  H    0.049581  -0.000000
    22  H    0.090314  -0.000000
    23  H    0.105232  -0.000000
    24  H    0.105302   0.000000
    25  H    0.097599  -0.000000
    26  H    0.063530  -0.000000
    27  H    0.063525  -0.000000
    28  H    0.049845   0.000000
    29  H    0.090296   0.000000
    30  H    0.190446  -0.000000
    31  H    0.105295   0.000000
    32  H    0.097580   0.000000
    33  H    0.105232  -0.000000
    34  H    0.049734  -0.000000
    35  H    0.090430  -0.000000
    36  H    0.190259   0.000000
 Sum of Mulliken charges =  -2.00000  -0.00000

 Dipole moment (field-independent basis, Debye):
    X=              0.2324    Y=              6.5720    Z=             -5.6514  Tot=              8.6708
 Quadrupole moment (field-independent basis, Debye-Ang):
   XX=           -148.4499   YY=           -149.6014   ZZ=           -153.3085
   XY=              0.9975   XZ=              2.1308   YZ=             33.2352

  Exact polarizability: 355.415 -13.139 198.398  -9.181 -63.583 208.567
 Approx polarizability: 426.242  -8.568 329.782  -6.897 -61.420 339.373

                      1                      2                      3
                      A                      A                      A
 Frequencies --     51.6239                68.6696                81.0122
 Red. masses --      3.5649                 2.7545                 4.2518
 Frc consts  --      0.0056                 0.0077                 0.0164
 IR Inten    --      4.7987                 0.0017                 0.0026

                      4                      5                      6
                      A                      A                      A
 Frequencies --    158.5640               160.7625               183.0812
 Red. masses --      3.4466                 3.1902                 7.5692
 Frc consts  --      0.0511                 0.0486                 0.1495
 IR Inten    --      3.4112                 0.0009                 7.2890

                      7                      8                      9
                      A                      A                      A
 Frequencies --    234.2601               254.9382               256.4670
 Red. masses --      3.8906                 1.0323                 1.0362
 Frc consts  --      0.1258                 0.0395                 0.0402
 IR Inten    --      2.2098                 0.0014                 0.2716

                     10                     11                     12
                      A                      A                      A
 Frequencies --    265.1246               276.0227               294.9213
 Red. masses --      2.8812                 2.1297                 3.6872
 Frc consts  --      0.1193                 0.0956                 0.1890
 IR Inten    --      2.8075                 2.7363                 4.8280

                     13                     14                     15
                      A                      A                      A
 Frequencies --    296.7854               297.7126               306.5072
 Red. masses --      1.5701                 1.1095                 2.6475
 Frc consts  --      0.0815                 0.0579                 0.1465
 IR Inten    --      5.6517                 0.1890                 0.0063

                     16                     17                     18
                      A                      A                      A
 Frequencies --    313.6247               319.0249               321.2743
 Red. masses --      1.8716                 1.0657                 1.0679
 Frc consts  --      0.1085                 0.0639                 0.0649
 IR Inten    --      0.2746                 0.9851                 0.0083

                     19                     20                     21
                      A                      A                      A
 Frequencies --    361.9197               376.3248               396.8639
 Red. masses --      5.0322                 2.6687                 2.3452
 Frc consts  --      0.3884                 0.2227                 0.2176
 IR Inten    --     25.5865                 2.1796                 0.0002

                     22                     23                     24
                      A                      A                      A
 Frequencies --    400.3854               429.5927               436.7192
 Red. masses --      2.6847                 2.6026                 4.2531
 Frc consts  --      0.2536                 0.2830                 0.4779
 IR Inten    --      0.0450                 3.8355                 1.1174

                     25                     26                     27
                      A                      A                      A
 Frequencies --    451.5835               478.6348               524.5543
 Red. masses --      3.8097                 7.7514                 3.1906
 Frc consts  --      0.4577                 1.0463                 0.5173
 IR Inten    --      0.3723                 3.2770                 1.2115

                     28                     29                     30
                      A                      A                      A
 Frequencies --    556.0068               619.2016               619.4965
 Red. masses --      2.8679                 2.0536                 4.3623
 Frc consts  --      0.5224                 0.4639                 0.9864
 IR Inten    --      2.5895                 6.1945                 0.3556

                     31                     32                     33
                      A                      A                      A
 Frequencies --    663.0479               755.1309               777.3739
 Red. masses --      4.8317                 4.6025                 7.2282
 Frc consts  --      1.2515                 1.5463                 2.5736
 IR Inten    --      0.4447                 1.7643                13.5679

                     34                     35                     36
                      A                      A                      A
 Frequencies --    803.8671               808.2316               817.3692
 Red. masses --      4.0490                 4.2539                 1.3293
 Frc consts  --      1.5416                 1.6372                 0.5232
 IR Inten    --     36.6732                59.4236                 0.0037

                     37                     38                     39
                      A                      A                      A
 Frequencies --    837.0614               887.2240               911.6192
 Red. masses --      2.2053                 2.7086                 1.7906
 Frc consts  --      0.9104                 1.2562                 0.8767
 IR Inten    --     38.5718                 4.4973                 0.3098

                     40                     41                     42
                      A                      A                      A
 Frequencies --    912.3352               924.4627               927.8881
 Red. masses --      1.7798                 1.7674                 1.7560
 Frc consts  --      0.8728                 0.8899                 0.8908
 IR Inten    --      0.0626                 0.9106                16.1106

                     43                     44                     45
                      A                      A                      A
 Frequencies --    949.2897               950.2124               970.9939
 Red. masses --      1.2152                 1.2142                 3.6771
 Frc consts  --      0.6452                 0.6459                 2.0426
 IR Inten    --      1.2706                 1.2686                 6.4065

                     46                     47                     48
                      A                      A                      A
 Frequencies --   1035.3669              1038.3459              1045.7279
 Red. masses --      1.4010                 1.5189                 1.3814
 Frc consts  --      0.8848                 0.9648                 0.8900
 IR Inten    --     17.7584                 6.7448                 4.6545

                     49                     50                     51
                      A                      A                      A
 Frequencies --   1047.0807              1095.8632              1156.2221
 Red. masses --      1.3782                 2.1832                 4.6079
 Frc consts  --      0.8903                 1.5448                 3.6294
 IR Inten    --      0.0981                35.3816               117.7971

                     52                     53                     54
                      A                      A                      A
 Frequencies --   1199.2673              1205.1007              1206.4177
 Red. masses --      2.1842                 2.6111                 2.6416
 Frc consts  --      1.8508                 2.2342                 2.2653
 IR Inten    --    109.2503                 4.5834                 0.0455

                     55                     56                     57
                      A                      A                      A
 Frequencies --   1210.4621              1239.2323              1244.8915
 Red. masses --      2.5582                 2.1400                 1.8505
 Frc consts  --      2.2084                 1.9363                 1.6897
 IR Inten    --      0.2722               170.6685                92.7802

                     58                     59                     60
                      A                      A                      A
 Frequencies --   1253.2013              1270.0632              1330.2130
 Red. masses --      2.9396                 4.2056                 4.1159
 Frc consts  --      2.7201                 3.9970                 4.2909
 IR Inten    --      2.9047                60.9689               103.9158

                     61                     62                     63
                      A                      A                      A
 Frequencies --   1342.2945              1342.7404              1353.4061
 Red. masses --      1.2160                 1.2160                 1.2101
 Frc consts  --      1.2909                 1.2918                 1.3060
 IR Inten    --     24.0317                 3.8988                 6.8916

                     64                     65                     66
                      A                      A                      A
 Frequencies --   1361.7331              1380.7263              1386.0377
 Red. masses --      1.3724                 1.3973                 1.2692
 Frc consts  --      1.4994                 1.5694                 1.4366
 IR Inten    --     60.6248                87.0194                59.3349

                     67                     68                     69
                      A                      A                      A
 Frequencies --   1400.5479              1427.5867              1454.3582
 Red. masses --      4.4331                 2.5043                 1.0483
 Frc consts  --      5.1234                 3.0071                 1.3064
 IR Inten    --     13.0989               438.3398                 0.1662

                     70                     71                     72
                      A                      A                      A
 Frequencies --   1454.4518              1473.4092              1482.2604
 Red. masses --      1.0482                 1.2363                 1.0491
 Frc consts  --      1.3064                 1.5813                 1.3581
 IR Inten    --      0.1570                 0.6937                 0.0472

                     73                     74                     75
                      A                      A                      A
 Frequencies --   1482.4803              1483.5556              1484.8065
 Red. masses --      1.0487                 3.0124                 1.1570
 Frc consts  --      1.3579                 3.9064                 1.5029
 IR Inten    --      2.5878                11.8038                14.9970

                     76                     77                     78
                      A                      A                      A
 Frequencies --   1492.2218              1492.6985              1509.5987
 Red. masses --      1.0719                 1.0533                 1.0545
 Frc consts  --      1.4063                 1.3828                 1.4159
 IR Inten    --      4.5738                 0.7772                 0.0019

                     79                     80                     81
                      A                      A                      A
 Frequencies --   1511.5065              1526.3269              1528.9604
 Red. masses --      1.0545                 1.0560                 1.0586
 Frc consts  --      1.4194                 1.4494                 1.4580
 IR Inten    --      6.7842                 1.5790                 1.4869

                     82                     83                     84
                      A                      A                      A
 Frequencies --   1593.4867              2930.0727              2930.9192
 Red. masses --      5.9199                 1.0499                 1.0493
 Frc consts  --      8.8566                 5.3107                 5.3109
 IR Inten    --    197.8754                54.1338                 0.3586

                     85                     86                     87
                      A                      A                      A
 Frequencies --   2937.2007              2940.2328              2976.6190
 Red. masses --      1.0512                 1.0511                 1.0462
 Frc consts  --      5.3431                 5.3540                 5.4615
 IR Inten    --    575.8317               245.0345               407.3239

                     88                     89                     90
                      A                      A                      A
 Frequencies --   2977.8141              3020.8828              3021.1509
 Red. masses --      1.0459                 1.0845                 1.0839
 Frc consts  --      5.4645                 5.8312                 5.8288
 IR Inten    --     15.1908                 2.4348               279.3006

                     91                     92                     93
                      A                      A                      A
 Frequencies --   3021.2285              3021.8118              3040.3463
 Red. masses --      1.0819                 1.0820                 1.0858
 Frc consts  --      5.8184                 5.8211                 5.9137
 IR Inten    --     26.1350                50.1382                26.5949

                     94                     95                     96
                      A                      A                      A
 Frequencies --   3040.8865              3068.7342              3068.8191
 Red. masses --      1.0859                 1.1010                 1.1010
 Frc consts  --      5.9163                 6.1085                 6.1090
 IR Inten    --    104.8804                56.6411                16.1754

                     97                     98                     99
                      A                      A                      A
 Frequencies --   3079.9196              3080.3379              3081.7002
 Red. masses --      1.1004                 1.1002                 1.0998
 Frc consts  --      6.1500                 6.1503                 6.1537
 IR Inten    --      1.3574                 8.1272                 5.5073

                    100                    101                    102
                      A                      A                      A
 Frequencies --   3083.3604              3127.0142              3131.2762
 Red. masses --      1.0993                 1.0859                 1.0842
 Frc consts  --      6.1576                 6.2563                 6.2635
 IR Inten    --     17.0494                55.5706                66.9487

 - Thermochemistry -
 -------------------
 Temperature   298.150 Kelvin.  Pressure   1.00000 Atm.
 Atom     1 has atomic number  6 and mass  12.00000

 Molecular mass:   220.14633 amu.
 Principal axes and moments of inertia in atomic units:
                           1         2         3
     Eigenvalues --  2452.320414386.114266043.35833
           X            0.99712  -0.02397   0.07202
           Y           -0.06923  -0.67638   0.73329
           Z           -0.03113   0.73616   0.67609
 This molecule is an asymmetric top.
 Rotational symmetry number  1.
 Warning -- assumption of classical behavior for rotation
           may cause significant error
 Rotational temperatures (Kelvin)      0.03532     0.01975     0.01433
 Rotational constants (GHZ):           0.73593     0.41147     0.29863
 Zero-point vibrational energy     794384.7 (Joules/Mol)
                                  189.86249 (Kcal/Mol)
 Warning -- explicit consideration of  30 degrees of freedom as
           vibrations may cause significant error
 Vibrational temperatures:     74.28    98.80   116.56   228.14   231.30
          (Kelvin)            263.41   337.05   366.80   369.00   381.46
                              397.14   424.33   427.01   428.34   441.00
                              451.24   459.01   462.24   520.72   541.45
                              571.00   576.07   618.09   628.34   649.73
                              688.65   754.72   799.97   890.89   891.32
                              953.98  1086.46  1118.47  1156.59  1162.87
                             1176.01  1204.34  1276.52  1311.62  1312.65
                             1330.10  1335.02  1365.82  1367.14  1397.04
                             1489.66  1493.95  1504.57  1506.52  1576.70
                             1663.55  1725.48  1733.87  1735.77  1741.58
                             1782.98  1791.12  1803.08  1827.34  1913.88
                             1931.26  1931.90  1947.25  1959.23  1986.56
                             1994.20  2015.08  2053.98  2092.50  2092.63
                             2119.91  2132.64  2132.96  2134.51  2136.31
                             2146.97  2147.66  2171.98  2174.72  2196.04
                             2199.83  2292.67  4215.72  4216.94  4225.98
                             4230.34  4282.69  4284.41  4346.38  4346.76
                             4346.87  4347.71  4374.38  4375.16  4415.22
                             4415.35  4431.32  4431.92  4433.88  4436.27
                             4499.08  4505.21

 Zero-point correction=                           0.302565 (Hartree/Particle)
 Thermal correction to Energy=                    0.319382
 Thermal correction to Enthalpy=                  0.320327
 Thermal correction to Gibbs Free Energy=         0.260533
 Sum of electronic and zero-point Energies=           -695.829885
 Sum of electronic and thermal Energies=              -695.813068
 Sum of electronic and thermal Enthalpies=            -695.812123
 Sum of electronic and thermal Free Energies=         -695.871917

                     E (Thermal)             CV                S
                      KCal/Mol        Cal/Mol-Kelvin    Cal/Mol-Kelvin
 Total                  200.415             67.651            125.847
 Electronic               0.000              0.000              0.000
 Translational            0.889              2.981             42.070
 Rotational               0.889              2.981             32.541
 Vibrational            198.638             61.689             51.236
 Vibration     1          0.596              1.977              4.754
 Vibration     2          0.598              1.969              4.191
 Vibration     3          0.600              1.962              3.866
 Vibration     4          0.621              1.893              2.567
 Vibration     5          0.622              1.890              2.541
 Vibration     6          0.631              1.863              2.297
 Vibration     7          0.654              1.788              1.846
 Vibration     8          0.665              1.754              1.696
 Vibration     9          0.666              1.752              1.686
 Vibration    10          0.671              1.737              1.628
 Vibration    11          0.678              1.718              1.558
 Vibration    12          0.689              1.683              1.446
 Vibration    13          0.690              1.680              1.435
 Vibration    14          0.691              1.678              1.430
 Vibration    15          0.697              1.661              1.381
 Vibration    16          0.701              1.648              1.343
 Vibration    17          0.705              1.637              1.315
 Vibration    18          0.707              1.633              1.304
 Vibration    19          0.736              1.551              1.114
 Vibration    20          0.747              1.521              1.054
 Vibration    21          0.763              1.477              0.974
 Vibration    22          0.766              1.469              0.961
 Vibration    23          0.791              1.406              0.860
 Vibration    24          0.797              1.390              0.837
 Vibration    25          0.810              1.357              0.791
 Vibration    26          0.835              1.297              0.714
 Vibration    27          0.880              1.196              0.599
 Vibration    28          0.911              1.127              0.532
 Vibration    29          0.979              0.991              0.418
 Vibration    30          0.979              0.991              0.417

 Optimization completed.
    -- Stationary point found.
 Normal termination of Gaussian 16 at Sat Jan  6 09:25:00 2024.
