 Q-Chem 5.4, Q-Chem, Inc., Pleasanton, CA (2021)
 Q-Chem 5.4.0 for Intel X86 EM64T Linux

User input:
--------------------------------------------------------------
$molecule
-2 1
C                  2.5842200000     -0.3311650000     -1.9365100000
C                  2.5623050000     -0.0064890000     -0.4216610000
C                  2.7643800000      1.5177780000     -0.2308500000
C                  3.7689860000     -0.7183380000      0.2222740000
C                  1.2021070000     -0.4295560000      0.1809620000
C                  1.1422190000     -1.3780370000      1.2165520000
C                 -0.0647440000     -1.8272500000      1.8321660000
O                 -0.0959700000     -2.7089720000      2.7924870000
C                 -1.2340210000     -1.2130910000      1.2907320000
C                 -1.2265730000     -0.2609640000      0.2567730000
C                  0.0061980000      0.1754250000     -0.3484110000
O                  0.0379270000      1.0702280000     -1.3217970000
C                 -2.5501690000      0.3483910000     -0.2620500000
C                 -2.7105940000      0.0364000000     -1.7712040000
C                 -3.8011950000     -0.1928660000      0.4586440000
C                 -2.5279570000      1.8851130000     -0.0655840000
H                  3.5184400000      0.0227930000     -2.4040430000
H                  2.5153550000     -1.4149950000     -2.0884570000
H                  1.7259190000      0.1525610000     -2.4086650000
H                  1.9094690000      2.0394230000     -0.6675200000
H                  3.6969020000      1.8571980000     -0.7123700000
H                  2.8248470000      1.7569040000      0.8376350000
H                  3.7115750000     -1.8044040000      0.0986830000
H                  3.8378170000     -0.5088810000      1.2944100000
H                  4.6956660000     -0.3683060000     -0.2548240000
H                  2.0518000000     -1.8269570000      1.6071840000
H                 -2.1708220000     -1.5339420000      1.7389500000
H                 -3.6141590000      0.5179680000     -2.1814550000
H                 -2.8015570000     -1.0458990000     -1.9224900000
H                 -1.8246140000      0.3990600000     -2.2976490000
H                 -3.7738600000      0.0197790000      1.5320080000
H                 -4.6985160000      0.2835810000      0.0383110000
H                 -3.9019400000     -1.2759480000      0.3367230000
H                 -3.4335030000      2.3517290000     -0.4885780000
H                 -2.4871330000      2.1255600000      1.0035350000
H                 -1.6388010000      2.2861680000     -0.5577080000
$end
$rem
MAX_SCF_CYCLES=200
BASIS  =  6-311++G(d,p)
GUI  =  2
JOB_TYPE  =  SP
METHOD  =  B3LYP
SOLVENT_METHOD = PCM
$end
$pcm
theory = CPCM
$end
$solvent
dielectric 37.219
opticaldielectric 1.43
$end

--------------------------------------------------------------

             Standard Nuclear Orientation (Angstroms)
    I     Atom           X                Y                Z
 ----------------------------------------------------------------
    1      C       2.5842200000    -0.3311650000    -1.9365100000
    2      C       2.5623050000    -0.0064890000    -0.4216610000
    3      C       2.7643800000     1.5177780000    -0.2308500000
    4      C       3.7689860000    -0.7183380000     0.2222740000
    5      C       1.2021070000    -0.4295560000     0.1809620000
    6      C       1.1422190000    -1.3780370000     1.2165520000
    7      C      -0.0647440000    -1.8272500000     1.8321660000
    8      O      -0.0959700000    -2.7089720000     2.7924870000
    9      C      -1.2340210000    -1.2130910000     1.2907320000
   10      C      -1.2265730000    -0.2609640000     0.2567730000
   11      C       0.0061980000     0.1754250000    -0.3484110000
   12      O       0.0379270000     1.0702280000    -1.3217970000
   13      C      -2.5501690000     0.3483910000    -0.2620500000
   14      C      -2.7105940000     0.0364000000    -1.7712040000
   15      C      -3.8011950000    -0.1928660000     0.4586440000
   16      C      -2.5279570000     1.8851130000    -0.0655840000
   17      H       3.5184400000     0.0227930000    -2.4040430000
   18      H       2.5153550000    -1.4149950000    -2.0884570000
   19      H       1.7259190000     0.1525610000    -2.4086650000
   20      H       1.9094690000     2.0394230000    -0.6675200000
   21      H       3.6969020000     1.8571980000    -0.7123700000
   22      H       2.8248470000     1.7569040000     0.8376350000
   23      H       3.7115750000    -1.8044040000     0.0986830000
   24      H       3.8378170000    -0.5088810000     1.2944100000
   25      H       4.6956660000    -0.3683060000    -0.2548240000
   26      H       2.0518000000    -1.8269570000     1.6071840000
   27      H      -2.1708220000    -1.5339420000     1.7389500000
   28      H      -3.6141590000     0.5179680000    -2.1814550000
   29      H      -2.8015570000    -1.0458990000    -1.9224900000
   30      H      -1.8246140000     0.3990600000    -2.2976490000
   31      H      -3.7738600000     0.0197790000     1.5320080000
   32      H      -4.6985160000     0.2835810000     0.0383110000
   33      H      -3.9019400000    -1.2759480000     0.3367230000
   34      H      -3.4335030000     2.3517290000    -0.4885780000
   35      H      -2.4871330000     2.1255600000     1.0035350000
   36      H      -1.6388010000     2.2861680000    -0.5577080000
 ----------------------------------------------------------------

    9    -696.4064862906      4.91e-06  Convergence criterion met
 Total energy in the final basis set =     -696.4064862906

                    Orbital Energies (a.u.)
 --------------------------------------------------------------

 Alpha MOs
 -- Occupied --
-19.0117 -18.9974 -10.1591 -10.1578 -10.1578 -10.1562 -10.1360 -10.1360
-10.1282 -10.1282 -10.1282 -10.1281 -10.1236 -10.1235 -10.1098 -10.1098
 -0.9199  -0.9081  -0.7962  -0.7928  -0.7487  -0.6795  -0.6615  -0.6614
 -0.6569  -0.6564  -0.6341  -0.5701  -0.5441  -0.4940  -0.4879  -0.4376
 -0.4355  -0.4238  -0.4130  -0.4120  -0.4117  -0.4071  -0.3901  -0.3798
 -0.3658  -0.3603  -0.3553  -0.3542  -0.3449  -0.3410  -0.3330  -0.3323
 -0.3215  -0.3060  -0.3055  -0.3017  -0.3002  -0.2897  -0.2870  -0.2843
 -0.2131  -0.1989  -0.1917  -0.1738  -0.1118

          Ground-State Mulliken Net Atomic Charges

     Atom                 Charge (a.u.)
  ----------------------------------------
      1 C                    -0.698078
      2 C                     0.838271
      3 C                    -0.696862
      4 C                    -0.506988
      5 C                     0.396631
      6 C                    -0.370460
      7 C                    -0.608590
      8 O                    -0.784732
      9 C                    -0.370709
     10 C                     0.392910
     11 C                    -0.654219
     12 O                    -0.666219
     13 C                     0.837835
     14 C                    -0.697652
     15 C                    -0.507698
     16 C                    -0.698913
     17 H                     0.134726
     18 H                     0.125255
     19 H                     0.163624
     20 H                     0.163793
     21 H                     0.134819
     22 H                     0.124746
     23 H                     0.126845
     24 H                     0.126801
     25 H                     0.161506
     26 H                     0.135760
     27 H                     0.136113
     28 H                     0.134733
     29 H                     0.125067
     30 H                     0.163493
     31 H                     0.126795
     32 H                     0.161538
     33 H                     0.126844
     34 H                     0.134895
     35 H                     0.124817
     36 H                     0.163303
  ----------------------------------------
  Sum of atomic charges =    -2.000000

                    Cartesian Multipole Moments
 -----------------------------------------------------------------
    Charge (ESU x 10^10)
                -9.6064
    Dipole Moment (Debye)
         X       0.2966      Y       8.4206      Z      -7.6508
       Tot      11.3811
    Quadrupole Moments (Debye-Ang)
        XX    -120.5699     XY      -0.8119     YY    -149.8805
        XZ       1.5254     YZ      37.4626     ZZ    -153.8024

 Total job time:  65.70s(wall), 471.59s(cpu)
        *  Thank you very much for using Q-Chem.  Have a nice day.  *
