 Q-Chem 5.4, Q-Chem, Inc., Pleasanton, CA (2021)
 Q-Chem 5.4.0 for Intel X86 EM64T Linux

User input:
--------------------------------------------------------------
$molecule
0 1
C                  4.1848950000      1.5888670000      0.2560090000
C                  3.2239290000      0.5106690000      0.6572640000
O                  2.8397170000      0.2564260000      1.7626580000
O                  2.8231790000     -0.2036950000     -0.4567920000
C                  1.7843850000     -1.1070390000     -0.3283390000
C                  2.1230560000     -2.4532910000     -0.4046070000
C                  1.1340000000     -3.4295310000     -0.3555400000
C                 -0.1982760000     -3.0573990000     -0.2303710000
C                 -0.5462040000     -1.7082720000     -0.1612180000
C                 -2.0014990000     -1.3787060000     -0.0423000000
O                 -2.8413980000     -2.2617520000      0.0161260000
C                 -2.3849260000      0.0565460000     -0.0048490000
C                 -3.7368490000      0.4014120000      0.0949260000
C                 -4.1137920000      1.7378820000      0.1278620000
C                 -3.1419130000      2.7407740000      0.0623370000
C                 -1.7971480000      2.4052780000     -0.0352960000
C                 -1.4079560000      1.0620740000     -0.0706000000
C                  0.0491830000      0.7418120000     -0.1673670000
O                  0.8678580000      1.6461950000     -0.2138690000
C                  0.4421380000     -0.6987450000     -0.2103660000
H                  4.9214550000      1.2089880000     -0.4535940000
H                  4.6742670000      1.9889310000      1.1416030000
H                  3.6150050000      2.3788330000     -0.2393440000
H                  3.1696420000     -2.7148030000     -0.5014460000
H                  1.4061230000     -4.4770400000     -0.4118650000
H                 -0.9898590000     -3.7942010000     -0.1872290000
H                 -4.4703060000     -0.3936670000      0.1449850000
H                 -5.1620990000      2.0028150000      0.2052750000
H                 -3.4371140000      3.7835450000      0.0893190000
H                 -1.0294940000      3.1670920000     -0.0833710000
$end
$rem
MAX_SCF_CYCLES=200
BASIS  =  6-311++G(d,p)
GUI  =  2
JOB_TYPE  =  SP
METHOD  =  B3LYP
SOLVENT_METHOD = PCM
$end
$pcm
theory = CPCM
$end
$solvent
dielectric 37.219
opticaldielectric 1.43
$end

--------------------------------------------------------------

             Standard Nuclear Orientation (Angstroms)
    I     Atom           X                Y                Z
 ----------------------------------------------------------------
    1      C       4.1848950000     1.5888670000     0.2560090000
    2      C       3.2239290000     0.5106690000     0.6572640000
    3      O       2.8397170000     0.2564260000     1.7626580000
    4      O       2.8231790000    -0.2036950000    -0.4567920000
    5      C       1.7843850000    -1.1070390000    -0.3283390000
    6      C       2.1230560000    -2.4532910000    -0.4046070000
    7      C       1.1340000000    -3.4295310000    -0.3555400000
    8      C      -0.1982760000    -3.0573990000    -0.2303710000
    9      C      -0.5462040000    -1.7082720000    -0.1612180000
   10      C      -2.0014990000    -1.3787060000    -0.0423000000
   11      O      -2.8413980000    -2.2617520000     0.0161260000
   12      C      -2.3849260000     0.0565460000    -0.0048490000
   13      C      -3.7368490000     0.4014120000     0.0949260000
   14      C      -4.1137920000     1.7378820000     0.1278620000
   15      C      -3.1419130000     2.7407740000     0.0623370000
   16      C      -1.7971480000     2.4052780000    -0.0352960000
   17      C      -1.4079560000     1.0620740000    -0.0706000000
   18      C       0.0491830000     0.7418120000    -0.1673670000
   19      O       0.8678580000     1.6461950000    -0.2138690000
   20      C       0.4421380000    -0.6987450000    -0.2103660000
   21      H       4.9214550000     1.2089880000    -0.4535940000
   22      H       4.6742670000     1.9889310000     1.1416030000
   23      H       3.6150050000     2.3788330000    -0.2393440000
   24      H       3.1696420000    -2.7148030000    -0.5014460000
   25      H       1.4061230000    -4.4770400000    -0.4118650000
   26      H      -0.9898590000    -3.7942010000    -0.1872290000
   27      H      -4.4703060000    -0.3936670000     0.1449850000
   28      H      -5.1620990000     2.0028150000     0.2052750000
   29      H      -3.4371140000     3.7835450000     0.0893190000
   30      H      -1.0294940000     3.1670920000    -0.0833710000
 ----------------------------------------------------------------

    9    -916.9101277367      4.26e-06  Convergence criterion met
 Total energy in the final basis set =     -916.9101277367

                    Orbital Energies (a.u.)
 --------------------------------------------------------------

 Alpha MOs
 -- Occupied --
-19.1888 -19.1355 -19.1341 -19.1340 -10.3260 -10.2899 -10.2862 -10.2687
-10.2201 -10.2156 -10.2097 -10.2086 -10.2034 -10.2019 -10.1990 -10.1978
-10.1975 -10.1970 -10.1968 -10.1805  -1.1334  -1.0710  -1.0690  -1.0534
 -0.8981  -0.8848  -0.8169  -0.7969  -0.7787  -0.7747  -0.7531  -0.6960
 -0.6748  -0.6544  -0.6429  -0.6043  -0.5731  -0.5663  -0.5520  -0.5140
 -0.5076  -0.5047  -0.5016  -0.4886  -0.4853  -0.4745  -0.4605  -0.4580
 -0.4510  -0.4483  -0.4420  -0.4286  -0.4214  -0.4147  -0.4053  -0.3938
 -0.3907  -0.3867  -0.3791  -0.3709  -0.3683  -0.3433  -0.3069  -0.2940
 -0.2914  -0.2793  -0.2792  -0.2778  -0.2733

          Ground-State Mulliken Net Atomic Charges

     Atom                 Charge (a.u.)
  ----------------------------------------
      1 C                    -0.503147
      2 C                     0.056613
      3 O                    -0.277167
      4 O                    -0.007219
      5 C                     0.049821
      6 C                     0.131004
      7 C                    -0.463066
      8 C                     0.055709
      9 C                     0.540589
     10 C                    -0.590495
     11 O                    -0.280041
     12 C                    -0.120715
     13 C                     0.048406
     14 C                    -0.480286
     15 C                    -0.402624
     16 C                     0.167037
     17 C                     0.040669
     18 C                    -0.331854
     19 O                    -0.264149
     20 C                     0.525502
     21 H                     0.195099
     22 H                     0.182456
     23 H                     0.206394
     24 H                     0.240982
     25 H                     0.241369
     26 H                     0.199366
     27 H                     0.194989
     28 H                     0.223860
     29 H                     0.227483
     30 H                     0.193415
  ----------------------------------------
  Sum of atomic charges =     0.000000

                    Cartesian Multipole Moments
 -----------------------------------------------------------------
    Charge (ESU x 10^10)
                -0.0000
    Dipole Moment (Debye)
         X       0.3479      Y       0.7605      Z      -2.2711
       Tot       2.4201
    Quadrupole Moments (Debye-Ang)
        XX     -95.3010     XY     -17.8484     YY     -98.2867
        XZ      -6.1922     YZ       2.2860     ZZ    -123.3722

 Total job time:  147.35s(wall), 473.38s(cpu)
        *  Thank you very much for using Q-Chem.  Have a nice day.  *
