 Q-Chem 5.4, Q-Chem, Inc., Pleasanton, CA (2021)
 Q-Chem 5.4.0 for Intel X86 EM64T Linux

User input:
--------------------------------------------------------------
$molecule
-1 2
C                 -1.8396950000      1.9160740000     -5.1437300000
C                 -1.7480750000      0.6001200000     -5.5504170000
C                 -1.3240830000     -0.3904920000     -4.6371730000
C                 -1.5147440000      2.2955510000     -3.8222270000
C                 -1.0916460000      1.3015430000     -2.9053700000
C                 -1.0034910000     -0.0395750000     -3.3411020000
C                 -1.6146750000      3.6987880000     -3.4334620000
C                 -0.7578940000      1.6304950000     -1.5234770000
C                 -1.2496000000      4.0463960000     -2.0639820000
C                 -0.8689620000      3.0222160000     -1.1145020000
C                 -1.2948210000      5.4141170000     -1.6406370000
C                 -1.0057700000      5.7230710000     -0.3150780000
C                 -0.6690180000      4.7394430000      0.6164920000
C                 -0.5923780000      3.3922950000      0.2501100000
O                 -2.0151090000      4.5510630000     -4.2866450000
O                 -0.3865950000      0.6966000000     -0.7394400000
N                 -1.5660360000      6.4514510000     -2.5387620000
N                 -0.2768020000      2.4250900000      1.1810640000
C                  0.2233820000      2.7290130000      2.4917320000
H                 -2.1601880000      2.6981960000     -5.8215670000
H                 -2.0002220000      0.3257280000     -6.5706500000
H                 -1.2513000000     -1.4264950000     -4.9552700000
H                 -0.6777050000     -0.7776920000     -2.6180380000
H                 -1.0296810000      6.7649520000     -0.0051780000
H                 -0.4624120000      5.0326840000      1.6385410000
H                 -1.9558260000      6.1050130000     -3.4168800000
H                 -2.0320620000      7.2472980000     -2.1282490000
H                 -0.1496660000      1.4993270000      0.7646770000
H                 -0.5244910000      3.2383020000      3.1182710000
H                  1.1216720000      3.3698880000      2.4743390000
H                  0.4860410000      1.7931090000      2.9900890000
$end
$rem
MAX_SCF_CYCLES=200
BASIS  =  6-311++G(d,p)
GUI  =  2
JOB_TYPE  =  SP
METHOD  =  B3LYP
SOLVENT_METHOD = PCM
$end
$pcm
theory = CPCM
$end
$solvent
dielectric 37.219
opticaldielectric 1.43
$end

--------------------------------------------------------------

             Standard Nuclear Orientation (Angstroms)
    I     Atom           X                Y                Z
 ----------------------------------------------------------------
    1      C      -1.8396950000     1.9160740000    -5.1437300000
    2      C      -1.7480750000     0.6001200000    -5.5504170000
    3      C      -1.3240830000    -0.3904920000    -4.6371730000
    4      C      -1.5147440000     2.2955510000    -3.8222270000
    5      C      -1.0916460000     1.3015430000    -2.9053700000
    6      C      -1.0034910000    -0.0395750000    -3.3411020000
    7      C      -1.6146750000     3.6987880000    -3.4334620000
    8      C      -0.7578940000     1.6304950000    -1.5234770000
    9      C      -1.2496000000     4.0463960000    -2.0639820000
   10      C      -0.8689620000     3.0222160000    -1.1145020000
   11      C      -1.2948210000     5.4141170000    -1.6406370000
   12      C      -1.0057700000     5.7230710000    -0.3150780000
   13      C      -0.6690180000     4.7394430000     0.6164920000
   14      C      -0.5923780000     3.3922950000     0.2501100000
   15      O      -2.0151090000     4.5510630000    -4.2866450000
   16      O      -0.3865950000     0.6966000000    -0.7394400000
   17      N      -1.5660360000     6.4514510000    -2.5387620000
   18      N      -0.2768020000     2.4250900000     1.1810640000
   19      C       0.2233820000     2.7290130000     2.4917320000
   20      H      -2.1601880000     2.6981960000    -5.8215670000
   21      H      -2.0002220000     0.3257280000    -6.5706500000
   22      H      -1.2513000000    -1.4264950000    -4.9552700000
   23      H      -0.6777050000    -0.7776920000    -2.6180380000
   24      H      -1.0296810000     6.7649520000    -0.0051780000
   25      H      -0.4624120000     5.0326840000     1.6385410000
   26      H      -1.9558260000     6.1050130000    -3.4168800000
   27      H      -2.0320620000     7.2472980000    -2.1282490000
   28      H      -0.1496660000     1.4993270000     0.7646770000
   29      H      -0.5244910000     3.2383020000     3.1182710000
   30      H       1.1216720000     3.3698880000     2.4743390000
   31      H       0.4860410000     1.7931090000     2.9900890000
 ----------------------------------------------------------------

    8    -839.1703341172      6.57e-06  Convergence criterion met
 Total energy in the final basis set =     -839.1703341172

                    Orbital Energies (a.u.)
 --------------------------------------------------------------

 Alpha MOs
 -- Occupied --
-19.0728 -19.0726 -14.3041 -14.2953 -10.2230 -10.2225 -10.2057 -10.2028
-10.1873 -10.1701 -10.1698 -10.1696 -10.1692 -10.1686 -10.1680 -10.1669
-10.1668 -10.1610 -10.1597  -1.0013  -0.9986  -0.9226  -0.9012  -0.8554
 -0.8226  -0.7784  -0.7479  -0.7372  -0.7270  -0.6742  -0.6603  -0.6294
 -0.6177  -0.5766  -0.5606  -0.5384  -0.5200  -0.5060  -0.4866  -0.4730
 -0.4609  -0.4578  -0.4467  -0.4357  -0.4297  -0.4209  -0.4165  -0.4117
 -0.4082  -0.3904  -0.3822  -0.3789  -0.3734  -0.3701  -0.3632  -0.3449
 -0.3415  -0.3340  -0.3212  -0.2686  -0.2549  -0.2542  -0.2445  -0.2436
 -0.2338  -0.1861  -0.1322

 Beta MOs
 -- Occupied --
-19.0687 -19.0683 -14.3032 -14.2945 -10.2212 -10.2208 -10.2053 -10.2021
-10.1874 -10.1699 -10.1696 -10.1693 -10.1691 -10.1678 -10.1674 -10.1668
-10.1667 -10.1598 -10.1583  -0.9940  -0.9911  -0.9207  -0.8993  -0.8534
 -0.8208  -0.7746  -0.7460  -0.7355  -0.7251  -0.6718  -0.6545  -0.6275
 -0.6158  -0.5754  -0.5588  -0.5362  -0.5187  -0.5050  -0.4852  -0.4703
 -0.4599  -0.4567  -0.4453  -0.4328  -0.4284  -0.4205  -0.4086  -0.4073
 -0.4064  -0.3888  -0.3793  -0.3735  -0.3672  -0.3622  -0.3606  -0.3435
 -0.3332  -0.3305  -0.3138  -0.2565  -0.2482  -0.2436  -0.2405  -0.2400
 -0.2300  -0.1739

          Ground-State Mulliken Net Atomic Charges

     Atom                 Charge (a.u.)    Spin (a.u.)
  --------------------------------------------------------
      1 C                     0.057611       0.025357
      2 C                    -0.612816       0.030150
      3 C                    -0.589856       0.037689
      4 C                     0.086861       0.029943
      5 C                     0.139052       0.032550
      6 C                    -0.016148       0.019135
      7 C                    -0.369908       0.102593
      8 C                    -0.174408       0.099481
      9 C                     0.669039      -0.006155
     10 C                     0.249560      -0.012312
     11 C                    -0.015023       0.055626
     12 C                    -0.447508       0.091269
     13 C                    -0.194616       0.102872
     14 C                    -0.228314       0.033745
     15 O                    -0.488407       0.160149
     16 O                    -0.500083       0.152310
     17 N                    -0.462670       0.032962
     18 N                    -0.291927       0.037827
     19 C                    -0.395781      -0.002755
     20 H                     0.176454      -0.000881
     21 H                     0.192803      -0.002653
     22 H                     0.194518      -0.003042
     23 H                     0.171064      -0.000651
     24 H                     0.195395      -0.007138
     25 H                     0.197311      -0.007478
     26 H                     0.313399      -0.002855
     27 H                     0.271174      -0.001082
     28 H                     0.396860      -0.003503
     29 H                     0.153483       0.002580
     30 H                     0.158640       0.004196
     31 H                     0.164240       0.000074
  --------------------------------------------------------
  Sum of atomic charges =    -1.000000

                    Cartesian Multipole Moments
 -----------------------------------------------------------------
    Charge (ESU x 10^10)
                -4.8032
    Dipole Moment (Debye)
         X       5.2853      Y     -12.9035      Z      13.4354
       Tot      19.3635
    Quadrupole Moments (Debye-Ang)
        XX    -126.0960     XY      13.8916     YY    -159.6114
        XZ     -15.4166     YZ      52.6235     ZZ    -154.8449

 Total job time:  97.10s(wall), 461.35s(cpu)
        *  Thank you very much for using Q-Chem.  Have a nice day.  *
