 Gaussian 16, Revision A.03,
 Gaussian 16:  ES64L-G16RevA.03 25-Dec-2016

 ----------------------------------------------------------------------
 #P UB3LYP/6-311++G(d,p) nosym opt freq SCRF=(PCM,Solvent=n,n-DiMethylF
 ormamide)
 ----------------------------------------------------------------------

 -------
 Reduced
 -------
 Symbolic Z-matrix:
 Charge = -2 Multiplicity = 1

 SCF Done:  E(UB3LYP) =  -883.327357999     A.U. after   18 cycles
 SCF Done:  E(UB3LYP) =  -883.332226097     A.U. after   15 cycles
 SCF Done:  E(UB3LYP) =  -883.333165682     A.U. after   14 cycles
 SCF Done:  E(UB3LYP) =  -883.333452193     A.U. after   14 cycles
 SCF Done:  E(UB3LYP) =  -883.333660030     A.U. after   13 cycles
 SCF Done:  E(UB3LYP) =  -883.333693590     A.U. after   13 cycles
 SCF Done:  E(UB3LYP) =  -883.333702313     A.U. after   12 cycles
 SCF Done:  E(UB3LYP) =  -883.333705655     A.U. after   12 cycles
 SCF Done:  E(UB3LYP) =  -883.333707023     A.U. after   12 cycles
 SCF Done:  E(UB3LYP) =  -883.333707638     A.U. after   11 cycles
 SCF Done:  E(UB3LYP) =  -883.333708099     A.U. after   11 cycles
 SCF Done:  E(UB3LYP) =  -883.333708230     A.U. after   11 cycles
 Optimization completed.
    -- Stationary point found.
 Normal termination of Gaussian 16 at Sat Feb 10 15:32:03 2024.

 ----------------------------------------------------------------------
 #P Geom=AllCheck Guess=TCheck SCRF=Check GenChk UB3LYP/6-311++G(d,p) F
 req
 ----------------------------------------------------------------------

 Structure from the checkpoint file:  "113-an.chk"
 -------
 Reduced
 -------
 Charge = -2 Multiplicity = 1

                          Input orientation:
 ---------------------------------------------------------------------
 Center     Atomic      Atomic             Coordinates (Angstroms)
 Number     Number       Type             X           Y           Z
 ---------------------------------------------------------------------
      1          8           0        1.150768    0.917589    2.266874
      2          6           0        0.616967    0.584433    1.106635
      3          6           0       -0.786474    0.586731    0.893553
      4          6           0       -1.432289    0.301091   -0.324897
      5          7           0       -2.864719    0.363074   -0.446666
      6          6           0       -3.610156    1.336315    0.369714
      7          6           0       -4.481677    0.680637    1.449474
      8          6           0       -5.537230   -0.246923    0.805020
      9          6           0       -5.019864   -0.844584   -0.525345
     10          6           0       -3.495326   -0.962503   -0.523198
     11          6           0       -0.663130   -0.089103   -1.468128
     12          8           0       -1.185611   -0.385514   -2.643710
     13          6           0        0.742287   -0.142969   -1.241314
     14          6           0        1.388075    0.192208   -0.039054
     15          7           0        2.820023    0.156003    0.075752
     16          6           0        3.612904    0.191081   -1.146930
     17          6           0        5.040015    0.703831   -0.838943
     18          6           0        5.471538    0.359163    0.600768
     19          6           0        4.842878   -0.969240    1.028361
     20          6           0        3.300190   -0.885815    1.000878
     21          1           0       -1.391521    0.867828    1.752839
     22          1           0       -4.266888    1.933115   -0.283157
     23          1           0       -2.905546    2.038384    0.815826
     24          1           0       -4.966770    1.451999    2.056718
     25          1           0       -3.839834    0.106124    2.125059
     26          1           0       -5.793133   -1.050997    1.502845
     27          1           0       -6.462069    0.309720    0.621256
     28          1           0       -5.465769   -1.827778   -0.703419
     29          1           0       -5.318872   -0.208320   -1.365877
     30          1           0       -3.133115   -1.451247   -1.430572
     31          1           0       -3.188107   -1.598796    0.329893
     32          1           0        1.343380   -0.449415   -2.093269
     33          1           0        3.667640   -0.803139   -1.631562
     34          1           0        3.128047    0.854940   -1.863959
     35          1           0        5.738780    0.260433   -1.557571
     36          1           0        5.083024    1.787765   -0.985649
     37          1           0        5.145801    1.148411    1.284869
     38          1           0        6.562966    0.312046    0.670062
     39          1           0        5.176957   -1.258467    2.029623
     40          1           0        5.189203   -1.756252    0.348284
     41          1           0        2.889031   -1.871212    0.709930
     42          1           0        2.897627   -0.640649    1.985013
 ---------------------------------------------------------------------

 SCF Done:  E(UB3LYP) =  -883.333708230     A.U. after    2 cycles

 Alpha  occ. eigenvalues --  -19.00279 -19.00254 -14.28323 -14.27614 -10.17414
 Alpha  occ. eigenvalues --  -10.17303 -10.16799 -10.16727 -10.15577 -10.15512
 Alpha  occ. eigenvalues --  -10.15473 -10.15305 -10.15258 -10.15246 -10.15242
 Alpha  occ. eigenvalues --  -10.15222 -10.14592 -10.14262 -10.11019 -10.10931
 Alpha  occ. eigenvalues --   -0.91787  -0.91049  -0.89323  -0.88873  -0.78630
 Alpha  occ. eigenvalues --   -0.77952  -0.74817  -0.73397  -0.73284  -0.68265
 Alpha  occ. eigenvalues --   -0.64646  -0.63409  -0.61657  -0.61054  -0.59987
 Alpha  occ. eigenvalues --   -0.55348  -0.53157  -0.51731  -0.50728  -0.47974
 Alpha  occ. eigenvalues --   -0.47634  -0.47265  -0.45518  -0.44255  -0.42209
 Alpha  occ. eigenvalues --   -0.41639  -0.40650  -0.40441  -0.39311  -0.38860
 Alpha  occ. eigenvalues --   -0.38580  -0.37837  -0.37253  -0.36762  -0.35785
 Alpha  occ. eigenvalues --   -0.35088  -0.34650  -0.34070  -0.33912  -0.33478
 Alpha  occ. eigenvalues --   -0.32089  -0.31998  -0.30789  -0.30558  -0.30307
 Alpha  occ. eigenvalues --   -0.30009  -0.29889  -0.29066  -0.22964  -0.21534
 Alpha  occ. eigenvalues --   -0.18923  -0.18407  -0.18173  -0.16318  -0.10638
 Alpha virt. eigenvalues --   -0.00221   0.00171   0.01219   0.01250   0.01731
 Alpha virt. eigenvalues --    0.01931   0.01990   0.03088   0.03324   0.03720
 Alpha virt. eigenvalues --    0.03859   0.04118   0.04281   0.04724   0.05050

  Beta  occ. eigenvalues --  -19.00279 -19.00254 -14.28323 -14.27614 -10.17414
  Beta  occ. eigenvalues --  -10.17303 -10.16799 -10.16727 -10.15577 -10.15512
  Beta  occ. eigenvalues --  -10.15473 -10.15305 -10.15258 -10.15246 -10.15242
  Beta  occ. eigenvalues --  -10.15222 -10.14592 -10.14262 -10.11019 -10.10931
  Beta  occ. eigenvalues --   -0.91787  -0.91049  -0.89323  -0.88873  -0.78630
  Beta  occ. eigenvalues --   -0.77952  -0.74817  -0.73397  -0.73284  -0.68265
  Beta  occ. eigenvalues --   -0.64646  -0.63409  -0.61657  -0.61054  -0.59987
  Beta  occ. eigenvalues --   -0.55348  -0.53157  -0.51731  -0.50728  -0.47974
  Beta  occ. eigenvalues --   -0.47634  -0.47265  -0.45518  -0.44255  -0.42209
  Beta  occ. eigenvalues --   -0.41639  -0.40650  -0.40441  -0.39311  -0.38860
  Beta  occ. eigenvalues --   -0.38580  -0.37837  -0.37253  -0.36762  -0.35785
  Beta  occ. eigenvalues --   -0.35088  -0.34650  -0.34070  -0.33912  -0.33478
  Beta  occ. eigenvalues --   -0.32089  -0.31998  -0.30789  -0.30558  -0.30307
  Beta  occ. eigenvalues --   -0.30009  -0.29889  -0.29066  -0.22964  -0.21534
  Beta  occ. eigenvalues --   -0.18923  -0.18407  -0.18173  -0.16318  -0.10638
  Beta virt. eigenvalues --   -0.00221   0.00171   0.01219   0.01250   0.01731
  Beta virt. eigenvalues --    0.01931   0.01990   0.03088   0.03324   0.03720
  Beta virt. eigenvalues --    0.03859   0.04118   0.04281   0.04724   0.05050

 Mulliken charges and spin densities:
               1          2
     1  O   -0.753319   0.000000
     2  C   -0.398016   0.000000
     3  C    0.015203   0.000000
     4  C   -0.602996  -0.000000
     5  N    0.303092   0.000000
     6  C   -0.166848   0.000000
     7  C   -0.176987  -0.000000
     8  C   -0.476409   0.000000
     9  C   -0.312754   0.000000
    10  C   -0.201130  -0.000000
    11  C   -0.343355  -0.000000
    12  O   -0.765240  -0.000000
    13  C    0.325602  -0.000000
    14  C   -0.558559   0.000000
    15  N    0.337011   0.000000
    16  C   -0.077831  -0.000000
    17  C   -0.487474   0.000000
    18  C   -0.325630  -0.000000
    19  C   -0.356816   0.000000
    20  C   -0.203736  -0.000000
    21  H    0.147442   0.000000
    22  H    0.150143   0.000000
    23  H    0.165121  -0.000000
    24  H    0.158851  -0.000000
    25  H    0.134606   0.000000
    26  H    0.152513  -0.000000
    27  H    0.131742   0.000000
    28  H    0.161040   0.000000
    29  H    0.151945  -0.000000
    30  H    0.190675  -0.000000
    31  H    0.086122  -0.000000
    32  H    0.169153  -0.000000
    33  H    0.109282   0.000000
    34  H    0.152120   0.000000
    35  H    0.135156   0.000000
    36  H    0.143339   0.000000
    37  H    0.137027   0.000000
    38  H    0.165246   0.000000
    39  H    0.155530   0.000000
    40  H    0.140247   0.000000
    41  H    0.096099  -0.000000
    42  H    0.192791  -0.000000
 Sum of Mulliken charges =  -2.00000   0.00000

 Dipole moment (field-independent basis, Debye):
    X=              0.2085    Y=             -3.2252    Z=              2.4794  Tot=              4.0735
 Quadrupole moment (field-independent basis, Debye-Ang):
   XX=           -146.6626   YY=           -137.5731   ZZ=           -183.4827
   XY=             -7.0433   XZ=            -26.1659   YZ=            -12.4026

  Exact polarizability: 404.950  -2.713 266.731  13.537  25.376 341.553
 Approx polarizability: 394.773  -3.829 285.248  19.479  28.908 370.964

                      1                      2                      3
                      A                      A                      A
 Frequencies --     29.3940                40.2922                50.6743
 Red. masses --      4.1140                 3.6270                 3.1042
 Frc consts  --      0.0021                 0.0035                 0.0047
 IR Inten    --     15.8086                 6.8504                 3.4473

                      4                      5                      6
                      A                      A                      A
 Frequencies --     69.2529                79.9232               113.3925
 Red. masses --      3.3769                 3.1568                 3.7587
 Frc consts  --      0.0095                 0.0119                 0.0285
 IR Inten    --      4.0110                 3.1333                 2.3302

                      7                      8                      9
                      A                      A                      A
 Frequencies --    123.0160               146.1736               164.6783
 Red. masses --      2.5315                 2.6133                 4.7503
 Frc consts  --      0.0226                 0.0329                 0.0759
 IR Inten    --     17.9446                 3.6648                15.9750

                     10                     11                     12
                      A                      A                      A
 Frequencies --    205.0103               235.1402               239.0473
 Red. masses --      4.4894                 2.7801                 2.1780
 Frc consts  --      0.1112                 0.0906                 0.0733
 IR Inten    --      2.2288                 5.3403                 4.7597

                     13                     14                     15
                      A                      A                      A
 Frequencies --    243.4674               280.5205               290.8127
 Red. masses --      2.1898                 2.5312                 5.4272
 Frc consts  --      0.0765                 0.1174                 0.2704
 IR Inten    --      5.3963                 1.6397                21.7126

                     16                     17                     18
                      A                      A                      A
 Frequencies --    310.0524               319.3221               375.8017
 Red. masses --      4.6883                 3.0549                 3.5583
 Frc consts  --      0.2655                 0.1835                 0.2961
 IR Inten    --      5.0673                 0.6347                 9.2061

                     19                     20                     21
                      A                      A                      A
 Frequencies --    406.8117               440.7054               468.4605
 Red. masses --      2.5719                 5.9488                 4.6900
 Frc consts  --      0.2508                 0.6807                 0.6064
 IR Inten    --      4.8948                 6.0831                14.5302

                     22                     23                     24
                      A                      A                      A
 Frequencies --    478.9577               487.8570               489.8287
 Red. masses --      5.6391                 4.0994                 3.4905
 Frc consts  --      0.7622                 0.5748                 0.4934
 IR Inten    --      0.0648                 0.6931                14.7687

                     25                     26                     27
                      A                      A                      A
 Frequencies --    499.8602               523.2901               557.6700
 Red. masses --      3.4256                 3.6686                 2.0819
 Frc consts  --      0.5043                 0.5919                 0.3815
 IR Inten    --      8.3407                 0.2537                 5.0307

                     28                     29                     30
                      A                      A                      A
 Frequencies --    607.7022               667.9946               696.0082
 Red. masses --      2.8443                 4.4871                 4.1582
 Frc consts  --      0.6189                 1.1797                 1.1868
 IR Inten    --      3.0476                 3.7078                 5.5343

                     31                     32                     33
                      A                      A                      A
 Frequencies --    719.8467               734.9693               738.2274
 Red. masses --      2.0170                 7.2270                 3.2746
 Frc consts  --      0.6158                 2.3001                 1.0514
 IR Inten    --      7.6527                 1.1974                10.9243

                     34                     35                     36
                      A                      A                      A
 Frequencies --    773.5858               788.9873               812.8930
 Red. masses --      1.3435                 1.3067                 3.9661
 Frc consts  --      0.4737                 0.4793                 1.5441
 IR Inten    --      2.7729                13.5360               100.4585

                     37                     38                     39
                      A                      A                      A
 Frequencies --    819.1247               823.1091               843.0890
 Red. masses --      3.1898                 2.2268                 1.5834
 Frc consts  --      1.2610                 0.8889                 0.6631
 IR Inten    --     35.8667                 8.1518                81.5622

                     40                     41                     42
                      A                      A                      A
 Frequencies --    850.6101               871.1857               878.7712
 Red. masses --      3.1441                 1.6925                 1.8240
 Frc consts  --      1.3403                 0.7568                 0.8299
 IR Inten    --     82.8127                18.3215                17.4246

                     43                     44                     45
                      A                      A                      A
 Frequencies --    891.6139               897.1561               913.4115
 Red. masses --      2.1112                 2.3195                 2.5339
 Frc consts  --      0.9889                 1.1000                 1.2456
 IR Inten    --     21.8368                 2.5494                 4.5987

                     46                     47                     48
                      A                      A                      A
 Frequencies --    940.9298               969.3110               991.9300
 Red. masses --      2.5791                 1.5432                 1.5130
 Frc consts  --      1.3454                 0.8543                 0.8771
 IR Inten    --    108.2956                 6.2648                 1.9052

                     49                     50                     51
                      A                      A                      A
 Frequencies --   1010.7890              1029.0127              1035.5469
 Red. masses --      2.0614                 2.0483                 2.1274
 Frc consts  --      1.2409                 1.2779                 1.3441
 IR Inten    --      1.1865                20.8751                30.6706

                     52                     53                     54
                      A                      A                      A
 Frequencies --   1055.0489              1082.4304              1083.6136
 Red. masses --      1.9731                 1.7702                 1.7836
 Frc consts  --      1.2940                 1.2220                 1.2340
 IR Inten    --     17.9568                16.3612                 2.4532

                     55                     56                     57
                      A                      A                      A
 Frequencies --   1118.7743              1122.6875              1125.9517
 Red. masses --      4.0064                 2.4489                 2.6184
 Frc consts  --      2.9546                 1.8186                 1.9558
 IR Inten    --    126.2101                31.4672                22.1920

                     58                     59                     60
                      A                      A                      A
 Frequencies --   1139.8913              1155.7504              1182.2898
 Red. masses --      2.2234                 1.7597                 1.8963
 Frc consts  --      1.7022                 1.3849                 1.5617
 IR Inten    --    163.4690               294.7096               402.8528

                     61                     62                     63
                      A                      A                      A
 Frequencies --   1191.5382              1204.2716              1215.3112
 Red. masses --      2.3454                 2.2596                 1.7171
 Frc consts  --      1.9619                 1.9308                 1.4942
 IR Inten    --    182.3916                27.5406                76.3354

                     64                     65                     66
                      A                      A                      A
 Frequencies --   1219.9795              1233.3831              1246.6326
 Red. masses --      1.7122                 1.5294                 1.2648
 Frc consts  --      1.5014                 1.3708                 1.1581
 IR Inten    --    149.9914                40.3354                38.0776

                     67                     68                     69
                      A                      A                      A
 Frequencies --   1257.8774              1261.5679              1267.6897
 Red. masses --      1.3412                 2.5024                 1.3578
 Frc consts  --      1.2504                 2.3465                 1.2856
 IR Inten    --     16.1051               507.3007                87.0137

                     70                     71                     72
                      A                      A                      A
 Frequencies --   1284.2109              1292.0583              1298.8294
 Red. masses --      1.2613                 1.2489                 1.9250
 Frc consts  --      1.2255                 1.2284                 1.9133
 IR Inten    --     19.7179                51.5501                 4.2773

                     73                     74                     75
                      A                      A                      A
 Frequencies --   1314.1822              1339.2712              1343.8119
 Red. masses --      1.4791                 1.4850                 2.0910
 Frc consts  --      1.5051                 1.5693                 2.2247
 IR Inten    --     44.8909                 6.6704                 0.8799

                     76                     77                     78
                      A                      A                      A
 Frequencies --   1346.0297              1354.3984              1354.8907
 Red. masses --      1.3327                 1.3698                 1.4316
 Frc consts  --      1.4226                 1.4804                 1.5484
 IR Inten    --     14.3919                13.9774                 0.4116

                     79                     80                     81
                      A                      A                      A
 Frequencies --   1366.7038              1370.4551              1373.7894
 Red. masses --      1.7272                 1.4280                 1.7964
 Frc consts  --      1.9008                 1.5802                 1.9975
 IR Inten    --    195.5227                 1.6272               143.6932

                     82                     83                     84
                      A                      A                      A
 Frequencies --   1380.5350              1387.4059              1393.5174
 Red. masses --      1.3322                 1.8496                 1.5428
 Frc consts  --      1.4959                 2.0976                 1.7652
 IR Inten    --      7.9905               194.0739               115.8572

                     85                     86                     87
                      A                      A                      A
 Frequencies --   1402.6741              1473.1793              1476.3875
 Red. masses --      1.5096                 2.8121                 1.0818
 Frc consts  --      1.7500                 3.5958                 1.3893
 IR Inten    --     79.7305               707.9929                 4.1836

                     88                     89                     90
                      A                      A                      A
 Frequencies --   1479.7213              1483.0409              1489.4423
 Red. masses --      1.1010                 1.0880                 1.1200
 Frc consts  --      1.4204                 1.4099                 1.4640
 IR Inten    --     40.7158                14.1601                 5.1986

                     91                     92                     93
                      A                      A                      A
 Frequencies --   1492.3006              1493.3016              1497.4883
 Red. masses --      1.2258                 1.1059                 3.1795
 Frc consts  --      1.6083                 1.4530                 4.2008
 IR Inten    --     12.6480                 6.1469                11.8153

                     94                     95                     96
                      A                      A                      A
 Frequencies --   1503.2329              1507.6282              1513.2141
 Red. masses --      1.1204                 1.1251                 1.1087
 Frc consts  --      1.4916                 1.5068                 1.4958
 IR Inten    --      3.7416                 4.2954                 2.2339

                     97                     98                     99
                      A                      A                      A
 Frequencies --   1515.9986              1589.7540              2866.8487
 Red. masses --      1.0953                 6.3224                 1.0743
 Frc consts  --      1.4831                 9.4144                 5.2020
 IR Inten    --      4.9036                 0.9502               213.5511

                    100                    101                    102
                      A                      A                      A
 Frequencies --   2870.8354              2879.9761              2931.8423
 Red. masses --      1.0741                 1.0737                 1.0762
 Frc consts  --      5.2158                 5.2471                 5.4505
 IR Inten    --    173.4058               304.4871               180.1126

                    103                    104                    105
                      A                      A                      A
 Frequencies --   3009.1301              3009.8813              3009.9788
 Red. masses --      1.0658                 1.0611                 1.0596
 Frc consts  --      5.6860                 5.6635                 5.6563
 IR Inten    --     86.6425                77.3159                34.4535

                    106                    107                    108
                      A                      A                      A
 Frequencies --   3016.1354              3024.7579              3026.0228
 Red. masses --      1.0637                 1.0654                 1.0627
 Frc consts  --      5.7014                 5.7428                 5.7335
 IR Inten    --    105.8464                74.9558                74.3308

                    109                    110                    111
                      A                      A                      A
 Frequencies --   3036.8077              3041.2335              3044.7664
 Red. masses --      1.1003                 1.0986                 1.0938
 Frc consts  --      5.9786                 5.9865                 5.9745
 IR Inten    --     29.8123                54.1438                66.0934

                    112                    113                    114
                      A                      A                      A
 Frequencies --   3053.2749              3057.1615              3062.9627
 Red. masses --      1.0985                 1.0886                 1.1029
 Frc consts  --      6.0335                 5.9945                 6.0963
 IR Inten    --     51.4919                72.1825               138.8103

                    115                    116                    117
                      A                      A                      A
 Frequencies --   3064.8839              3071.4428              3080.7833
 Red. masses --      1.1043                 1.0893                 1.0872
 Frc consts  --      6.1119                 6.0543                 6.0794
 IR Inten    --    188.3596                71.0336                55.7617

                    118                    119                    120
                      A                      A                      A
 Frequencies --   3089.4889              3126.0508              3138.5421
 Red. masses --      1.0862                 1.0858                 1.0862
 Frc consts  --      6.1085                 6.2516                 6.3040
 IR Inten    --     29.7624               103.8628                53.4099

 - Thermochemistry -
 -------------------
 Temperature   298.150 Kelvin.  Pressure   1.00000 Atm.
 Atom     1 has atomic number  8 and mass  15.99491

 Molecular mass:   274.16813 amu.
 Principal axes and moments of inertia in atomic units:
                           1         2         3
     Eigenvalues --  1937.00827********************
           X            0.99987  -0.01592   0.00157
           Y            0.00190   0.21597   0.97640
           Z            0.01589   0.97627  -0.21597
 This molecule is an asymmetric top.
 Rotational symmetry number  1.
 Warning -- assumption of classical behavior for rotation
           may cause significant error
 Rotational temperatures (Kelvin)      0.04472     0.00721     0.00663
 Rotational constants (GHZ):           0.93172     0.15033     0.13819
 Zero-point vibrational energy     937693.8 (Joules/Mol)
                                  224.11421 (Kcal/Mol)
 Warning -- explicit consideration of  28 degrees of freedom as
           vibrations may cause significant error
 Vibrational temperatures:     42.29    57.97    72.91    99.64   114.99
          (Kelvin)            163.15   176.99   210.31   236.94   294.96
                              338.31   343.94   350.30   403.61   418.41
                              446.10   459.43   540.69   585.31   634.08
                              674.01   689.11   701.92   704.75   719.19
                              752.90   802.36   874.35   961.10  1001.40
                             1035.70  1057.46  1062.14  1113.02  1135.18
                             1169.57  1178.54  1184.27  1213.02  1223.84
                             1253.44  1264.36  1282.83  1290.81  1314.20
                             1353.79  1394.62  1427.17  1454.30  1480.52
                             1489.92  1517.98  1557.38  1559.08  1609.67
                             1615.30  1619.99  1640.05  1662.87  1701.05
                             1714.36  1732.68  1748.56  1755.28  1774.56
                             1793.63  1809.80  1815.11  1823.92  1847.69
                             1858.98  1868.73  1890.82  1926.91  1933.45
                             1936.64  1948.68  1949.39  1966.38  1971.78
                             1976.58  1986.28  1996.17  2004.96  2018.14
                             2119.58  2124.19  2128.99  2133.77  2142.98
                             2147.09  2148.53  2154.55  2162.82  2169.14
                             2177.18  2181.18  2287.30  4124.76  4130.49
                             4143.64  4218.27  4329.47  4330.55  4330.69
                             4339.55  4351.95  4353.77  4369.29  4375.66
                             4380.74  4392.98  4398.57  4406.92  4409.68
                             4419.12  4432.56  4445.09  4497.69  4515.66

 Zero-point correction=                           0.357149 (Hartree/Particle)
 Thermal correction to Energy=                    0.375285
 Thermal correction to Enthalpy=                  0.376229
 Thermal correction to Gibbs Free Energy=         0.310272
 Sum of electronic and zero-point Energies=           -882.976560
 Sum of electronic and thermal Energies=              -882.958424
 Sum of electronic and thermal Enthalpies=            -882.957479
 Sum of electronic and thermal Free Energies=         -883.023437

                     E (Thermal)             CV                S
                      KCal/Mol        Cal/Mol-Kelvin    Cal/Mol-Kelvin
 Total                  235.495             71.814            138.818
 Electronic               0.000              0.000              0.000
 Translational            0.889              2.981             42.724
 Rotational               0.889              2.981             34.073
 Vibrational            233.717             65.852             62.021
 Vibration     1          0.593              1.984              5.870
 Vibration     2          0.594              1.981              5.245
 Vibration     3          0.595              1.977              4.791
 Vibration     4          0.598              1.969              4.174
 Vibration     5          0.600              1.963              3.893
 Vibration     6          0.607              1.938              3.210
 Vibration     7          0.610              1.930              3.052
 Vibration     8          0.617              1.907              2.721
 Vibration     9          0.623              1.886              2.495
 Vibration    10          0.640              1.833              2.088
 Vibration    11          0.655              1.787              1.839
 Vibration    12          0.657              1.781              1.810
 Vibration    13          0.659              1.774              1.777
 Vibration    14          0.680              1.710              1.530
 Vibration    15          0.687              1.691              1.469
 Vibration    16          0.699              1.655              1.362
 Vibration    17          0.705              1.637              1.314
 Vibration    18          0.747              1.522              1.056
 Vibration    19          0.772              1.455              0.938
 Vibration    20          0.801              1.381              0.824
 Vibration    21          0.826              1.320              0.742
 Vibration    22          0.835              1.297              0.713
 Vibration    23          0.844              1.277              0.689
 Vibration    24          0.846              1.273              0.684
 Vibration    25          0.855              1.250              0.658
 Vibration    26          0.878              1.198              0.602
 Vibration    27          0.913              1.123              0.529
 Vibration    28          0.966              1.015              0.437

 Optimization completed.
    -- Stationary point found.
 Normal termination of Gaussian 16 at Sat Feb 10 19:23:40 2024.
