 Q-Chem 5.4, Q-Chem, Inc., Pleasanton, CA (2021)
 Q-Chem 5.4.0 for Intel X86 EM64T Linux

User input:
--------------------------------------------------------------
$molecule
-2 1
C                  0.3774040000      1.8278680000     -1.2680180000
C                 -0.7157090000      1.2397050000     -1.8736290000
C                 -0.7704530000     -0.1675760000     -2.0236200000
C                  1.4615240000      1.0528260000     -0.7847930000
C                  1.4071230000     -0.3794100000     -0.9378610000
C                  0.2789140000     -0.9455920000     -1.5596080000
C                  2.5901590000      1.6757160000     -0.1547360000
C                  3.6218740000      0.7919830000      0.2938070000
C                  3.6035300000     -0.5927080000      0.1706170000
C                  2.4902160000     -1.2504500000     -0.4634850000
O                  2.7499200000      2.9463460000      0.0426780000
O                  2.4418400000     -2.5163780000     -0.5984020000
O                  4.6717400000      1.4504500000      0.8903110000
H                  0.4407180000      2.9040140000     -1.1429230000
H                 -1.5346600000      1.8569250000     -2.2368610000
H                 -1.6293710000     -0.6328940000     -2.5008680000
H                  0.2676170000     -2.0260380000     -1.6616120000
H                  4.3546820000      2.3834830000      0.8144330000
C                  4.7314390000     -1.4385890000      0.7022880000
C                  5.7885060000     -1.7856720000     -0.3685580000
C                  6.8672930000     -2.7882320000      0.1120380000
C                  7.7730670000     -3.2388800000     -1.0229340000
C                  8.6750380000     -2.3605340000     -1.6411210000
C                  7.7337090000     -4.5571750000     -1.4940490000
C                  9.5144120000     -2.7820490000     -2.6699590000
C                  9.4623350000     -4.1037370000     -3.1030490000
C                  8.5653490000     -4.9944640000     -2.5247490000
H                  4.3033080000     -2.3785470000      1.0709630000
H                  5.2080120000     -0.9179380000      1.5377930000
H                  6.2717800000     -0.8631260000     -0.7127670000
H                  5.2682250000     -2.2175940000     -1.2279710000
H                  6.3346090000     -3.6803620000      0.4644960000
C                  7.6920030000     -2.2459760000      1.2964540000
H                  8.7189610000     -1.3258000000     -1.3197210000
H                  7.0296970000     -5.2538680000     -1.0501110000
H                  8.5205090000     -6.0162480000     -2.8845790000
O                 10.2475960000     -4.5038570000     -4.1837110000
C                 11.4531640000     -5.1351170000     -3.9666510000
C                 12.0066830000     -5.3472970000     -2.7031970000
C                 12.1317620000     -5.5622600000     -5.1124880000
C                 13.3602720000     -6.2009980000     -4.9904650000
C                 13.2416000000     -5.9909350000     -2.5983220000
C                 13.9235960000     -6.4209040000     -3.7325370000
H                 10.2048420000     -2.0950090000     -3.1461780000
H                  7.0483960000     -2.0446370000      2.1549630000
H                  8.1909920000     -1.3073110000      1.0355240000
H                  8.4604350000     -2.9632290000      1.6034200000
H                 11.4817680000     -5.0146110000     -1.8166130000
H                 11.6819050000     -5.3851630000     -6.0835590000
H                 13.8834390000     -6.5321380000     -5.8844000000
H                 13.6714940000     -6.1555760000     -1.6139150000
H                 14.8830570000     -6.9218920000     -3.6416590000
$end
$rem
MAX_SCF_CYCLES=200
BASIS  =  6-311++G(d,p)
GUI  =  2
JOB_TYPE  =  SP
METHOD  =  B3LYP
SCF_CONVERGENCE = 8
SCF_ALGORITHM = RCA_DIIS
scf_guess = GWH
THRESH = 14
SOLVENT_METHOD = PCM
$end
$pcm
theory = CPCM
$end
$solvent
dielectric 37.219
opticaldielectric 1.43
$end

--------------------------------------------------------------

             Standard Nuclear Orientation (Angstroms)
    I     Atom           X                Y                Z
 ----------------------------------------------------------------
    1      C       0.3774040000     1.8278680000    -1.2680180000
    2      C      -0.7157090000     1.2397050000    -1.8736290000
    3      C      -0.7704530000    -0.1675760000    -2.0236200000
    4      C       1.4615240000     1.0528260000    -0.7847930000
    5      C       1.4071230000    -0.3794100000    -0.9378610000
    6      C       0.2789140000    -0.9455920000    -1.5596080000
    7      C       2.5901590000     1.6757160000    -0.1547360000
    8      C       3.6218740000     0.7919830000     0.2938070000
    9      C       3.6035300000    -0.5927080000     0.1706170000
   10      C       2.4902160000    -1.2504500000    -0.4634850000
   11      O       2.7499200000     2.9463460000     0.0426780000
   12      O       2.4418400000    -2.5163780000    -0.5984020000
   13      O       4.6717400000     1.4504500000     0.8903110000
   14      H       0.4407180000     2.9040140000    -1.1429230000
   15      H      -1.5346600000     1.8569250000    -2.2368610000
   16      H      -1.6293710000    -0.6328940000    -2.5008680000
   17      H       0.2676170000    -2.0260380000    -1.6616120000
   18      H       4.3546820000     2.3834830000     0.8144330000
   19      C       4.7314390000    -1.4385890000     0.7022880000
   20      C       5.7885060000    -1.7856720000    -0.3685580000
   21      C       6.8672930000    -2.7882320000     0.1120380000
   22      C       7.7730670000    -3.2388800000    -1.0229340000
   23      C       8.6750380000    -2.3605340000    -1.6411210000
   24      C       7.7337090000    -4.5571750000    -1.4940490000
   25      C       9.5144120000    -2.7820490000    -2.6699590000
   26      C       9.4623350000    -4.1037370000    -3.1030490000
   27      C       8.5653490000    -4.9944640000    -2.5247490000
   28      H       4.3033080000    -2.3785470000     1.0709630000
   29      H       5.2080120000    -0.9179380000     1.5377930000
   30      H       6.2717800000    -0.8631260000    -0.7127670000
   31      H       5.2682250000    -2.2175940000    -1.2279710000
   32      H       6.3346090000    -3.6803620000     0.4644960000
   33      C       7.6920030000    -2.2459760000     1.2964540000
   34      H       8.7189610000    -1.3258000000    -1.3197210000
   35      H       7.0296970000    -5.2538680000    -1.0501110000
   36      H       8.5205090000    -6.0162480000    -2.8845790000
   37      O      10.2475960000    -4.5038570000    -4.1837110000
   38      C      11.4531640000    -5.1351170000    -3.9666510000
   39      C      12.0066830000    -5.3472970000    -2.7031970000
   40      C      12.1317620000    -5.5622600000    -5.1124880000
   41      C      13.3602720000    -6.2009980000    -4.9904650000
   42      C      13.2416000000    -5.9909350000    -2.5983220000
   43      C      13.9235960000    -6.4209040000    -3.7325370000
   44      H      10.2048420000    -2.0950090000    -3.1461780000
   45      H       7.0483960000    -2.0446370000     2.1549630000
   46      H       8.1909920000    -1.3073110000     1.0355240000
   47      H       8.4604350000    -2.9632290000     1.6034200000
   48      H      11.4817680000    -5.0146110000    -1.8166130000
   49      H      11.6819050000    -5.3851630000    -6.0835590000
   50      H      13.8834390000    -6.5321380000    -5.8844000000
   51      H      13.6714940000    -6.1555760000    -1.6139150000
   52      H      14.8830570000    -6.9218920000    -3.6416590000
 ----------------------------------------------------------------

   87   -1305.5265225788      8.11E-09 Convergence criterion met
 Total energy in the final basis set = -1305.52652258

                    Orbital Energies (a.u.)
 --------------------------------------------------------------

 Alpha MOs
 -- Occupied --
-19.1660 -19.1125 -19.0273 -19.0203 -10.2431 -10.2337 -10.1794 -10.1791
-10.1791 -10.1769 -10.1769 -10.1761 -10.1756 -10.1749 -10.1744 -10.1742
-10.1731 -10.1711 -10.1693 -10.1616 -10.1496 -10.1494 -10.1471 -10.1442
-10.1437 -10.1426 -10.1415 -10.1354 -10.1315 -10.1235  -1.0829  -1.0269
 -0.9440  -0.9346  -0.8690  -0.8559  -0.8239  -0.8042  -0.7737  -0.7581
 -0.7533  -0.7519  -0.7338  -0.7211  -0.7138  -0.6850  -0.6493  -0.6356
 -0.6200  -0.6172  -0.6130  -0.5888  -0.5809  -0.5635  -0.5506  -0.5497
 -0.5348  -0.5051  -0.5027  -0.4873  -0.4790  -0.4752  -0.4666  -0.4526
 -0.4470  -0.4438  -0.4379  -0.4283  -0.4252  -0.4238  -0.4195  -0.4145
 -0.4090  -0.4052  -0.3999  -0.3943  -0.3905  -0.3787  -0.3727  -0.3685
 -0.3650  -0.3596  -0.3592  -0.3569  -0.3511  -0.3490  -0.3418  -0.3372
 -0.3324  -0.3279  -0.3214  -0.3121  -0.3107  -0.3065  -0.2985  -0.2982
 -0.2647  -0.2594  -0.2436  -0.2339  -0.2296  -0.2254  -0.2163  -0.1986
 -0.1922  -0.1073

          Ground-State Mulliken Net Atomic Charges

     Atom                 Charge (a.u.)
  ----------------------------------------
      1 C                    -0.078944
      2 C                    -0.436084
      3 C                    -0.529641
      4 C                     0.313402
      5 C                     0.106314
      6 C                     0.009320
      7 C                    -0.924261
      8 C                    -0.734592
      9 C                     1.997145
     10 C                    -0.758409
     11 O                    -0.749234
     12 O                    -0.668734
     13 O                    -0.335085
     14 H                     0.145649
     15 H                     0.169271
     16 H                     0.165342
     17 H                     0.142981
     18 H                     0.282631
     19 C                    -0.251323
     20 C                    -1.054133
     21 C                     0.223150
     22 C                     0.740542
     23 C                    -0.337503
     24 C                    -0.249725
     25 C                    -0.050530
     26 C                    -0.368084
     27 C                    -0.072107
     28 H                     0.152057
     29 H                     0.245066
     30 H                     0.173548
     31 H                     0.191393
     32 H                     0.211054
     33 C                    -0.773771
     34 H                     0.208579
     35 H                     0.194652
     36 H                     0.225906
     37 O                    -0.068487
     38 C                    -0.238970
     39 C                     0.083044
     40 C                    -0.266013
     41 C                    -0.229000
     42 C                    -0.171052
     43 C                    -0.346694
     44 H                     0.220076
     45 H                     0.145058
     46 H                     0.169551
     47 H                     0.154552
     48 H                     0.193593
     49 H                     0.202123
     50 H                     0.212123
     51 H                     0.230365
     52 H                     0.183889
  ----------------------------------------
  Sum of atomic charges =    -2.000000

                    Cartesian Multipole Moments
 -----------------------------------------------------------------
    Charge (ESU x 10^10)
                -9.6064
    Dipole Moment (Debye)
         X     -24.7781      Y      -1.4466      Z       5.6823
       Tot      25.4624
    Quadrupole Moments (Debye-Ang)
        XX    -270.9713     XY      -1.4714     YY    -236.7578
        XZ      21.2435     YZ     -13.1223     ZZ    -200.3127

 Total job time:  3842.52s(wall), 23663.57s(cpu)
        *  Thank you very much for using Q-Chem.  Have a nice day.  *
