 Gaussian 16, Revision A.03,
 Gaussian 16:  ES64L-G16RevA.03 25-Dec-2016

 ----------------------------------------------------------------------
 #P UB3LYP/6-311++G(d,p) nosym opt freq SCRF=(PCM,Solvent=n,n-DiMethylF
 ormamide)
 ----------------------------------------------------------------------

 -------
 Reduced
 -------
 Symbolic Z-matrix:
 Charge = -2 Multiplicity = 1

 SCF Done:  E(UB3LYP) =  -939.928622384     A.U. after   18 cycles
 SCF Done:  E(UB3LYP) =  -939.929387891     A.U. after   14 cycles
 SCF Done:  E(UB3LYP) =  -939.929769020     A.U. after   14 cycles
 SCF Done:  E(UB3LYP) =  -939.929238532     A.U. after   13 cycles
 SCF Done:  E(UB3LYP) =  -939.929987532     A.U. after   12 cycles
 SCF Done:  E(UB3LYP) =  -939.930051716     A.U. after   12 cycles
 SCF Done:  E(UB3LYP) =  -939.930053086     A.U. after   11 cycles
 SCF Done:  E(UB3LYP) =  -939.930053781     A.U. after    9 cycles
 SCF Done:  E(UB3LYP) =  -939.930053966     A.U. after    8 cycles
 SCF Done:  E(UB3LYP) =  -939.930054014     A.U. after    9 cycles
 Optimization completed.
    -- Stationary point found.
 Normal termination of Gaussian 16 at Sun Feb 11 00:28:40 2024.

 ----------------------------------------------------------------------
 #P Geom=AllCheck Guess=TCheck SCRF=Check GenChk UB3LYP/6-311++G(d,p) F
 req
 ----------------------------------------------------------------------

 Structure from the checkpoint file:  "212-an.chk"
 -------
 Reduced
 -------
 Charge = -2 Multiplicity = 1

                          Input orientation:
 ---------------------------------------------------------------------
 Center     Atomic      Atomic             Coordinates (Angstroms)
 Number     Number       Type             X           Y           Z
 ---------------------------------------------------------------------
      1          8           0        3.926181   -2.507807   -0.122790
      2          6           0        3.033654   -1.557343   -0.028038
      3          6           0        3.402959   -0.195273    0.214719
      4          6           0        4.775523    0.156818    0.373356
      5          6           0        5.179277    1.451347    0.603267
      6          6           0        4.205642    2.485433    0.687469
      7          6           0        2.871415    2.178371    0.539466
      8          6           0        2.411269    0.851371    0.303861
      9          6           0        0.989375    0.613293    0.163781
     10          8           0        0.160418    1.607937    0.235731
     11          6           0        0.595010   -0.762175   -0.055320
     12          6           0       -0.788465   -1.200761   -0.185513
     13          6           0       -1.086954   -2.530704   -0.414113
     14          6           0       -0.082086   -3.524752   -0.528620
     15          6           0        1.230335   -3.157201   -0.398708
     16          6           0        1.622880   -1.808865   -0.158010
     17          7           0       -1.953712   -0.355507   -0.100571
     18          6           0       -2.287334    0.219008    1.203998
     19          6           0       -3.808988    0.469175    1.291309
     20          6           0       -4.395342    0.887140   -0.078714
     21          6           0       -3.312901    1.531247   -0.950650
     22          6           0       -2.176705    0.537066   -1.247283
     23          1           0        5.503017   -0.644440    0.306683
     24          1           0        6.233175    1.686092    0.720194
     25          1           0        4.515770    3.510446    0.867635
     26          1           0        2.119652    2.956728    0.601183
     27          1           0       -2.133820   -2.800773   -0.502424
     28          1           0       -0.358170   -4.559225   -0.710842
     29          1           0        2.025320   -3.889777   -0.474024
     30          1           0       -1.723803    1.143053    1.384793
     31          1           0       -1.984835   -0.497467    1.972592
     32          1           0       -3.992427    1.253734    2.034869
     33          1           0       -4.321224   -0.430151    1.649168
     34          1           0       -5.237960    1.572144    0.059804
     35          1           0       -4.792190    0.007981   -0.598118
     36          1           0       -3.731754    1.892224   -1.895410
     37          1           0       -2.909532    2.407605   -0.432024
     38          1           0       -1.266836    1.092898   -1.504354
     39          1           0       -2.455835   -0.088888   -2.107149
 ---------------------------------------------------------------------

 SCF Done:  E(UB3LYP) =  -939.930054014     A.U. after    1 cycles

 Alpha  occ. eigenvalues --  -19.01348 -19.00895 -14.27434 -10.17797 -10.17264
 Alpha  occ. eigenvalues --  -10.16754 -10.16585 -10.16372 -10.15230 -10.15076
 Alpha  occ. eigenvalues --  -10.14923 -10.14801 -10.14678 -10.14460 -10.14393
 Alpha  occ. eigenvalues --  -10.14346 -10.14092 -10.14006 -10.13863 -10.13477
 Alpha  occ. eigenvalues --  -10.13404 -10.13364  -0.92895  -0.92279  -0.89845
 Alpha  occ. eigenvalues --   -0.82294  -0.81451  -0.77450  -0.74911  -0.73022
 Alpha  occ. eigenvalues --   -0.72024  -0.70814  -0.70206  -0.63702  -0.62261
 Alpha  occ. eigenvalues --   -0.60888  -0.59993  -0.58535  -0.55373  -0.52939
 Alpha  occ. eigenvalues --   -0.50754  -0.50307  -0.49386  -0.46859  -0.45976
 Alpha  occ. eigenvalues --   -0.43769  -0.43594  -0.42973  -0.42493  -0.41663
 Alpha  occ. eigenvalues --   -0.39648  -0.39257  -0.39019  -0.38502  -0.37471
 Alpha  occ. eigenvalues --   -0.37184  -0.36071  -0.36005  -0.35802  -0.34755
 Alpha  occ. eigenvalues --   -0.34397  -0.33297  -0.32431  -0.31565  -0.31432
 Alpha  occ. eigenvalues --   -0.31161  -0.30416  -0.30027  -0.29592  -0.29030
 Alpha  occ. eigenvalues --   -0.23002  -0.21900  -0.21728  -0.21326  -0.19612
 Alpha  occ. eigenvalues --   -0.18782  -0.17941  -0.10419
 Alpha virt. eigenvalues --   -0.02518  -0.00193   0.00422   0.00489   0.00873
 Alpha virt. eigenvalues --    0.01625   0.01787   0.02073   0.02295   0.02753
 Alpha virt. eigenvalues --    0.03527   0.03983   0.04069   0.04362   0.04712

  Beta  occ. eigenvalues --  -19.01348 -19.00895 -14.27434 -10.17797 -10.17264
  Beta  occ. eigenvalues --  -10.16754 -10.16585 -10.16372 -10.15230 -10.15076
  Beta  occ. eigenvalues --  -10.14923 -10.14801 -10.14678 -10.14460 -10.14393
  Beta  occ. eigenvalues --  -10.14346 -10.14092 -10.14006 -10.13863 -10.13477
  Beta  occ. eigenvalues --  -10.13404 -10.13364  -0.92895  -0.92279  -0.89845
  Beta  occ. eigenvalues --   -0.82294  -0.81451  -0.77450  -0.74911  -0.73022
  Beta  occ. eigenvalues --   -0.72024  -0.70814  -0.70206  -0.63702  -0.62261
  Beta  occ. eigenvalues --   -0.60888  -0.59993  -0.58535  -0.55373  -0.52939
  Beta  occ. eigenvalues --   -0.50754  -0.50307  -0.49386  -0.46859  -0.45976
  Beta  occ. eigenvalues --   -0.43769  -0.43594  -0.42973  -0.42493  -0.41663
  Beta  occ. eigenvalues --   -0.39648  -0.39257  -0.39019  -0.38502  -0.37471
  Beta  occ. eigenvalues --   -0.37184  -0.36071  -0.36005  -0.35802  -0.34755
  Beta  occ. eigenvalues --   -0.34397  -0.33297  -0.32431  -0.31565  -0.31432
  Beta  occ. eigenvalues --   -0.31161  -0.30416  -0.30027  -0.29592  -0.29030
  Beta  occ. eigenvalues --   -0.23002  -0.21900  -0.21728  -0.21326  -0.19612
  Beta  occ. eigenvalues --   -0.18782  -0.17941  -0.10419
  Beta virt. eigenvalues --   -0.02518  -0.00193   0.00422   0.00489   0.00873
  Beta virt. eigenvalues --    0.01625   0.01787   0.02073   0.02295   0.02753
  Beta virt. eigenvalues --    0.03527   0.03983   0.04069   0.04362   0.04712

 Mulliken charges and spin densities:
               1          2
     1  O   -0.687337   0.000000
     2  C   -0.275112  -0.000000
     3  C    0.459781   0.000000
     4  C   -0.181057  -0.000000
     5  C   -0.433683   0.000000
     6  C   -0.466980   0.000000
     7  C   -0.017187  -0.000000
     8  C    0.073662   0.000000
     9  C   -0.163285  -0.000000
    10  O   -0.571109  -0.000000
    11  C   -0.141588  -0.000000
    12  C   -0.972250   0.000000
    13  C    0.024953   0.000000
    14  C   -0.350009   0.000000
    15  C   -0.333711   0.000000
    16  C    0.345641  -0.000000
    17  N    0.569769  -0.000000
    18  C   -0.117521  -0.000000
    19  C   -0.381294  -0.000000
    20  C   -0.357655   0.000000
    21  C   -0.327179  -0.000000
    22  C   -0.150262  -0.000000
    23  H    0.141217   0.000000
    24  H    0.156822  -0.000000
    25  H    0.157198   0.000000
    26  H    0.131706   0.000000
    27  H    0.114719  -0.000000
    28  H    0.168724   0.000000
    29  H    0.146358   0.000000
    30  H    0.154808  -0.000000
    31  H    0.145686  -0.000000
    32  H    0.135167   0.000000
    33  H    0.137312   0.000000
    34  H    0.160130  -0.000000
    35  H    0.129676  -0.000000
    36  H    0.164619  -0.000000
    37  H    0.130328  -0.000000
    38  H    0.147575   0.000000
    39  H    0.131365  -0.000000
 Sum of Mulliken charges =  -2.00000  -0.00000

 Dipole moment (field-independent basis, Debye):
    X=            -18.8271    Y=              5.9403    Z=             -0.3881  Tot=             19.7459
 Quadrupole moment (field-independent basis, Debye-Ang):
   XX=           -219.6641   YY=           -179.9071   ZZ=           -144.5325
   XY=             27.0004   XZ=             -0.4210   YZ=             -3.6247

  Exact polarizability: 573.539  70.198 527.322  30.828  49.753 249.766
 Approx polarizability: 619.161  72.480 600.842  34.352  58.484 271.172

                      1                      2                      3
                      A                      A                      A
 Frequencies --     30.5800                51.3742                56.8530
 Red. masses --      4.7933                 3.2269                 5.2011
 Frc consts  --      0.0026                 0.0050                 0.0099
 IR Inten    --      0.5042                 3.0360                11.9985

                      4                      5                      6
                      A                      A                      A
 Frequencies --     94.4665               128.5037               142.9121
 Red. masses --      3.6545                 3.9851                 2.3853
 Frc consts  --      0.0192                 0.0388                 0.0287
 IR Inten    --      6.3133                 0.1863                 4.6172

                      7                      8                      9
                      A                      A                      A
 Frequencies --    165.0193               182.5952               187.9019
 Red. masses --      5.6372                 4.2284                 3.5573
 Frc consts  --      0.0904                 0.0831                 0.0740
 IR Inten    --      2.3268                 2.4540                 7.5957

                     10                     11                     12
                      A                      A                      A
 Frequencies --    225.2191               229.0041               269.5738
 Red. masses --      5.5074                 4.7090                 1.7549
 Frc consts  --      0.1646                 0.1455                 0.0751
 IR Inten    --     20.2356                 2.7295                10.0355

                     13                     14                     15
                      A                      A                      A
 Frequencies --    295.5021               314.0333               334.2655
 Red. masses --      3.0550                 6.1349                 4.0207
 Frc consts  --      0.1572                 0.3565                 0.2647
 IR Inten    --     25.8085                 3.1636                 3.9724

                     16                     17                     18
                      A                      A                      A
 Frequencies --    364.2129               380.7027               404.3160
 Red. masses --      6.1117                10.6444                 7.5163
 Frc consts  --      0.4777                 0.9090                 0.7239
 IR Inten    --      1.8998                 4.5004                 0.6011

                     19                     20                     21
                      A                      A                      A
 Frequencies --    429.5864               454.4053               459.2062
 Red. masses --      7.0966                 3.2499                 3.2103
 Frc consts  --      0.7716                 0.3954                 0.3989
 IR Inten    --      0.6417                 3.0044                 3.5094

                     22                     23                     24
                      A                      A                      A
 Frequencies --    490.5621               504.5219               507.6774
 Red. masses --      4.3949                 7.4374                 4.3848
 Frc consts  --      0.6231                 1.1154                 0.6658
 IR Inten    --      6.7916                 2.0634                 0.5526

                     25                     26                     27
                      A                      A                      A
 Frequencies --    517.4670               589.1880               599.7772
 Red. masses --      3.8908                 4.2469                 5.9310
 Frc consts  --      0.6138                 0.8686                 1.2571
 IR Inten    --      3.5574                13.2285                77.1248

                     28                     29                     30
                      A                      A                      A
 Frequencies --    631.1052               655.1029               663.9118
 Red. masses --      3.8368                 4.0684                 3.6650
 Frc consts  --      0.9004                 1.0287                 0.9518
 IR Inten    --      2.4828                31.1070                 3.1255

                     31                     32                     33
                      A                      A                      A
 Frequencies --    685.9763               697.4077               744.1703
 Red. masses --      6.1983                 2.2969                 2.0633
 Frc consts  --      1.7185                 0.6582                 0.6732
 IR Inten    --      1.4311               130.4811                 0.7005

                     34                     35                     36
                      A                      A                      A
 Frequencies --    758.9684               769.9712               781.5456
 Red. masses --      2.4971                 2.0829                 2.1552
 Frc consts  --      0.8475                 0.7276                 0.7756
 IR Inten    --     18.1196                 0.2702                79.6157

                     37                     38                     39
                      A                      A                      A
 Frequencies --    787.0560               816.1836               821.0141
 Red. masses --      1.5919                 4.5138                 3.3706
 Frc consts  --      0.5810                 1.7716                 1.3386
 IR Inten    --      7.8898                 6.5857                 7.9567

                     40                     41                     42
                      A                      A                      A
 Frequencies --    843.8008               855.6372               871.6565
 Red. masses --      3.2741                 1.7304                 1.5985
 Frc consts  --      1.3735                 0.7464                 0.7156
 IR Inten    --      7.6408                 0.4223                 4.9885

                     43                     44                     45
                      A                      A                      A
 Frequencies --    888.2550               901.7494               920.8530
 Red. masses --      1.5162                 4.1612                 2.3759
 Frc consts  --      0.7048                 1.9936                 1.1870
 IR Inten    --      1.8205                42.6682                 3.1093

                     46                     47                     48
                      A                      A                      A
 Frequencies --    935.2673               963.2545               978.8526
 Red. masses --      5.8162                 1.9901                 1.2970
 Frc consts  --      2.9975                 1.0879                 0.7322
 IR Inten    --      4.1970                16.1192                 0.2754

                     49                     50                     51
                      A                      A                      A
 Frequencies --    980.8003               986.3858               994.3692
 Red. masses --      1.3373                 1.2601                 2.0963
 Frc consts  --      0.7579                 0.7224                 1.2213
 IR Inten    --      6.2061                 1.6629               146.8448

                     52                     53                     54
                      A                      A                      A
 Frequencies --   1018.7455              1035.9770              1058.1455
 Red. masses --      2.0281                 2.2525                 2.0644
 Frc consts  --      1.2401                 1.4243                 1.3619
 IR Inten    --    105.6495                 5.3452               177.1284

                     55                     56                     57
                      A                      A                      A
 Frequencies --   1067.5661              1082.5274              1098.4555
 Red. masses --      2.4323                 1.8488                 2.4461
 Frc consts  --      1.6333                 1.2765                 1.7390
 IR Inten    --    395.1005                18.7493               215.0369

                     58                     59                     60
                      A                      A                      A
 Frequencies --   1110.6573              1127.2588              1142.6810
 Red. masses --      1.6559                 2.4270                 1.4986
 Frc consts  --      1.2035                 1.8170                 1.1529
 IR Inten    --    391.8225                31.0384                62.6438

                     61                     62                     63
                      A                      A                      A
 Frequencies --   1150.2146              1169.0972              1176.4219
 Red. masses --      2.1257                 2.1479                 1.5091
 Frc consts  --      1.6570                 1.7297                 1.2306
 IR Inten    --     52.8176                 4.4472               255.8814

                     64                     65                     66
                      A                      A                      A
 Frequencies --   1180.2215              1209.8564              1217.3879
 Red. masses --      1.3027                 2.3239                 2.0617
 Frc consts  --      1.0691                 2.0042                 1.8002
 IR Inten    --    106.1378               215.2324                88.4433

                     67                     68                     69
                      A                      A                      A
 Frequencies --   1235.9512              1243.6908              1273.5061
 Red. masses --      2.6295                 1.6650                 1.4708
 Frc consts  --      2.3666                 1.5174                 1.4054
 IR Inten    --    250.8741                24.6431                68.9495

                     70                     71                     72
                      A                      A                      A
 Frequencies --   1278.5359              1287.2684              1316.2242
 Red. masses --      3.4979                 1.1998                 2.3665
 Frc consts  --      3.3689                 1.1714                 2.4156
 IR Inten    --    270.3965                16.3454              1089.4937

                     73                     74                     75
                      A                      A                      A
 Frequencies --   1321.0152              1339.9345              1343.7511
 Red. masses --      1.9977                 2.3458                 2.3070
 Frc consts  --      2.0540                 2.4814                 2.4544
 IR Inten    --    441.0611               347.8391               277.3230

                     76                     77                     78
                      A                      A                      A
 Frequencies --   1349.6274              1358.8449              1371.4737
 Red. masses --      1.3969                 2.3372                 1.4390
 Frc consts  --      1.4992                 2.5426                 1.5947
 IR Inten    --     15.6350               950.8627                 0.4219

                     79                     80                     81
                      A                      A                      A
 Frequencies --   1374.9320              1400.3166              1409.9088
 Red. masses --      1.4007                 1.8223                 2.1005
 Frc consts  --      1.5601                 2.1054                 2.4601
 IR Inten    --     31.9859                 2.1038               243.3487

                     82                     83                     84
                      A                      A                      A
 Frequencies --   1444.5033              1458.6450              1475.6619
 Red. masses --      5.5855                 2.9173                 2.2287
 Frc consts  --      6.8667                 3.6570                 2.8595
 IR Inten    --      2.7436               384.3449                 8.0245

                     85                     86                     87
                      A                      A                      A
 Frequencies --   1477.5883              1482.9358              1488.0992
 Red. masses --      1.1114                 1.1325                 2.8602
 Frc consts  --      1.4296                 1.4674                 3.7318
 IR Inten    --      1.4882                16.5957                31.3345

                     88                     89                     90
                      A                      A                      A
 Frequencies --   1490.2414              1497.2099              1523.3621
 Red. masses --      1.3306                 1.1325                 1.1210
 Frc consts  --      1.7410                 1.4957                 1.5328
 IR Inten    --      9.1742                 7.9675                12.6119

                     91                     92                     93
                      A                      A                      A
 Frequencies --   1535.6564              1577.6978              1600.5764
 Red. masses --      4.8430                 7.7939                 5.3424
 Frc consts  --      6.7290                11.4301                 8.0638
 IR Inten    --     96.1874                29.6663                50.0203

                     94                     95                     96
                      A                      A                      A
 Frequencies --   1606.2960              2958.4272              2987.7679
 Red. masses --      5.3178                 1.0651                 1.0679
 Frc consts  --      8.0842                 5.4924                 5.6166
 IR Inten    --      7.6053               187.1094                41.4452

                     97                     98                     99
                      A                      A                      A
 Frequencies --   3000.3839              3003.4033              3015.0355
 Red. masses --      1.0931                 1.0598                 1.0666
 Frc consts  --      5.7978                 5.6325                 5.7126
 IR Inten    --     47.6619                78.9204                87.6022

                    100                    101                    102
                      A                      A                      A
 Frequencies --   3020.1847              3032.4154              3049.7154
 Red. masses --      1.0666                 1.0931                 1.0973
 Frc consts  --      5.7320                 5.9222                 6.0130
 IR Inten    --     71.4093                69.3680                78.2089

                    103                    104                    105
                      A                      A                      A
 Frequencies --   3052.4545              3060.5572              3136.8439
 Red. masses --      1.1004                 1.1029                 1.0846
 Frc consts  --      6.0409                 6.0868                 6.2881
 IR Inten    --    118.4472               154.0636                32.1043

                    106                    107                    108
                      A                      A                      A
 Frequencies --   3139.4708              3152.8378              3162.4581
 Red. masses --      1.0856                 1.0896                 1.0907
 Frc consts  --      6.3044                 6.3812                 6.4271
 IR Inten    --     39.7229                40.6302                44.5021

                    109                    110                    111
                      A                      A                      A
 Frequencies --   3173.1261              3174.0947              3177.3381
 Red. masses --      1.0912                 1.0936                 1.0930
 Frc consts  --      6.4733                 6.4914                 6.5014
 IR Inten    --     43.4348                82.5007                67.0156

 - Thermochemistry -
 -------------------
 Temperature   298.150 Kelvin.  Pressure   1.00000 Atm.
 Atom     1 has atomic number  8 and mass  15.99491

 Molecular mass:   291.12593 amu.
 Principal axes and moments of inertia in atomic units:
                           1         2         3
     Eigenvalues --  3516.792578920.69914**********
           X            0.99884   0.01040  -0.04704
           Y           -0.01727   0.98882  -0.14808
           Z            0.04498   0.14872   0.98786
 This molecule is an asymmetric top.
 Rotational symmetry number  1.
 Warning -- assumption of classical behavior for rotation
           may cause significant error
 Rotational temperatures (Kelvin)      0.02463     0.00971     0.00737
 Rotational constants (GHZ):           0.51318     0.20231     0.15364
 Zero-point vibrational energy     819728.5 (Joules/Mol)
                                  195.91981 (Kcal/Mol)
 Warning -- explicit consideration of  27 degrees of freedom as
           vibrations may cause significant error
 Vibrational temperatures:     44.00    73.92    81.80   135.92   184.89
          (Kelvin)            205.62   237.43   262.71   270.35   324.04
                              329.49   387.86   425.16   451.82   480.93
                              524.02   547.75   581.72   618.08   653.79
                              660.70   705.81   725.89   730.43   744.52
                              847.71   862.95   908.02   942.55   955.22
                              986.97  1003.41  1070.70  1091.99  1107.82
                             1124.47  1132.40  1174.31  1181.26  1214.04
                             1231.07  1254.12  1278.00  1297.42  1324.90
                             1345.64  1385.91  1408.35  1411.15  1419.19
                             1430.68  1465.75  1490.54  1522.44  1535.99
                             1557.52  1580.43  1597.99  1621.87  1644.06
                             1654.90  1682.07  1692.61  1698.08  1740.71
                             1751.55  1778.26  1789.39  1832.29  1839.53
                             1852.09  1893.75  1900.65  1927.87  1933.36
                             1941.81  1955.07  1973.24  1978.22  2014.74
                             2028.54  2078.32  2098.66  2123.15  2125.92
                             2133.61  2141.04  2144.12  2154.15  2191.78
                             2209.47  2269.96  2302.87  2311.10  4256.52
                             4298.73  4316.88  4321.23  4337.96  4345.37
                             4362.97  4387.86  4391.80  4403.46  4513.22
                             4517.00  4536.23  4550.07  4565.42  4566.81
                             4571.48

 Zero-point correction=                           0.312218 (Hartree/Particle)
 Thermal correction to Energy=                    0.329526
 Thermal correction to Enthalpy=                  0.330470
 Thermal correction to Gibbs Free Energy=         0.267135
 Sum of electronic and zero-point Energies=           -939.617836
 Sum of electronic and thermal Energies=              -939.600528
 Sum of electronic and thermal Enthalpies=            -939.599584
 Sum of electronic and thermal Free Energies=         -939.662919

                     E (Thermal)             CV                S
                      KCal/Mol        Cal/Mol-Kelvin    Cal/Mol-Kelvin
 Total                  206.781             71.049            133.299
 Electronic               0.000              0.000              0.000
 Translational            0.889              2.981             42.903
 Rotational               0.889              2.981             34.265
 Vibrational            205.003             65.088             56.131
 Vibration     1          0.594              1.984              5.791
 Vibration     2          0.596              1.977              4.764
 Vibration     3          0.596              1.975              4.564
 Vibration     4          0.603              1.953              3.565
 Vibration     5          0.611              1.925              2.968
 Vibration     6          0.616              1.910              2.765
 Vibration     7          0.623              1.885              2.491
 Vibration     8          0.630              1.863              2.302
 Vibration     9          0.633              1.856              2.248
 Vibration    10          0.650              1.803              1.917
 Vibration    11          0.652              1.797              1.887
 Vibration    12          0.674              1.729              1.599
 Vibration    13          0.690              1.682              1.442
 Vibration    14          0.702              1.647              1.341
 Vibration    15          0.716              1.607              1.239
 Vibration    16          0.738              1.546              1.104
 Vibration    17          0.750              1.511              1.036
 Vibration    18          0.770              1.461              0.947
 Vibration    19          0.791              1.406              0.860
 Vibration    20          0.813              1.351              0.783
 Vibration    21          0.817              1.341              0.768
 Vibration    22          0.846              1.271              0.682
 Vibration    23          0.860              1.240              0.647
 Vibration    24          0.863              1.233              0.639
 Vibration    25          0.872              1.211              0.616
 Vibration    26          0.946              1.055              0.469
 Vibration    27          0.958              1.032              0.450

                           ! Non-Optimized Parameters !
 Normal termination of Gaussian 16 at Sun Feb 11 03:55:28 2024.
