 Gaussian 16, Revision A.03,
 Gaussian 16:  ES64L-G16RevA.03 25-Dec-2016

 ----------------------------------------------------------------
 #P UB3LYP/6-311++G(d,p) SCRF=(PCM,Solvent=n,n-DiMethylFormamide)
 ----------------------------------------------------------------

 ------------------
 Radical PCM in DMF
 ------------------
 Symbolic Z-matrix:
 Charge = -1 Multiplicity = 2

                         Standard orientation:
 ---------------------------------------------------------------------
 Center     Atomic      Atomic             Coordinates (Angstroms)
 Number     Number       Type             X           Y           Z
 ---------------------------------------------------------------------
      1          6           0        2.384803    2.275421    1.280075
      2          6           0        1.543619    2.107219    0.000460
      3          6           0        2.384124    2.275779   -1.279522
      4          6           0        0.672156    0.854868    0.000332
      5          6           0        1.091207   -0.451546    0.000082
      6         35           0        2.978575   -0.935344   -0.000452
      7          6           0        0.222009   -1.620580    0.000209
      8          8           0        0.653451   -2.797296    0.000190
      9          6           0       -1.216486   -1.337725    0.000403
     10          6           0       -1.640847   -0.037891    0.000035
     11         35           0       -3.542059    0.349485   -0.000378
     12          6           0       -0.780342    1.129231    0.000222
     13          8           0       -1.228425    2.300229    0.000320
     14          6           0       -2.143944   -2.522352    0.000975
     15          1           0        3.161986    1.515070    1.371235
     16          1           0        1.747297    2.219089    2.167112
     17          1           0        2.868731    3.259488    1.277621
     18          1           0        0.815810    2.920682    0.000806
     19          1           0        3.160748    1.514938   -1.371709
     20          1           0        1.746078    2.220429   -2.166246
     21          1           0        2.868724    3.259522   -1.276817
     22          1           0       -2.796211   -2.513702   -0.878292
     23          1           0       -1.551862   -3.436682    0.002293
     24          1           0       -2.797390   -2.511775    0.879333
 ---------------------------------------------------------------------

 SCF Done:  E(UB3LYP) =  -5686.10836867     A.U. after   19 cycles

 The electronic state is 2-A.
 Alpha  occ. eigenvalues -- -482.82295-482.82021 -62.47576 -62.47307 -56.29593
 Alpha  occ. eigenvalues --  -56.29328 -56.29247 -56.29209 -56.28976 -56.28938
 Alpha  occ. eigenvalues --  -19.08696 -19.08657 -10.23762 -10.23678 -10.22069
 Alpha  occ. eigenvalues --  -10.21844 -10.18947 -10.18825 -10.17211 -10.16067
 Alpha  occ. eigenvalues --  -10.15262 -10.15262  -8.68539  -8.68277  -6.51618
 Alpha  occ. eigenvalues --   -6.51364  -6.50461  -6.50355  -6.50193  -6.50088
 Alpha  occ. eigenvalues --   -2.62723  -2.62467  -2.62411  -2.62331  -2.62152
 Alpha  occ. eigenvalues --   -2.62073  -2.61409  -2.61408  -2.61141  -2.61139
 Alpha  occ. eigenvalues --   -1.01693  -1.01424  -0.85599  -0.82549  -0.78458
 Alpha  occ. eigenvalues --   -0.77082  -0.74388  -0.68560  -0.68003  -0.67275
 Alpha  occ. eigenvalues --   -0.60287  -0.56504  -0.54715  -0.50727  -0.46326
 Alpha  occ. eigenvalues --   -0.44106  -0.43966  -0.43420  -0.42453  -0.41391
 Alpha  occ. eigenvalues --   -0.40035  -0.39710  -0.39335  -0.38778  -0.38569
 Alpha  occ. eigenvalues --   -0.38155  -0.36176  -0.34560  -0.34145  -0.32377
 Alpha  occ. eigenvalues --   -0.31768  -0.31306  -0.28566  -0.27875  -0.27242
 Alpha  occ. eigenvalues --   -0.25664  -0.24532  -0.24108  -0.16874
 Alpha virt. eigenvalues --   -0.01871  -0.01665  -0.01163   0.00081   0.00976
 Alpha virt. eigenvalues --    0.01958   0.02139   0.02139   0.02721   0.03397
 Alpha virt. eigenvalues --    0.03848   0.04530   0.05131   0.05191   0.05650

  Beta  occ. eigenvalues -- -482.82295-482.82020 -62.47575 -62.47307 -56.29594
  Beta  occ. eigenvalues --  -56.29329 -56.29243 -56.29209 -56.28972 -56.28938
  Beta  occ. eigenvalues --  -19.08024 -19.07975 -10.23618 -10.23535 -10.21983
  Beta  occ. eigenvalues --  -10.21762 -10.18808 -10.18685 -10.17222 -10.16078
  Beta  occ. eigenvalues --  -10.15253 -10.15253  -8.68538  -8.68276  -6.51621
  Beta  occ. eigenvalues --   -6.51368  -6.50454  -6.50355  -6.50188  -6.50088
  Beta  occ. eigenvalues --   -2.62724  -2.62469  -2.62408  -2.62333  -2.62150
  Beta  occ. eigenvalues --   -2.62075  -2.61405  -2.61404  -2.61138  -2.61136
  Beta  occ. eigenvalues --   -1.00536  -1.00232  -0.85101  -0.82407  -0.78349
  Beta  occ. eigenvalues --   -0.76905  -0.74122  -0.68369  -0.67979  -0.66443
  Beta  occ. eigenvalues --   -0.60068  -0.56065  -0.54470  -0.50507  -0.46010
  Beta  occ. eigenvalues --   -0.43792  -0.43223  -0.43040  -0.41951  -0.41029
  Beta  occ. eigenvalues --   -0.39777  -0.39570  -0.38883  -0.38387  -0.37788
  Beta  occ. eigenvalues --   -0.36237  -0.36006  -0.34426  -0.34003  -0.32315
  Beta  occ. eigenvalues --   -0.31161  -0.30208  -0.28529  -0.27823  -0.25051
  Beta  occ. eigenvalues --   -0.25039  -0.23962  -0.23510
  Beta virt. eigenvalues --   -0.09794  -0.01582  -0.01077  -0.00483   0.00115
  Beta virt. eigenvalues --    0.00999   0.02172   0.02174   0.02740   0.03415
  Beta virt. eigenvalues --    0.03673   0.04561   0.04632   0.05205   0.05252

 Mulliken charges and spin densities:
               1          2
     1  C   -0.691779   0.002379
     2  C    0.265142  -0.001188
     3  C   -0.691872   0.002384
     4  C    1.061137   0.129540
     5  C    0.162479   0.055020
     6  Br  -0.121888   0.003746
     7  C   -1.240941   0.086339
     8  O   -0.384327   0.247946
     9  C    0.863252   0.111960
    10  C    0.034524   0.028161
    11  Br  -0.181338   0.002905
    12  C   -0.980247   0.082589
    13  O   -0.374359   0.245509
    14  C   -0.341413  -0.001146
    15  H    0.146826  -0.000716
    16  H    0.148797   0.000242
    17  H    0.147390   0.000472
    18  H    0.214976  -0.003192
    19  H    0.146806  -0.000718
    20  H    0.148809   0.000242
    21  H    0.147387   0.000474
    22  H    0.168352   0.004586
    23  H    0.184093  -0.002104
    24  H    0.168194   0.004571
 Sum of Mulliken charges =  -1.00000   1.00000

 Dipole moment (field-independent basis, Debye):
    X=              1.1552    Y=              1.3055    Z=              0.0003  Tot=              1.7432
 Quadrupole moment (field-independent basis, Debye-Ang):
   XX=           -130.4752   YY=           -141.0751   ZZ=           -112.8684
   XY=             17.3534   XZ=             -0.0005   YZ=             -0.0012

 Normal termination of Gaussian 16 at Sun Jan 21 07:13:33 2024.
