 Gaussian 16, Revision A.03,
 Gaussian 16:  ES64L-G16RevA.03 25-Dec-2016

 ----------------------------------------------------------------
 #P UB3LYP/6-311++G(d,p) SCRF=(PCM,Solvent=n,n-DiMethylFormamide)
 ----------------------------------------------------------------

 ------------------
 Radical PCM in DMF
 ------------------
 Symbolic Z-matrix:
 Charge = -1 Multiplicity = 2

                         Standard orientation:
 ---------------------------------------------------------------------
 Center     Atomic      Atomic             Coordinates (Angstroms)
 Number     Number       Type             X           Y           Z
 ---------------------------------------------------------------------
      1          6           0        0.573989    1.646991   -0.096769
      2          6           0       -0.696264    2.336127   -0.054423
      3          6           0       -1.886158    1.671922    0.010613
      4          6           0       -1.991315    0.226013    0.044884
      5          6           0       -0.705398   -0.459795   -0.018630
      6          6           0        0.505116    0.186598   -0.092659
      7          8           0        1.676223    2.260408   -0.146290
      8          8           0       -3.093872   -0.366811    0.126502
      9          6           0        1.819711   -0.548980   -0.163557
     10          6           0        2.717529   -0.412729    1.048602
     11          8           0        2.142680   -1.210700   -1.128758
     12          1           0        2.209917   -0.835342    1.922617
     13          1           0        2.891797    0.649026    1.237118
     14          1           0        3.659730   -0.935528    0.876077
     15          1           0       -2.829568    2.208616    0.046004
     16         17           0       -0.770616   -2.226352    0.065460
     17          1           0       -0.654921    3.421155   -0.074630
 ---------------------------------------------------------------------

 SCF Done:  E(UB3LYP) =  -994.037948937     A.U. after   20 cycles

 The electronic state is 2-A.
 Alpha  occ. eigenvalues -- -101.55300 -19.12678 -19.09101 -19.09002 -10.27625
 Alpha  occ. eigenvalues --  -10.23854 -10.23842 -10.23732 -10.19101 -10.17676
 Alpha  occ. eigenvalues --  -10.17485 -10.16825  -9.46755  -7.23185  -7.22283
 Alpha  occ. eigenvalues --   -7.22199  -1.06024  -1.01722  -1.01279  -0.87827
 Alpha  occ. eigenvalues --   -0.82208  -0.77178  -0.73137  -0.69461  -0.63048
 Alpha  occ. eigenvalues --   -0.58356  -0.54355  -0.50003  -0.48353  -0.46881
 Alpha  occ. eigenvalues --   -0.45364  -0.44303  -0.43458  -0.42432  -0.42125
 Alpha  occ. eigenvalues --   -0.40369  -0.39625  -0.38483  -0.38094  -0.36799
 Alpha  occ. eigenvalues --   -0.35024  -0.31635  -0.29148  -0.27373  -0.26188
 Alpha  occ. eigenvalues --   -0.25784  -0.24860  -0.17600
 Alpha virt. eigenvalues --   -0.04475  -0.01313  -0.00158   0.00879   0.01197
 Alpha virt. eigenvalues --    0.01720   0.02424   0.03655   0.04056   0.04505
 Alpha virt. eigenvalues --    0.05901   0.06306   0.06637   0.06922   0.07935

  Beta  occ. eigenvalues -- -101.55295 -19.12664 -19.08391 -19.08302 -10.27631
  Beta  occ. eigenvalues --  -10.23729 -10.23722 -10.23573 -10.18986 -10.17591
  Beta  occ. eigenvalues --  -10.17381 -10.16823  -9.46751  -7.23190  -7.22259
  Beta  occ. eigenvalues --   -7.22196  -1.05987  -1.00507  -1.00055  -0.87512
  Beta  occ. eigenvalues --   -0.81767  -0.76969  -0.73013  -0.68467  -0.62701
  Beta  occ. eigenvalues --   -0.57943  -0.54128  -0.49794  -0.48100  -0.46610
  Beta  occ. eigenvalues --   -0.45091  -0.44156  -0.43324  -0.41488  -0.41040
  Beta  occ. eigenvalues --   -0.39968  -0.38847  -0.37893  -0.37212  -0.35845
  Beta  occ. eigenvalues --   -0.33990  -0.31586  -0.27177  -0.26108  -0.25327
  Beta  occ. eigenvalues --   -0.25123  -0.24335
  Beta virt. eigenvalues --   -0.10389  -0.03945  -0.00227  -0.00116   0.00971
  Beta virt. eigenvalues --    0.01283   0.02451   0.03237   0.04024   0.04405
  Beta virt. eigenvalues --    0.04599   0.05966   0.06393   0.06714   0.07061

 Mulliken charges and spin densities:
               1          2
     1  C   -0.981053   0.059393
     2  C    0.131541   0.093210
     3  C   -0.002881   0.069028
     4  C   -0.682851   0.118838
     5  C    0.277231   0.072369
     6  C    0.939844   0.080276
     7  O   -0.443013   0.250666
     8  O   -0.432975   0.253639
     9  C   -0.280648   0.002674
    10  C   -0.538109   0.002530
    11  O   -0.312046   0.002025
    12  H    0.158585   0.000440
    13  H    0.203136  -0.001267
    14  H    0.163028   0.000583
    15  H    0.202485  -0.005652
    16  Cl   0.396601   0.008403
    17  H    0.201126  -0.007156
 Sum of Mulliken charges =  -1.00000   1.00000

 Dipole moment (field-independent basis, Debye):
    X=              2.0395    Y=              0.3122    Z=              3.0676  Tot=              3.6969
 Quadrupole moment (field-independent basis, Debye-Ang):
   XX=           -110.2130   YY=            -93.3436   ZZ=            -81.5314
   XY=            -12.1042   XZ=              8.5907   YZ=             -2.5965

 Normal termination of Gaussian 16 at Sun Jan 21 07:27:05 2024.
