 Gaussian 16, Revision A.03,
 Gaussian 16:  ES64L-G16RevA.03 25-Dec-2016

 ----------------------------------------------------------------------
 #P UB3LYP/6-311++G(d,p) nosym opt freq SCRF=(PCM,Solvent=n,n-DiMethylF
 ormamide)
 ----------------------------------------------------------------------

 -------
 Reduced
 -------
 Symbolic Z-matrix:
 Charge = -2 Multiplicity = 1

 SCF Done:  E(UB3LYP) =  -474.122822790     A.U. after   16 cycles
 SCF Done:  E(UB3LYP) =  -474.123347309     A.U. after   14 cycles
 SCF Done:  E(UB3LYP) =  -474.123483652     A.U. after   13 cycles
 SCF Done:  E(UB3LYP) =  -474.123509811     A.U. after   12 cycles
 SCF Done:  E(UB3LYP) =  -474.123510745     A.U. after   10 cycles
 Optimization completed.
    -- Stationary point found.
 Normal termination of Gaussian 16 at Sat Feb 10 10:08:24 2024.

 ----------------------------------------------------------------------
 #P Geom=AllCheck Guess=TCheck SCRF=Check GenChk UB3LYP/6-311++G(d,p) F
 req
 ----------------------------------------------------------------------

 Structure from the checkpoint file:  "000-an.chk"
 -------
 Reduced
 -------
 Charge = -2 Multiplicity = 1

                          Input orientation:
 ---------------------------------------------------------------------
 Center     Atomic      Atomic             Coordinates (Angstroms)
 Number     Number       Type             X           Y           Z
 ---------------------------------------------------------------------
      1          6           0       -0.295688    1.189520   -0.271158
      2          6           0       -1.340759    0.320014   -0.728673
      3          6           0       -1.276377   -1.059189   -0.636324
      4          6           0       -0.161306   -1.774706   -0.074226
      5          6           0        0.876471   -0.942106    0.385276
      6          6           0        0.820556    0.481839    0.295499
      7          8           0       -0.361622    2.478455   -0.365272
      8          8           0       -0.139122   -3.083926   -0.008919
      9          6           0        1.909583    1.239455    0.783414
     10          7           0        2.812227    1.856524    1.187015
     11          1           0       -2.217961    0.790942   -1.167299
     12          1           0       -2.110181   -1.654029   -1.006059
     13          1           0        1.757299   -1.402126    0.825766
 ---------------------------------------------------------------------

 SCF Done:  E(UB3LYP) =  -474.123510745     A.U. after    1 cycles

 Alpha  occ. eigenvalues --  -19.02960 -19.01613 -14.28634 -10.19220 -10.19146
 Alpha  occ. eigenvalues --  -10.17612 -10.15762 -10.14051 -10.13692 -10.13450
 Alpha  occ. eigenvalues --   -0.94361  -0.92295  -0.88710  -0.79519  -0.72927
 Alpha  occ. eigenvalues --   -0.66591  -0.60189  -0.55523  -0.47105  -0.44376
 Alpha  occ. eigenvalues --   -0.43474  -0.39637  -0.37946  -0.36453  -0.35978
 Alpha  occ. eigenvalues --   -0.34062  -0.33480  -0.33464  -0.31555  -0.31097
 Alpha  occ. eigenvalues --   -0.23207  -0.22675  -0.20798  -0.19781  -0.13202
 Alpha virt. eigenvalues --   -0.01538   0.00527   0.01892   0.02238   0.04098
 Alpha virt. eigenvalues --    0.04473   0.04727   0.05022   0.06452   0.06760
 Alpha virt. eigenvalues --    0.07821   0.08587   0.09015   0.09040   0.10213

  Beta  occ. eigenvalues --  -19.02960 -19.01613 -14.28634 -10.19220 -10.19146
  Beta  occ. eigenvalues --  -10.17612 -10.15762 -10.14051 -10.13692 -10.13450
  Beta  occ. eigenvalues --   -0.94361  -0.92295  -0.88710  -0.79519  -0.72927
  Beta  occ. eigenvalues --   -0.66591  -0.60189  -0.55523  -0.47105  -0.44376
  Beta  occ. eigenvalues --   -0.43474  -0.39637  -0.37946  -0.36453  -0.35978
  Beta  occ. eigenvalues --   -0.34062  -0.33480  -0.33464  -0.31555  -0.31097
  Beta  occ. eigenvalues --   -0.23207  -0.22675  -0.20798  -0.19781  -0.13202
  Beta virt. eigenvalues --   -0.01538   0.00527   0.01892   0.02238   0.04098
  Beta virt. eigenvalues --    0.04473   0.04727   0.05022   0.06452   0.06760
  Beta virt. eigenvalues --    0.07821   0.08587   0.09015   0.09040   0.10213

 Mulliken charges and spin densities:
               1          2
     1  C   -1.024989   0.000000
     2  C    0.099342  -0.000000
     3  C    0.017316   0.000000
     4  C   -0.379388  -0.000000
     5  C   -0.425387   0.000000
     6  C    1.999493  -0.000000
     7  O   -0.682435  -0.000000
     8  O   -0.750153  -0.000000
     9  C   -0.870906  -0.000000
    10  N   -0.433622  -0.000000
    11  H    0.154724  -0.000000
    12  H    0.154308  -0.000000
    13  H    0.141697  -0.000000
 Sum of Mulliken charges =  -2.00000  -0.00000

 Dipole moment (field-independent basis, Debye):
    X=             -4.2144    Y=             -0.4135    Z=             -1.2382  Tot=              4.4120
 Quadrupole moment (field-independent basis, Debye-Ang):
   XX=            -82.7561   YY=           -133.7514   ZZ=            -68.6214
   XY=            -11.1387   XZ=             -7.6194   YZ=             -2.2332

  Exact polarizability: 192.200  22.377 208.279  49.882   5.213 109.298
 Approx polarizability: 221.967  24.076 231.530  61.062   5.246 120.897

                      1                      2                      3
                      A                      A                      A
 Frequencies --    112.8567               144.7611               150.5743
 Red. masses --      6.2204                10.0859                11.9923
 Frc consts  --      0.0467                 0.1245                 0.1602
 IR Inten    --      6.2557                22.0214                 5.1213

                      4                      5                      6
                      A                      A                      A
 Frequencies --    332.5739               341.3028               408.4567
 Red. masses --      7.7103                13.4806                 4.3275
 Frc consts  --      0.5025                 0.9252                 0.4254
 IR Inten    --      0.9300                 2.8817                 1.2844

                      7                      8                      9
                      A                      A                      A
 Frequencies --    436.8296               463.9224               518.1472
 Red. masses --      7.4427                11.6304                 3.1855
 Frc consts  --      0.8368                 1.4748                 0.5039
 IR Inten    --      1.4857                10.7493                24.3700

                     10                     11                     12
                      A                      A                      A
 Frequencies --    519.5197               622.9626               638.7644
 Red. masses --      6.9469                 4.0848                 5.6708
 Frc consts  --      1.1047                 0.9340                 1.3632
 IR Inten    --     13.0091                 1.4062                 4.5840

                     13                     14                     15
                      A                      A                      A
 Frequencies --    710.6541               735.2575               815.4108
 Red. masses --      7.7912                 2.7504                 4.4381
 Frc consts  --      2.3183                 0.8760                 1.7386
 IR Inten    --     28.4949                 1.6283               145.2213

                     16                     17                     18
                      A                      A                      A
 Frequencies --    816.6885               832.0091               937.2952
 Red. masses --      1.9430                 2.0813                 3.5786
 Frc consts  --      0.7636                 0.8489                 1.8523
 IR Inten    --     35.3161                93.7961                 5.9213

                     19                     20                     21
                      A                      A                      A
 Frequencies --    941.5890              1094.8475              1147.7013
 Red. masses --      1.3201                 2.5437                 1.5024
 Frc consts  --      0.6896                 1.7965                 1.1660
 IR Inten    --      0.4059               106.6096               293.7632

                     22                     23                     24
                      A                      A                      A
 Frequencies --   1209.8803              1234.0614              1305.5465
 Red. masses --      5.2894                 1.7987                 2.7128
 Frc consts  --      4.5618                 1.6139                 2.7242
 IR Inten    --    243.0429               166.1372               695.2424

                     25                     26                     27
                      A                      A                      A
 Frequencies --   1334.2116              1404.8174              1452.4062
 Red. masses --      6.9566                 7.3292                 2.7853
 Frc consts  --      7.2962                 8.5221                 3.4618
 IR Inten    --    147.4313               341.4617              1150.9842

                     28                     29                     30
                      A                      A                      A
 Frequencies --   1487.8443              1614.8024              2227.1627
 Red. masses --      4.5763                 6.4013                12.6803
 Frc consts  --      5.9687                 9.8346                37.0582
 IR Inten    --    216.8680                29.7493              1011.6885

                     31                     32                     33
                      A                      A                      A
 Frequencies --   3108.4506              3133.1992              3138.4966
 Red. masses --      1.0853                 1.0920                 1.0889
 Frc consts  --      6.1785                 6.3160                 6.3196
 IR Inten    --     61.2908               131.3476                25.4933

 - Thermochemistry -
 -------------------
 Temperature   298.150 Kelvin.  Pressure   1.00000 Atm.
 Atom     1 has atomic number  6 and mass  12.00000

 Molecular mass:   133.01638 amu.
 Principal axes and moments of inertia in atomic units:
                           1         2         3
     Eigenvalues --   766.879511632.472202399.34561
           X            0.43146   0.79241  -0.43119
           Y            0.88658  -0.46082   0.04027
           Z            0.16679   0.39966   0.90136
 This molecule is an asymmetric top.
 Rotational symmetry number  1.
 Warning -- assumption of classical behavior for rotation
           may cause significant error
 Rotational temperatures (Kelvin)      0.11294     0.05306     0.03610
 Rotational constants (GHZ):           2.35336     1.10553     0.75218
 Zero-point vibrational energy     211577.5 (Joules/Mol)
                                   50.56825 (Kcal/Mol)
 Warning -- explicit consideration of  10 degrees of freedom as
           vibrations may cause significant error
 Vibrational temperatures:    162.38   208.28   216.64   478.50   491.06
          (Kelvin)            587.68   628.50   667.48   745.50   747.47
                              896.30   919.04  1022.47  1057.87  1173.19
                             1175.03  1197.08  1348.56  1354.74  1575.24
                             1651.29  1740.75  1775.54  1878.39  1919.63
                             2021.22  2089.69  2140.68  2323.34  3204.39
                             4472.37  4507.97  4515.60

 Zero-point correction=                           0.080586 (Hartree/Particle)
 Thermal correction to Energy=                    0.088350
 Thermal correction to Enthalpy=                  0.089294
 Thermal correction to Gibbs Free Energy=         0.047794
 Sum of electronic and zero-point Energies=           -474.042925
 Sum of electronic and thermal Energies=              -474.035161
 Sum of electronic and thermal Enthalpies=            -474.034217
 Sum of electronic and thermal Free Energies=         -474.075717

                     E (Thermal)             CV                S
                      KCal/Mol        Cal/Mol-Kelvin    Cal/Mol-Kelvin
 Total                   55.440             29.266             87.345
 Electronic               0.000              0.000              0.000
 Translational            0.889              2.981             40.568
 Rotational               0.889              2.981             29.486
 Vibrational             53.663             23.304             17.290
 Vibration     1          0.607              1.939              3.219
 Vibration     2          0.616              1.908              2.740
 Vibration     3          0.618              1.902              2.665
 Vibration     4          0.715              1.610              1.248
 Vibration     5          0.721              1.593              1.206
 Vibration     6          0.773              1.452              0.932
 Vibration     7          0.797              1.390              0.837
 Vibration     8          0.821              1.330              0.755
 Vibration     9          0.873              1.210              0.614
 Vibration    10          0.875              1.207              0.611

 Optimization completed.
    -- Stationary point found.
 Normal termination of Gaussian 16 at Sat Feb 10 10:18:44 2024.
