 Q-Chem 5.4, Q-Chem, Inc., Pleasanton, CA (2021)
 Q-Chem 5.4.0 for Intel X86 EM64T Linux

User input:
--------------------------------------------------------------
$molecule
0 1
C                  2.9064240000      2.5203060000     -0.3617340000
O                  2.5440130000      1.1511030000     -0.2392320000
C                  1.2388050000      0.8123170000     -0.1632530000
C                  0.2170920000      1.7673700000     -0.1917370000
C                 -1.1135770000      1.3941090000     -0.1176010000
C                 -1.4825980000      0.0489260000     -0.0118490000
O                 -2.7739820000     -0.3406100000      0.0570870000
C                 -3.8041890000      0.6380760000      0.0144990000
C                 -0.4711600000     -0.9420990000      0.0200750000
C                 -0.8369580000     -2.3914790000      0.1283760000
O                 -1.9808040000     -2.7995330000      0.2517110000
C                  0.2628690000     -3.3807160000      0.0837050000
C                  1.5458830000     -3.0207300000      0.0134990000
C                  1.9708560000     -1.6036710000     -0.0253970000
O                  3.1660450000     -1.3554020000     -0.0292920000
C                  0.8975440000     -0.5581430000     -0.0556460000
H                  3.9936600000      2.5257290000     -0.4092960000
H                  2.5792870000      3.1026960000      0.5063690000
H                  2.5013120000      2.9640820000     -1.2776480000
H                  0.4553400000      2.8184750000     -0.2728090000
H                 -1.8692170000      2.1664390000     -0.1433080000
H                 -4.7347180000      0.0775530000      0.0801670000
H                 -3.7378940000      1.3297120000      0.8613030000
H                 -3.7860760000      1.2017650000     -0.9245720000
H                 -0.0543060000     -4.4168640000      0.1301870000
H                  2.3573510000     -3.7402130000     -0.0017270000
$end
$rem
MAX_SCF_CYCLES=200
BASIS  =  6-311++G(d,p)
GUI  =  2
JOB_TYPE  =  SP
METHOD  =  B3LYP
SOLVENT_METHOD = PCM
$end
$pcm
theory = CPCM
$end
$solvent
dielectric 37.219
opticaldielectric 1.43
$end

--------------------------------------------------------------

             Standard Nuclear Orientation (Angstroms)
    I     Atom           X                Y                Z
 ----------------------------------------------------------------
    1      C       2.9064240000     2.5203060000    -0.3617340000
    2      O       2.5440130000     1.1511030000    -0.2392320000
    3      C       1.2388050000     0.8123170000    -0.1632530000
    4      C       0.2170920000     1.7673700000    -0.1917370000
    5      C      -1.1135770000     1.3941090000    -0.1176010000
    6      C      -1.4825980000     0.0489260000    -0.0118490000
    7      O      -2.7739820000    -0.3406100000     0.0570870000
    8      C      -3.8041890000     0.6380760000     0.0144990000
    9      C      -0.4711600000    -0.9420990000     0.0200750000
   10      C      -0.8369580000    -2.3914790000     0.1283760000
   11      O      -1.9808040000    -2.7995330000     0.2517110000
   12      C       0.2628690000    -3.3807160000     0.0837050000
   13      C       1.5458830000    -3.0207300000     0.0134990000
   14      C       1.9708560000    -1.6036710000    -0.0253970000
   15      O       3.1660450000    -1.3554020000    -0.0292920000
   16      C       0.8975440000    -0.5581430000    -0.0556460000
   17      H       3.9936600000     2.5257290000    -0.4092960000
   18      H       2.5792870000     3.1026960000     0.5063690000
   19      H       2.5013120000     2.9640820000    -1.2776480000
   20      H       0.4553400000     2.8184750000    -0.2728090000
   21      H      -1.8692170000     2.1664390000    -0.1433080000
   22      H      -4.7347180000     0.0775530000     0.0801670000
   23      H      -3.7378940000     1.3297120000     0.8613030000
   24      H      -3.7860760000     1.2017650000    -0.9245720000
   25      H      -0.0543060000    -4.4168640000     0.1301870000
   26      H       2.3573510000    -3.7402130000    -0.0017270000
 ----------------------------------------------------------------

    8    -764.3733458919      7.85e-06  Convergence criterion met
 Total energy in the final basis set =     -764.3733458919

                    Orbital Energies (a.u.)
 --------------------------------------------------------------

 Alpha MOs
 -- Occupied --
-19.1683 -19.1682 -19.1260 -19.1260 -10.2794 -10.2794 -10.2609 -10.2608
-10.2228 -10.2227 -10.2108 -10.2104 -10.2031 -10.2022 -10.1980 -10.1974
 -1.0896  -1.0885  -1.0603  -1.0588  -0.8845  -0.8356  -0.7851  -0.7811
 -0.7286  -0.7012  -0.6921  -0.6469  -0.6364  -0.5813  -0.5475  -0.5448
 -0.5224  -0.5220  -0.4966  -0.4849  -0.4819  -0.4772  -0.4612  -0.4479
 -0.4434  -0.4369  -0.4246  -0.4246  -0.4143  -0.4122  -0.3936  -0.3921
 -0.3616  -0.3552  -0.3485  -0.3149  -0.3018  -0.2831  -0.2741  -0.2638
 -0.2292

          Ground-State Mulliken Net Atomic Charges

     Atom                 Charge (a.u.)
  ----------------------------------------
      1 C                    -0.333425
      2 O                    -0.155535
      3 C                     0.011538
      4 C                    -0.058724
      5 C                    -0.062495
      6 C                     0.012795
      7 O                    -0.155339
      8 C                    -0.333655
      9 C                    -0.043264
     10 C                     0.015384
     11 O                    -0.335738
     12 C                    -0.156998
     13 C                    -0.156582
     14 C                     0.019243
     15 O                    -0.335527
     16 C                    -0.046345
     17 H                     0.211660
     18 H                     0.176675
     19 H                     0.175876
     20 H                     0.249150
     21 H                     0.249931
     22 H                     0.211828
     23 H                     0.176735
     24 H                     0.175572
     25 H                     0.243647
     26 H                     0.243594
  ----------------------------------------
  Sum of atomic charges =     0.000000

                    Cartesian Multipole Moments
 -----------------------------------------------------------------
    Charge (ESU x 10^10)
                 0.0000
    Dipole Moment (Debye)
         X      -2.0246      Y       7.0488      Z      -0.7739
       Tot       7.3745
    Quadrupole Moments (Debye-Ang)
        XX    -100.4539     XY      -6.9834     YY     -77.5400
        XZ       0.6068     YZ      -0.4599     ZZ     -93.1143

 Total job time:  41.39s(wall), 267.47s(cpu)
        *  Thank you very much for using Q-Chem.  Have a nice day.  *
