 Q-Chem 5.4, Q-Chem, Inc., Pleasanton, CA (2021)
 Q-Chem 5.4.0 for Intel X86 EM64T Linux

User input:
--------------------------------------------------------------
$molecule
-2 1
C                  2.5941740000     -0.1623960000      0.7048720000
O                  1.8283780000      0.2085310000     -0.4330580000
C                  0.4388350000      0.1028000000     -0.2545430000
C                 -0.3077320000      1.2582720000     -0.4875290000
C                 -1.7392410000      1.3089630000     -0.4248200000
O                 -2.4306840000      2.3854770000     -0.6447030000
C                 -2.3288740000      0.0450960000     -0.0834320000
C                 -1.5775860000     -1.1072520000      0.1514330000
C                 -0.1492560000     -1.1742660000      0.0692830000
O                  0.5317450000     -2.2655050000      0.2543920000
H                  2.3506900000     -1.1845090000      1.0091470000
H                  3.6526920000     -0.0870560000      0.4249380000
H                  2.4092210000      0.5326090000      1.5431790000
H                  0.2267000000      2.1742350000     -0.7328550000
H                 -3.4171470000      0.0098900000     -0.0139270000
H                 -2.0819160000     -2.0448890000      0.3901820000
$end

$rem
BASIS  =  6-311++G(d,p)
GUI  =  2
JOB_TYPE  =  SP
METHOD  =  B3LYP
SCF_CONVERGENCE  = 8
SOLVENT_METHOD = sm12
$end

$smx
solvent dimethylformamide
charges CM5
$end

--------------------------------------------------------------

             Standard Nuclear Orientation (Angstroms)
    I     Atom           X                Y                Z
 ----------------------------------------------------------------
    1      C       2.5941740000    -0.1623960000     0.7048720000
    2      O       1.8283780000     0.2085310000    -0.4330580000
    3      C       0.4388350000     0.1028000000    -0.2545430000
    4      C      -0.3077320000     1.2582720000    -0.4875290000
    5      C      -1.7392410000     1.3089630000    -0.4248200000
    6      O      -2.4306840000     2.3854770000    -0.6447030000
    7      C      -2.3288740000     0.0450960000    -0.0834320000
    8      C      -1.5775860000    -1.1072520000     0.1514330000
    9      C      -0.1492560000    -1.1742660000     0.0692830000
   10      O       0.5317450000    -2.2655050000     0.2543920000
   11      H       2.3506900000    -1.1845090000     1.0091470000
   12      H       3.6526920000    -0.0870560000     0.4249380000
   13      H       2.4092210000     0.5326090000     1.5431790000
   14      H       0.2267000000     2.1742350000    -0.7328550000
   15      H      -3.4171470000     0.0098900000    -0.0139270000
   16      H      -2.0819160000    -2.0448890000     0.3901820000
 ----------------------------------------------------------------

   25    -496.0793352648      5.33e-09  Convergence criterion met
 Total energy in the final basis set =     -496.3860511801

                    Orbital Energies (a.u.)
 --------------------------------------------------------------

 Alpha MOs
 -- Occupied --
-19.1311 -19.0254 -19.0234 -10.2122 -10.1964 -10.1882 -10.1849 -10.1482
-10.1450 -10.1433  -1.0378  -0.9352  -0.9319  -0.7956  -0.7291  -0.6810
 -0.6537  -0.5814  -0.5517  -0.4785  -0.4662  -0.4506  -0.4448  -0.4222
 -0.4088  -0.3698  -0.3634  -0.3553  -0.3398  -0.3361  -0.3188  -0.2802
 -0.2354  -0.2243  -0.2018  -0.1979  -0.1290

          Ground-State Mulliken Net Atomic Charges

     Atom                 Charge (a.u.)
  ----------------------------------------
      1 C                     0.264101
      2 O                    -0.026638
      3 C                     0.560670
      4 C                    -0.038233
      5 C                    -1.272605
      6 O                    -0.415002
      7 C                    -0.462792
      8 C                    -0.517819
      9 C                    -0.237986
     10 O                    -0.368668
     11 H                     0.112874
     12 H                     0.308156
     13 H                     0.087690
     14 H                     0.013367
     15 H                    -0.014053
     16 H                     0.006938
  ----------------------------------------
  Sum of atomic charges =    -2.000000

                    Cartesian Multipole Moments
 -----------------------------------------------------------------
    Charge (ESU x 10^10)
                -9.6064
    Dipole Moment (Debye)
         X       9.1717      Y      -1.3458      Z       2.7313
       Tot       9.6639
    Quadrupole Moments (Debye-Ang)
        XX    -100.8365     XY      22.6300     YY    -111.5428
        XZ      -3.3450     YZ       8.3865     ZZ     -72.2201

 Total job time:  244.56s(wall), 1777.69s(cpu)
        *  Thank you very much for using Q-Chem.  Have a nice day.  *
