 Gaussian 16, Revision A.03,
 Gaussian 16:  ES64L-G16RevA.03 25-Dec-2016

 ----------------------------------------------------------------
 #P UB3LYP/6-311++G(d,p) SCRF=(PCM,Solvent=n,n-DiMethylFormamide)
 ----------------------------------------------------------------

 ------------------
 Radical PCM in DMF
 ------------------
 Symbolic Z-matrix:
 Charge = -1 Multiplicity = 2

                         Standard orientation:
 ---------------------------------------------------------------------
 Center     Atomic      Atomic             Coordinates (Angstroms)
 Number     Number       Type             X           Y           Z
 ---------------------------------------------------------------------
      1          6           0        2.471281   -0.666840   -0.149176
      2          6           0        3.656328    0.040165   -0.102962
      3          6           0        3.675985    1.451881   -0.028250
      4          6           0        1.243905    0.019876   -0.113365
      5          6           0        1.241363    1.442220   -0.036292
      6          6           0        2.478304    2.127939    0.000275
      7          6           0       -0.000074   -0.761057   -0.149667
      8          6           0       -1.243987    0.019979   -0.113399
      9          6           0       -1.241378    1.442316   -0.036206
     10          6           0        0.000028    2.214204    0.006491
     11          6           0       -2.471394   -0.666663   -0.149393
     12          6           0       -2.478282    2.128084    0.000468
     13          6           0       -3.676006    1.452083   -0.028051
     14          8           0       -0.000141   -2.005814   -0.197718
     15          8           0        0.000087    3.467020    0.077581
     16          1           0        2.456401   -1.747219   -0.220300
     17          1           0       -4.621601    1.978924   -0.008521
     18          1           0        2.447333    3.209647    0.049953
     19          1           0       -2.456551   -1.747024   -0.220784
     20          1           0       -2.447278    3.209789    0.050195
     21          6           0       -3.656407    0.040379   -0.103020
     22         16           0        5.200590   -0.844275   -0.081993
     23         16           0       -5.200631   -0.844127   -0.082026
     24          8           0       -4.977340   -2.213230   -0.554876
     25          8           0       -6.263940   -0.026058   -0.673558
     26          7           0       -5.583315   -0.872102    1.586857
     27          1           0       -5.136302   -1.671045    2.028946
     28          1           0       -6.594131   -0.945039    1.670062
     29          8           0        4.977092   -2.213859   -0.553338
     30          8           0        6.263520   -0.026784   -0.675000
     31          7           0        5.584224   -0.870435    1.586684
     32          1           0        4.621603    1.978685   -0.008845
     33          1           0        6.595089   -0.943197    1.669437
     34          1           0        5.137515   -1.668907    2.029926
 ---------------------------------------------------------------------

 SCF Done:  E(UB3LYP) =  -1897.15419161     A.U. after   20 cycles

 The electronic state is 2-A.
 Alpha  occ. eigenvalues --  -89.07971 -89.07971 -19.13331 -19.13331 -19.13294
 Alpha  occ. eigenvalues --  -19.13293 -19.09461 -19.08913 -14.34724 -14.34724
 Alpha  occ. eigenvalues --  -10.24579 -10.23703 -10.22131 -10.22131 -10.20080
 Alpha  occ. eigenvalues --  -10.20080 -10.19798 -10.19798 -10.19343 -10.19342
 Alpha  occ. eigenvalues --  -10.19298 -10.19297 -10.18804 -10.18804  -8.14150
 Alpha  occ. eigenvalues --   -8.14150  -6.10430  -6.10430  -6.10408  -6.10408
 Alpha  occ. eigenvalues --   -6.10226  -6.10226  -1.13539  -1.13539  -1.02617
 Alpha  occ. eigenvalues --   -1.02616  -1.02519  -1.01613  -0.91488  -0.91485
 Alpha  occ. eigenvalues --   -0.88699  -0.87983  -0.81718  -0.78446  -0.77800
 Alpha  occ. eigenvalues --   -0.77042  -0.71331  -0.68616  -0.68005  -0.63408
 Alpha  occ. eigenvalues --   -0.62762  -0.60557  -0.57898  -0.56200  -0.55995
 Alpha  occ. eigenvalues --   -0.53324  -0.53121  -0.52493  -0.52129  -0.51102
 Alpha  occ. eigenvalues --   -0.49761  -0.49551  -0.48252  -0.46755  -0.46388
 Alpha  occ. eigenvalues --   -0.44975  -0.44599  -0.44261  -0.43952  -0.43652
 Alpha  occ. eigenvalues --   -0.42949  -0.41217  -0.39636  -0.39474  -0.39245
 Alpha  occ. eigenvalues --   -0.37586  -0.37377  -0.37009  -0.36489  -0.36133
 Alpha  occ. eigenvalues --   -0.34826  -0.34770  -0.33684  -0.33578  -0.32608
 Alpha  occ. eigenvalues --   -0.32540  -0.30581  -0.30530  -0.28425  -0.27990
 Alpha  occ. eigenvalues --   -0.27628  -0.27001  -0.26215  -0.25252  -0.15978
 Alpha virt. eigenvalues --   -0.07597  -0.06010  -0.02394  -0.01187  -0.00824
 Alpha virt. eigenvalues --    0.00149   0.00780   0.01489   0.01766   0.02693
 Alpha virt. eigenvalues --    0.03062   0.03520   0.03817   0.03963   0.04595

  Beta  occ. eigenvalues --  -89.07971 -89.07971 -19.13325 -19.13324 -19.13292
  Beta  occ. eigenvalues --  -19.13291 -19.08962 -19.08278 -14.34720 -14.34720
  Beta  occ. eigenvalues --  -10.24470 -10.23545 -10.22067 -10.22066 -10.20115
  Beta  occ. eigenvalues --  -10.20114 -10.19735 -10.19735 -10.19248 -10.19247
  Beta  occ. eigenvalues --  -10.19203 -10.19202 -10.18805 -10.18805  -8.14150
  Beta  occ. eigenvalues --   -8.14150  -6.10428  -6.10428  -6.10408  -6.10408
  Beta  occ. eigenvalues --   -6.10228  -6.10228  -1.13528  -1.13527  -1.02607
  Beta  occ. eigenvalues --   -1.02607  -1.01663  -1.00506  -0.91472  -0.91470
  Beta  occ. eigenvalues --   -0.88462  -0.87868  -0.81317  -0.78290  -0.77568
  Beta  occ. eigenvalues --   -0.76898  -0.70978  -0.68479  -0.67545  -0.63245
  Beta  occ. eigenvalues --   -0.62591  -0.60482  -0.57711  -0.56016  -0.55929
  Beta  occ. eigenvalues --   -0.53277  -0.53067  -0.52439  -0.52037  -0.51038
  Beta  occ. eigenvalues --   -0.49667  -0.49314  -0.48175  -0.46702  -0.46353
  Beta  occ. eigenvalues --   -0.44947  -0.44564  -0.44025  -0.43543  -0.42753
  Beta  occ. eigenvalues --   -0.42477  -0.40872  -0.39346  -0.38925  -0.37509
  Beta  occ. eigenvalues --   -0.37344  -0.37339  -0.36932  -0.35985  -0.35510
  Beta  occ. eigenvalues --   -0.34806  -0.34686  -0.33639  -0.33554  -0.32564
  Beta  occ. eigenvalues --   -0.32513  -0.30486  -0.30153  -0.27681  -0.26754
  Beta  occ. eigenvalues --   -0.26423  -0.26418  -0.25718  -0.24697
  Beta virt. eigenvalues --   -0.10170  -0.06838  -0.05007  -0.02162  -0.01175
  Beta virt. eigenvalues --   -0.00819   0.00644   0.00982   0.01525   0.01774
  Beta virt. eigenvalues --    0.02776   0.03091   0.03525   0.03858   0.04040

 Mulliken charges and spin densities:
               1          2
     1  C   -0.061168  -0.017338
     2  C   -0.353470   0.033066
     3  C   -0.427811   0.053967
     4  C    0.200388   0.059328
     5  C    0.656317   0.055730
     6  C   -0.203551   0.028054
     7  C   -0.869611   0.060105
     8  C    0.199463   0.059328
     9  C    0.656338   0.055715
    10  C   -0.218089   0.088705
    11  C   -0.061373  -0.017335
    12  C   -0.203130   0.028060
    13  C   -0.428213   0.053963
    14  O   -0.388428   0.184442
    15  O   -0.416342   0.237256
    16  H    0.234666   0.000734
    17  H    0.257148  -0.003507
    18  H    0.173047  -0.001468
    19  H    0.234654   0.000734
    20  H    0.173064  -0.001468
    21  C   -0.352354   0.033077
    22  S    0.340943   0.005031
    23  S    0.341008   0.005016
    24  O   -0.249156   0.001940
    25  O   -0.317101  -0.001856
    26  N   -0.440754   0.000410
    27  H    0.306708  -0.000264
    28  H    0.329895   0.000931
    29  O   -0.249035   0.001937
    30  O   -0.317093  -0.001859
    31  N   -0.440736   0.000405
    32  H    0.257198  -0.003508
    33  H    0.329892   0.000930
    34  H    0.306687  -0.000264
 Sum of Mulliken charges =  -1.00000   1.00000

 Dipole moment (field-independent basis, Debye):
    X=              0.0022    Y=             -0.8338    Z=              7.5390  Tot=              7.5850
 Quadrupole moment (field-independent basis, Debye-Ang):
   XX=           -216.7876   YY=           -192.8636   ZZ=           -154.6600
   XY=              0.0178   XZ=              0.0106   YZ=            -15.6725

 Normal termination of Gaussian 16 at Tue Jan 16 06:06:57 2024.
