 Q-Chem 5.4, Q-Chem, Inc., Pleasanton, CA (2021)
 Q-Chem 5.4.0 for Intel X86 EM64T Linux

User input:
--------------------------------------------------------------
$molecule
-1 2
C                  4.9790560000     -2.7055140000      0.0117400000
C                  5.6972770000     -1.7544470000     -0.6853680000
C                  5.0608370000     -0.6697760000     -1.3313900000
C                  3.5786230000     -2.6020260000      0.0977180000
C                  2.9178070000     -1.5157880000     -0.5444800000
C                  3.6910750000     -0.5682060000     -1.2556180000
C                  2.8436000000     -3.6216000000      0.8585510000
C                  1.3845990000     -3.4544260000      0.9034950000
C                  0.7283370000     -2.3663580000      0.2597290000
C                  1.4657420000     -1.3505280000     -0.4906340000
C                  0.6202080000     -4.3990800000      1.6124640000
C                 -0.6799980000     -2.2663210000      0.3499590000
C                 -1.4226750000     -3.1886120000      1.0500610000
O                  3.4211960000     -4.5615880000      1.4369410000
O                  0.8859310000     -0.3910850000     -1.0544520000
H                  5.4653230000     -3.5437570000      0.4948450000
H                 -2.5011030000     -3.1152490000      1.1109060000
H                  3.1623080000      0.2426820000     -1.7418120000
H                  1.1326610000     -5.2272820000      2.0857180000
H                 -1.1541070000     -1.4341710000     -0.1562690000
C                 -0.7516400000     -4.2599750000      1.6831540000
S                  7.4732560000     -1.8607700000     -0.7302140000
S                 -1.6992420000     -5.4245760000      2.6387560000
O                 -0.8952680000     -6.6290330000      2.8641390000
O                 -3.0585570000     -5.5377570000      2.1009600000
N                 -1.9112170000     -4.5943150000      4.1213670000
H                 -1.1143830000     -4.7662180000      4.7288850000
H                 -2.7629720000     -4.9451310000      4.5519860000
O                  7.8835500000     -3.2177820000     -0.3586600000
O                  7.9891580000     -1.2467030000     -1.9576250000
N                  7.9362060000     -0.7667280000      0.5031120000
H                  5.6502040000      0.0514950000     -1.8832130000
H                  8.8671800000     -0.4249690000      0.2784360000
H                  7.9447590000     -1.2438340000      1.4008120000
$end
$rem
MAX_SCF_CYCLES=200
BASIS  =  6-311++G(d,p)
GUI  =  2
JOB_TYPE  =  SP
METHOD  =  B3LYP
SOLVENT_METHOD = PCM
$end
$pcm
theory = CPCM
$end
$solvent
dielectric 37.219
opticaldielectric 1.43
$end

--------------------------------------------------------------

             Standard Nuclear Orientation (Angstroms)
    I     Atom           X                Y                Z
 ----------------------------------------------------------------
    1      C       4.9790560000    -2.7055140000     0.0117400000
    2      C       5.6972770000    -1.7544470000    -0.6853680000
    3      C       5.0608370000    -0.6697760000    -1.3313900000
    4      C       3.5786230000    -2.6020260000     0.0977180000
    5      C       2.9178070000    -1.5157880000    -0.5444800000
    6      C       3.6910750000    -0.5682060000    -1.2556180000
    7      C       2.8436000000    -3.6216000000     0.8585510000
    8      C       1.3845990000    -3.4544260000     0.9034950000
    9      C       0.7283370000    -2.3663580000     0.2597290000
   10      C       1.4657420000    -1.3505280000    -0.4906340000
   11      C       0.6202080000    -4.3990800000     1.6124640000
   12      C      -0.6799980000    -2.2663210000     0.3499590000
   13      C      -1.4226750000    -3.1886120000     1.0500610000
   14      O       3.4211960000    -4.5615880000     1.4369410000
   15      O       0.8859310000    -0.3910850000    -1.0544520000
   16      H       5.4653230000    -3.5437570000     0.4948450000
   17      H      -2.5011030000    -3.1152490000     1.1109060000
   18      H       3.1623080000     0.2426820000    -1.7418120000
   19      H       1.1326610000    -5.2272820000     2.0857180000
   20      H      -1.1541070000    -1.4341710000    -0.1562690000
   21      C      -0.7516400000    -4.2599750000     1.6831540000
   22      S       7.4732560000    -1.8607700000    -0.7302140000
   23      S      -1.6992420000    -5.4245760000     2.6387560000
   24      O      -0.8952680000    -6.6290330000     2.8641390000
   25      O      -3.0585570000    -5.5377570000     2.1009600000
   26      N      -1.9112170000    -4.5943150000     4.1213670000
   27      H      -1.1143830000    -4.7662180000     4.7288850000
   28      H      -2.7629720000    -4.9451310000     4.5519860000
   29      O       7.8835500000    -3.2177820000    -0.3586600000
   30      O       7.9891580000    -1.2467030000    -1.9576250000
   31      N       7.9362060000    -0.7667280000     0.5031120000
   32      H       5.6502040000     0.0514950000    -1.8832130000
   33      H       8.8671800000    -0.4249690000     0.2784360000
   34      H       7.9447590000    -1.2438340000     1.4008120000
 ----------------------------------------------------------------

    8   -1897.1658087721      7.70e-06  Convergence criterion met
 Total energy in the final basis set =    -1897.1658087721

                    Orbital Energies (a.u.)
 --------------------------------------------------------------

 Alpha MOs
 -- Occupied --
-89.0783 -89.0783 -19.1324 -19.1324 -19.1323 -19.1323 -19.0949 -19.0900
-14.3417 -14.3416 -10.2467 -10.2382 -10.2203 -10.2203 -10.1996 -10.1996
-10.1962 -10.1962 -10.1932 -10.1932 -10.1928 -10.1928 -10.1868 -10.1868
 -8.1401  -8.1401  -6.1029  -6.1029  -6.1028  -6.1027  -6.1009  -6.1009
 -1.1344  -1.1343  -1.0260  -1.0256  -1.0255  -1.0172  -0.9099  -0.9098
 -0.8862  -0.8788  -0.8165  -0.7834  -0.7771  -0.7695  -0.7123  -0.6846
 -0.6794  -0.6326  -0.6265  -0.6041  -0.5780  -0.5599  -0.5579  -0.5289
 -0.5260  -0.5226  -0.5198  -0.5098  -0.4964  -0.4949  -0.4812  -0.4669
 -0.4633  -0.4484  -0.4447  -0.4422  -0.4397  -0.4360  -0.4305  -0.4118
 -0.3972  -0.3941  -0.3915  -0.3746  -0.3724  -0.3688  -0.3641  -0.3607
 -0.3475  -0.3470  -0.3362  -0.3352  -0.3255  -0.3247  -0.3036  -0.3034
 -0.2834  -0.2790  -0.2756  -0.2690  -0.2632  -0.2535  -0.1599

 Beta MOs
 -- Occupied --
-89.0783 -89.0783 -19.1324 -19.1324 -19.1323 -19.1323 -19.0903 -19.0842
-14.3416 -14.3416 -10.2454 -10.2364 -10.2197 -10.2197 -10.1999 -10.1999
-10.1955 -10.1955 -10.1923 -10.1923 -10.1919 -10.1919 -10.1868 -10.1868
 -8.1401  -8.1401  -6.1029  -6.1028  -6.1028  -6.1027  -6.1009  -6.1009
 -1.1342  -1.1342  -1.0255  -1.0255  -1.0178  -1.0067  -0.9097  -0.9097
 -0.8838  -0.8776  -0.8125  -0.7819  -0.7747  -0.7680  -0.7087  -0.6833
 -0.6748  -0.6309  -0.6247  -0.6034  -0.5760  -0.5580  -0.5572  -0.5283
 -0.5254  -0.5222  -0.5189  -0.5092  -0.4955  -0.4926  -0.4804  -0.4663
 -0.4630  -0.4481  -0.4442  -0.4399  -0.4349  -0.4275  -0.4259  -0.4087
 -0.3928  -0.3882  -0.3749  -0.3734  -0.3721  -0.3680  -0.3593  -0.3546
 -0.3473  -0.3462  -0.3358  -0.3349  -0.3250  -0.3244  -0.3026  -0.2993
 -0.2757  -0.2670  -0.2650  -0.2633  -0.2586  -0.2484

          Ground-State Mulliken Net Atomic Charges

     Atom                 Charge (a.u.)    Spin (a.u.)
  --------------------------------------------------------
      1 C                    -0.064236      -0.013742
      2 C                    -0.373929       0.032587
      3 C                    -0.437422       0.054014
      4 C                     0.184914       0.056401
      5 C                     0.682895       0.052224
      6 C                    -0.242032       0.029570
      7 C                    -0.867679       0.070143
      8 C                     0.193635       0.056435
      9 C                     0.695138       0.051990
     10 C                    -0.137438       0.100195
     11 C                    -0.064142      -0.013650
     12 C                    -0.235869       0.029353
     13 C                    -0.426577       0.054029
     14 O                    -0.407194       0.177131
     15 O                    -0.438301       0.227021
     16 H                     0.243952       0.000421
     17 H                     0.275442      -0.003515
     18 H                     0.181247      -0.001502
     19 H                     0.245177       0.000407
     20 H                     0.180972      -0.001491
     21 C                    -0.391297       0.032388
     22 S                     0.376875       0.005302
     23 S                     0.370279       0.005323
     24 O                    -0.271252       0.001910
     25 O                    -0.330671      -0.001784
     26 N                    -0.476036       0.000465
     27 H                     0.322804      -0.000226
     28 H                     0.346197       0.000877
     29 O                    -0.271019       0.001894
     30 O                    -0.330929      -0.001811
     31 N                    -0.477199       0.000515
     32 H                     0.274847      -0.003509
     33 H                     0.346089       0.000880
     34 H                     0.322725      -0.000246
  --------------------------------------------------------
  Sum of atomic charges =    -1.000035

                    Cartesian Multipole Moments
 -----------------------------------------------------------------
    Charge (ESU x 10^10)
                -4.8034
    Dipole Moment (Debye)
         X     -11.0217      Y      18.2375      Z       3.9528
       Tot      21.6728
    Quadrupole Moments (Debye-Ang)
        XX    -233.7204     XY      41.4926     YY    -262.4414
        XZ      25.3163     YZ       6.5140     ZZ    -150.7575

 Total job time:  133.10s(wall), 709.24s(cpu)
        *  Thank you very much for using Q-Chem.  Have a nice day.  *
