 Gaussian 16, Revision A.03,
 Gaussian 16:  ES64L-G16RevA.03 25-Dec-2016

 --------------------------------------
 #P UB3LYP/6-311++G(d,p) nosym opt freq
 --------------------------------------

 -------
 Reduced
 -------
 Symbolic Z-matrix:
 Charge = -2 Multiplicity = 1

 SCF Done:  E(UB3LYP) =  -696.133820546     A.U. after   67 cycles
 SCF Done:  E(UB3LYP) =  -696.134293913     A.U. after   35 cycles
 SCF Done:  E(UB3LYP) =  -696.133547020     A.U. after  101 cycles
 SCF Done:  E(UB3LYP) =  -696.134228686     A.U. after   76 cycles
 SCF Done:  E(UB3LYP) =  -696.134474046     A.U. after   28 cycles
 SCF Done:  E(UB3LYP) =  -696.134519602     A.U. after   24 cycles
 SCF Done:  E(UB3LYP) =  -696.134520677     A.U. after   25 cycles
 SCF Done:  E(UB3LYP) =  -696.134522097     A.U. after   29 cycles
 SCF Done:  E(UB3LYP) =  -696.134523112     A.U. after   25 cycles
 SCF Done:  E(UB3LYP) =  -696.134523495     A.U. after   23 cycles
 Optimization completed.
    -- Stationary point found.
 Normal termination of Gaussian 16 at Sat Jan  6 07:54:30 2024.

 ----------------------------------------------------------------------
 #P Geom=AllCheck Guess=TCheck SCRF=Check GenChk UB3LYP/6-311++G(d,p) F
 req
 ----------------------------------------------------------------------

 Structure from the checkpoint file:  "045-an.chk"
 -------
 Reduced
 -------
 Charge = -2 Multiplicity = 1

                          Input orientation:
 ---------------------------------------------------------------------
 Center     Atomic      Atomic             Coordinates (Angstroms)
 Number     Number       Type             X           Y           Z
 ---------------------------------------------------------------------
      1          6           0       -1.258917    1.842896   -0.874217
      2          6           0       -2.523628    1.189375   -0.806116
      3          6           0       -2.853004    0.117950    0.041479
      4          6           0       -1.863421   -0.411319    0.946324
      5          6           0       -0.598717    0.242223    0.878246
      6          6           0       -0.269329    1.313617    0.030620
      7          8           0       -1.038925    2.840745   -1.700179
      8          8           0       -2.083398   -1.409193    1.772260
      9          6           0        1.136924    1.947378    0.040651
     10          6           0        1.019545    3.449772    0.400690
     11          6           0        2.101317    1.294030    1.049233
     12          6           0        1.766549    1.820474   -1.369319
     13          6           0       -4.259280   -0.515762    0.031500
     14          6           0       -5.223667    0.137567   -0.977100
     15          6           0       -4.888881   -0.388783    1.441476
     16          6           0       -4.141951   -2.018171   -0.328482
     17          1           0       -3.264503    1.594001   -1.491314
     18          1           0        0.142133   -0.162354    1.563498
     19          1           0        0.316755    3.918025   -0.293665
     20          1           0        1.999770    3.951782    0.337855
     21          1           0        0.642263    3.562126    1.424184
     22          1           0        1.727799    1.374462    2.075149
     23          1           0        3.078715    1.795498    1.000655
     24          1           0        2.252492    0.231473    0.833326
     25          1           0        2.740943    2.335281   -1.417815
     26          1           0        1.924874    0.763800   -1.616061
     27          1           0        1.077771    2.258793   -2.096484
     28          1           0       -4.850306    0.056854   -2.003051
     29          1           0       -5.374591    1.200199   -0.761383
     30          1           0       -6.201158   -0.363699   -0.928301
     31          1           0       -5.047070    0.667907    1.688221
     32          1           0       -4.200157   -0.827199    2.168638
     33          1           0       -5.863344   -0.903465    1.489978
     34          1           0       -3.764793   -2.130572   -1.352019
     35          1           0       -5.122167   -2.520173   -0.265500
     36          1           0       -3.439073   -2.486390    0.365803
 ---------------------------------------------------------------------

 SCF Done:  E(UB3LYP) =  -696.134523495     A.U. after    2 cycles

 Alpha  occ. eigenvalues --  -18.74285 -18.74285  -9.93710  -9.93710  -9.93000
 Alpha  occ. eigenvalues --   -9.93000  -9.91201  -9.91201  -9.91201  -9.91201
 Alpha  occ. eigenvalues --   -9.90240  -9.90239  -9.87399  -9.87397  -9.85918
 Alpha  occ. eigenvalues --   -9.85917  -0.65368  -0.64922  -0.57105  -0.57034
 Alpha  occ. eigenvalues --   -0.50404  -0.45010  -0.44993  -0.43931  -0.43929
 Alpha  occ. eigenvalues --   -0.43569  -0.38238  -0.34260  -0.29282  -0.28426
 Alpha  occ. eigenvalues --   -0.24977  -0.21375  -0.20608  -0.19895  -0.19862
 Alpha  occ. eigenvalues --   -0.19781  -0.18907  -0.16725  -0.15478  -0.15296
 Alpha  occ. eigenvalues --   -0.15262  -0.14479  -0.13278  -0.12670  -0.12634
 Alpha  occ. eigenvalues --   -0.11431  -0.09322  -0.08948  -0.08648  -0.08206
 Alpha  occ. eigenvalues --   -0.07750  -0.07367  -0.06848  -0.04771  -0.04580
 Alpha  occ. eigenvalues --   -0.03022   0.04877   0.05205   0.07805   0.07920
 Alpha  occ. eigenvalues --    0.14909
 Alpha virt. eigenvalues --    0.16082   0.16089   0.18378   0.18443   0.18544
 Alpha virt. eigenvalues --    0.18719   0.19563   0.20341   0.21535   0.21544
 Alpha virt. eigenvalues --    0.21763   0.21963   0.22414   0.23215   0.23617

  Beta  occ. eigenvalues --  -18.74285 -18.74285  -9.93710  -9.93710  -9.93000
  Beta  occ. eigenvalues --   -9.93000  -9.91201  -9.91201  -9.91201  -9.91201
  Beta  occ. eigenvalues --   -9.90240  -9.90239  -9.87399  -9.87397  -9.85918
  Beta  occ. eigenvalues --   -9.85917  -0.65368  -0.64922  -0.57105  -0.57034
  Beta  occ. eigenvalues --   -0.50404  -0.45010  -0.44993  -0.43931  -0.43929
  Beta  occ. eigenvalues --   -0.43569  -0.38238  -0.34260  -0.29282  -0.28426
  Beta  occ. eigenvalues --   -0.24977  -0.21375  -0.20608  -0.19895  -0.19862
  Beta  occ. eigenvalues --   -0.19781  -0.18907  -0.16725  -0.15478  -0.15296
  Beta  occ. eigenvalues --   -0.15262  -0.14479  -0.13278  -0.12670  -0.12634
  Beta  occ. eigenvalues --   -0.11431  -0.09322  -0.08948  -0.08648  -0.08206
  Beta  occ. eigenvalues --   -0.07750  -0.07367  -0.06848  -0.04771  -0.04580
  Beta  occ. eigenvalues --   -0.03022   0.04877   0.05205   0.07805   0.07920
  Beta  occ. eigenvalues --    0.14909
  Beta virt. eigenvalues --    0.16082   0.16089   0.18378   0.18443   0.18544
  Beta virt. eigenvalues --    0.18719   0.19563   0.20341   0.21535   0.21544
  Beta virt. eigenvalues --    0.21763   0.21963   0.22414   0.23215   0.23617

 Mulliken charges and spin densities:
               1          2
     1  C   -1.398741  -0.000000
     2  C   -0.217627  -0.000000
     3  C    1.410862   0.000000
     4  C   -1.398746  -0.000000
     5  C   -0.217610   0.000000
     6  C    1.410832  -0.000000
     7  O   -0.549894   0.000000
     8  O   -0.549893   0.000000
     9  C    0.734195   0.000000
    10  C   -0.690275  -0.000000
    11  C   -0.637912  -0.000000
    12  C   -0.689989   0.000000
    13  C    0.734185  -0.000000
    14  C   -0.637910   0.000000
    15  C   -0.689970  -0.000000
    16  C   -0.690291   0.000000
    17  H    0.072717   0.000000
    18  H    0.072718   0.000000
    19  H    0.200816  -0.000000
    20  H    0.041011   0.000000
    21  H    0.083322   0.000000
    22  H    0.108567  -0.000000
    23  H    0.099199  -0.000000
    24  H    0.108569   0.000000
    25  H    0.041053  -0.000000
    26  H    0.083280  -0.000000
    27  H    0.200858   0.000000
    28  H    0.108555   0.000000
    29  H    0.108580  -0.000000
    30  H    0.099199   0.000000
    31  H    0.083299   0.000000
    32  H    0.200842  -0.000000
    33  H    0.041049   0.000000
    34  H    0.083302  -0.000000
    35  H    0.041014  -0.000000
    36  H    0.200833   0.000000
 Sum of Mulliken charges =  -2.00000  -0.00000

 Dipole moment (field-independent basis, Debye):
    X=             14.9972    Y=             -6.8761    Z=             -0.3463  Tot=             16.5020
 Quadrupole moment (field-independent basis, Debye-Ang):
   XX=           -176.1410   YY=           -158.5370   ZZ=           -138.4306
   XY=             -9.8045   XZ=              4.7800   YZ=             23.9156

  Exact polarizability: 379.100  98.509 228.441  11.826 -43.428 181.157
 Approx polarizability: 439.660  62.759 351.426  12.259 -45.251 320.370

                      1                      2                      3
                      A                      A                      A
 Frequencies --     49.9220                57.3061                86.4323
 Red. masses --      3.8939                 2.8782                 3.9323
 Frc consts  --      0.0057                 0.0056                 0.0173
 IR Inten    --      5.8314                 0.1622                 0.0000

                      4                      5                      6
                      A                      A                      A
 Frequencies --    160.8775               165.7444               183.0917
 Red. masses --      3.4146                 3.1522                 7.1251
 Frc consts  --      0.0521                 0.0510                 0.1407
 IR Inten    --      8.3266                 0.0000                10.7864

                      7                      8                      9
                      A                      A                      A
 Frequencies --    236.7241               241.9012               259.6359
 Red. masses --      3.2419                 3.6377                 1.0349
 Frc consts  --      0.1070                 0.1254                 0.0411
 IR Inten    --      0.0000                 0.0000                 0.1927

                     10                     11                     12
                      A                      A                      A
 Frequencies --    261.2476               298.9799               299.9369
 Red. masses --      1.0250                 2.3360                 4.1548
 Frc consts  --      0.0412                 0.1230                 0.2202
 IR Inten    --      0.0000                 5.2915                 0.0000

                     13                     14                     15
                      A                      A                      A
 Frequencies --    301.3469               301.6684               302.8479
 Red. masses --      1.2540                 2.6469                 1.1905
 Frc consts  --      0.0671                 0.1419                 0.0643
 IR Inten    --      0.0002                 3.9087                 0.4099

                     16                     17                     18
                      A                      A                      A
 Frequencies --    314.2688               315.9174               316.4087
 Red. masses --      1.0574                 2.1479                 1.1190
 Frc consts  --      0.0615                 0.1263                 0.0660
 IR Inten    --      1.2590                 0.0000                 0.0000

                     19                     20                     21
                      A                      A                      A
 Frequencies --    335.6407               376.7965               395.5957
 Red. masses --      4.6990                 2.4604                 2.3620
 Frc consts  --      0.3119                 0.2058                 0.2178
 IR Inten    --     14.2681                 0.0000                 0.8909

                     22                     23                     24
                      A                      A                      A
 Frequencies --    406.0258               417.6285               448.1001
 Red. masses --      2.6316                 2.8009                 3.1875
 Frc consts  --      0.2556                 0.2878                 0.3771
 IR Inten    --      0.0000                 7.4251                 1.8557

                     25                     26                     27
                      A                      A                      A
 Frequencies --    476.4244               502.8021               504.3459
 Red. masses --      5.8174                 2.7143                 4.6463
 Frc consts  --      0.7780                 0.4043                 0.6963
 IR Inten    --      0.0000                 0.4807                 0.0000

                     28                     29                     30
                      A                      A                      A
 Frequencies --    524.3856               617.5200               651.4713
 Red. masses --      3.3158                 3.6632                 4.7986
 Frc consts  --      0.5372                 0.8230                 1.1999
 IR Inten    --      0.0000                11.1347                 0.0000

                     31                     32                     33
                      A                      A                      A
 Frequencies --    712.2274               719.3739               728.5529
 Red. masses --      6.1350                 5.6008                 2.0790
 Frc consts  --      1.8336                 1.7077                 0.6502
 IR Inten    --      0.0000                 0.2197                 0.0000

                     34                     35                     36
                      A                      A                      A
 Frequencies --    807.1119               808.0779               832.2179
 Red. masses --      3.1452                 3.9084                 2.1213
 Frc consts  --      1.2071                 1.5037                 0.8656
 IR Inten    --      0.0000                50.9422                 0.0000

                     37                     38                     39
                      A                      A                      A
 Frequencies --    847.7767               858.9960               910.7808
 Red. masses --      1.6387                 3.0159                 1.7947
 Frc consts  --      0.6939                 1.3111                 0.8772
 IR Inten    --     53.5296                56.9893                 0.0000

                     40                     41                     42
                      A                      A                      A
 Frequencies --    911.3604               926.3663               926.8854
 Red. masses --      1.7810                 1.7688                 1.7319
 Frc consts  --      0.8715                 0.8943                 0.8766
 IR Inten    --      0.0044                11.9034                 0.0000

                     43                     44                     45
                      A                      A                      A
 Frequencies --    951.3423               951.4557              1012.5689
 Red. masses --      1.2137                 1.2139                 3.6754
 Frc consts  --      0.6472                 0.6475                 2.2203
 IR Inten    --      0.0000                 3.1769                 0.0000

                     46                     47                     48
                      A                      A                      A
 Frequencies --   1029.3913              1038.2315              1047.0062
 Red. masses --      1.4999                 1.3940                 1.3839
 Frc consts  --      0.9364                 0.8853                 0.8939
 IR Inten    --     42.5258                 0.0000                 0.0000

                     49                     50                     51
                      A                      A                      A
 Frequencies --   1047.2296              1097.7863              1172.3079
 Red. masses --      1.3851                 2.1553                 7.9916
 Frc consts  --      0.8950                 1.5303                 6.4709
 IR Inten    --      7.9136                47.5123               216.1421

                     52                     53                     54
                      A                      A                      A
 Frequencies --   1203.2489              1205.3409              1205.4066
 Red. masses --      2.3060                 2.6128                 2.6102
 Frc consts  --      1.9671                 2.2366                 2.2345
 IR Inten    --     72.1492                 3.7549                 0.0002

                     55                     56                     57
                      A                      A                      A
 Frequencies --   1213.2177              1231.9830              1253.9391
 Red. masses --      2.3356                 2.4251                 2.4630
 Frc consts  --      2.0254                 2.1686                 2.2817
 IR Inten    --      0.0000               228.4309                 0.0000

                     58                     59                     60
                      A                      A                      A
 Frequencies --   1265.1261              1274.1337              1309.5816
 Red. masses --      1.4436                 3.9831                 5.9507
 Frc consts  --      1.3613                 3.8098                 6.0129
 IR Inten    --      0.0000                36.7899                 0.0000

                     61                     62                     63
                      A                      A                      A
 Frequencies --   1344.7701              1344.8632              1352.1608
 Red. masses --      1.2142                 1.2148                 1.4848
 Frc consts  --      1.2937                 1.2946                 1.5994
 IR Inten    --     29.3100                 0.0001               242.0568

                     64                     65                     66
                      A                      A                      A
 Frequencies --   1361.7029              1374.1593              1388.1257
 Red. masses --      1.3216                 1.5501                 1.2445
 Frc consts  --      1.4439                 1.7246                 1.4129
 IR Inten    --      0.0000               189.7952                 0.0000

                     67                     68                     69
                      A                      A                      A
 Frequencies --   1409.0575              1453.5001              1454.3596
 Red. masses --      2.3391                 2.0392                 1.0480
 Frc consts  --      2.7362                 2.5383                 1.3060
 IR Inten    --    247.8476               172.8502                 0.0000

                     70                     71                     72
                      A                      A                      A
 Frequencies --   1454.6021              1455.8098              1480.4114
 Red. masses --      1.0480                 5.1414                 1.1833
 Frc consts  --      1.3064                 6.4201                 1.5279
 IR Inten    --      0.3256                 0.0000                 0.0000

                     73                     74                     75
                      A                      A                      A
 Frequencies --   1481.8699              1482.0576              1485.5067
 Red. masses --      1.0488                 1.0486                 1.2520
 Frc consts  --      1.3569                 1.3570                 1.6278
 IR Inten    --      0.0000                 2.4499                54.7382

                     76                     77                     78
                      A                      A                      A
 Frequencies --   1491.8779              1492.3245              1509.7629
 Red. masses --      1.0525                 1.0500                 1.0548
 Frc consts  --      1.3802                 1.3778                 1.4165
 IR Inten    --      0.0000                 4.0128                 8.1737

                     79                     80                     81
                      A                      A                      A
 Frequencies --   1509.8163              1526.4255              1527.0658
 Red. masses --      1.0548                 1.0540                 1.0604
 Frc consts  --      1.4167                 1.4469                 1.4570
 IR Inten    --      0.0000                 0.0000                 3.4204

                     82                     83                     84
                      A                      A                      A
 Frequencies --   1597.1245              2928.8731              2929.1125
 Red. masses --      6.2431                 1.0490                 1.0491
 Frc consts  --      9.3827                 5.3019                 5.3031
 IR Inten    --      0.0000                 0.0032                46.3361

                     85                     86                     87
                      A                      A                      A
 Frequencies --   2936.3067              2938.8352              2975.4441
 Red. masses --      1.0508                 1.0503                 1.0461
 Frc consts  --      5.3380                 5.3447                 5.4568
 IR Inten    --    942.6960                 0.0001               436.5428

                     88                     89                     90
                      A                      A                      A
 Frequencies --   2976.4402              3019.7266              3020.0623
 Red. masses --      1.0457                 1.0838                 1.0838
 Frc consts  --      5.4584                 5.8230                 5.8239
 IR Inten    --      0.0000                 0.0209               292.1353

                     91                     92                     93
                      A                      A                      A
 Frequencies --   3020.4189              3020.7895              3039.2537
 Red. masses --      1.0816                 1.0818                 1.0858
 Frc consts  --      5.8138                 5.8161                 5.9093
 IR Inten    --     90.6232                 0.0478               142.2816

                     94                     95                     96
                      A                      A                      A
 Frequencies --   3039.2927              3066.9202              3066.9880
 Red. masses --      1.0861                 1.1009                 1.1008
 Frc consts  --      5.9112                 6.1009                 6.1010
 IR Inten    --      0.0016                 0.0025                78.0894

                     97                     98                     99
                      A                      A                      A
 Frequencies --   3073.0222              3073.0652              3075.8183
 Red. masses --      1.1015                 1.1015                 1.1007
 Frc consts  --      6.1286                 6.1288                 6.1353
 IR Inten    --      0.0007                 6.0568                26.2712

                    100                    101                    102
                      A                      A                      A
 Frequencies --   3075.9711              3125.2855              3128.6248
 Red. masses --      1.1006                 1.0845                 1.0857
 Frc consts  --      6.1353                 6.2411                 6.2614
 IR Inten    --      0.0016               105.3317                 0.0000

 - Thermochemistry -
 -------------------
 Temperature   298.150 Kelvin.  Pressure   1.00000 Atm.
 Atom     1 has atomic number  6 and mass  12.00000

 Molecular mass:   220.14633 amu.
 Principal axes and moments of inertia in atomic units:
                           1         2         3
     Eigenvalues --  1724.100105734.710766665.40731
           X            0.87777   0.37630  -0.29650
           Y            0.47445  -0.59699   0.64692
           Z           -0.06643   0.70852   0.70255
 This molecule is an asymmetric top.
 Rotational symmetry number  1.
 Warning -- assumption of classical behavior for rotation
           may cause significant error
 Rotational temperatures (Kelvin)      0.05024     0.01510     0.01299
 Rotational constants (GHZ):           1.04677     0.31470     0.27076
 Zero-point vibrational energy     794425.8 (Joules/Mol)
                                  189.87233 (Kcal/Mol)
 Warning -- explicit consideration of  29 degrees of freedom as
           vibrations may cause significant error
 Vibrational temperatures:     71.83    82.45   124.36   231.47   238.47
          (Kelvin)            263.43   340.59   348.04   373.56   375.88
                              430.17   431.54   433.57   434.03   435.73
                              452.16   454.53   455.24   482.91   542.13
                              569.17   584.18   600.87   644.72   685.47
                              723.42   725.64   754.47   888.47   937.32
                             1024.74  1035.02  1048.23  1161.25  1162.64
                             1197.38  1219.76  1235.90  1310.41  1311.24
                             1332.83  1333.58  1368.77  1368.93  1456.86
                             1481.06  1493.78  1506.41  1506.73  1579.47
                             1686.69  1731.21  1734.22  1734.31  1745.55
                             1772.55  1804.14  1820.23  1833.19  1884.20
                             1934.82  1934.96  1945.46  1959.19  1977.11
                             1997.20  2027.32  2091.26  2092.50  2092.85
                             2094.59  2129.98  2132.08  2132.35  2137.31
                             2146.48  2147.12  2172.21  2172.29  2196.19
                             2197.11  2297.91  4214.00  4214.34  4224.69
                             4228.33  4281.00  4282.43  4344.71  4345.20
                             4345.71  4346.24  4372.81  4372.86  4412.61
                             4412.71  4421.39  4421.46  4425.42  4425.64
                             4496.59  4501.39

 Zero-point correction=                           0.302581 (Hartree/Particle)
 Thermal correction to Energy=                    0.319391
 Thermal correction to Enthalpy=                  0.320335
 Thermal correction to Gibbs Free Energy=         0.260451
 Sum of electronic and zero-point Energies=           -695.831943
 Sum of electronic and thermal Energies=              -695.815133
 Sum of electronic and thermal Enthalpies=            -695.814189
 Sum of electronic and thermal Free Energies=         -695.874073

                     E (Thermal)             CV                S
                      KCal/Mol        Cal/Mol-Kelvin    Cal/Mol-Kelvin
 Total                  200.421             67.591            126.037
 Electronic               0.000              0.000              0.000
 Translational            0.889              2.981             42.070
 Rotational               0.889              2.981             32.555
 Vibrational            198.643             61.630             51.412
 Vibration     1          0.595              1.978              4.820
 Vibration     2          0.596              1.975              4.548
 Vibration     3          0.601              1.959              3.739
 Vibration     4          0.622              1.890              2.539
 Vibration     5          0.624              1.885              2.483
 Vibration     6          0.631              1.863              2.297
 Vibration     7          0.656              1.785              1.827
 Vibration     8          0.658              1.776              1.789
 Vibration     9          0.668              1.746              1.664
 Vibration    10          0.669              1.744              1.653
 Vibration    11          0.692              1.676              1.423
 Vibration    12          0.692              1.674              1.417
 Vibration    13          0.693              1.671              1.409
 Vibration    14          0.694              1.671              1.408
 Vibration    15          0.694              1.668              1.401
 Vibration    16          0.702              1.646              1.340
 Vibration    17          0.703              1.643              1.331
 Vibration    18          0.703              1.642              1.329
 Vibration    19          0.717              1.604              1.233
 Vibration    20          0.747              1.520              1.052
 Vibration    21          0.762              1.480              0.979
 Vibration    22          0.771              1.457              0.941
 Vibration    23          0.781              1.432              0.900
 Vibration    24          0.807              1.365              0.802
 Vibration    25          0.833              1.302              0.720
 Vibration    26          0.858              1.244              0.651
 Vibration    27          0.860              1.240              0.647
 Vibration    28          0.879              1.196              0.600
 Vibration    29          0.977              0.995              0.420

 Optimization completed.
    -- Stationary point found.
 Normal termination of Gaussian 16 at Sat Jan  6 08:39:35 2024.
