 Gaussian 16, Revision A.03,
 Gaussian 16:  ES64L-G16RevA.03 25-Dec-2016

 ----------------------------------------------------------------
 #P UB3LYP/6-311++G(d,p) SCRF=(PCM,Solvent=n,n-DiMethylFormamide)
 ----------------------------------------------------------------

 -------
 Reduced
 -------
 Symbolic Z-matrix:
 Charge = -2 Multiplicity = 1

                         Standard orientation:
 ---------------------------------------------------------------------
 Center     Atomic      Atomic             Coordinates (Angstroms)
 Number     Number       Type             X           Y           Z
 ---------------------------------------------------------------------
      1          6           0       -0.838169   -1.219751    0.000002
      2          6           0        0.586996   -1.230975    0.000062
      3          6           0        1.420014   -0.099190    0.000071
      4          6           0        0.838170    1.219750   -0.000044
      5          6           0       -0.586998    1.230975   -0.000073
      6          6           0       -1.420014    0.099191   -0.000127
      7          8           0       -1.539185   -2.331007    0.000026
      8          8           0        1.539182    2.331008   -0.000107
      9          6           0       -2.957058    0.228787   -0.000047
     10          6           0       -3.530165   -0.467879    1.259634
     11          6           0       -3.453594    1.687419   -0.000083
     12          6           0       -3.530414   -0.468228   -1.259405
     13          6           0        2.957059   -0.228787    0.000066
     14          6           0        3.453597   -1.687418    0.000075
     15          6           0        3.530359    0.468196    1.259469
     16          6           0        3.530220    0.467911   -1.259571
     17          1           0        1.018312   -2.229013    0.000112
     18          1           0       -1.018312    2.229013   -0.000046
     19          1           0       -3.162508   -1.497238    1.283121
     20          1           0       -4.633199   -0.463585    1.249609
     21          1           0       -3.193898    0.054545    2.163240
     22          1           0       -3.105736    2.232250    0.883457
     23          1           0       -4.553116    1.701141    0.000396
     24          1           0       -3.106495    2.232154   -0.883985
     25          1           0       -4.633455   -0.463608   -1.249348
     26          1           0       -3.194010    0.053636   -2.163284
     27          1           0       -3.163031   -1.497696   -1.282489
     28          1           0        3.106006   -2.232160   -0.883624
     29          1           0        3.106231   -2.232243    0.883818
     30          1           0        4.553120   -1.701139   -0.000090
     31          1           0        3.193827   -0.053628    2.163321
     32          1           0        3.163069    1.497701    1.282504
     33          1           0        4.633403    0.463479    1.249518
     34          1           0        3.194082   -0.054560   -2.163200
     35          1           0        4.633250    0.463719   -1.249440
     36          1           0        3.162465    1.497231   -1.283110
 ---------------------------------------------------------------------

 SCF Done:  E(UB3LYP) =  -696.400641584     A.U. after   15 cycles

 The electronic state is 1-A.
 Alpha  occ. eigenvalues --  -18.99902 -18.99901 -10.15685 -10.15685 -10.15267
 Alpha  occ. eigenvalues --  -10.15266 -10.13734 -10.13734 -10.12835 -10.12835
 Alpha  occ. eigenvalues --  -10.12835 -10.12834 -10.11805 -10.11804 -10.10675
 Alpha  occ. eigenvalues --  -10.10673  -0.90922  -0.90542  -0.79607  -0.79104
 Alpha  occ. eigenvalues --   -0.74604  -0.67578  -0.66247  -0.66216  -0.65625
 Alpha  occ. eigenvalues --   -0.65621  -0.62987  -0.57217  -0.52627  -0.51466
 Alpha  occ. eigenvalues --   -0.47735  -0.43715  -0.43211  -0.42904  -0.41282
 Alpha  occ. eigenvalues --   -0.41208  -0.40825  -0.38762  -0.38573  -0.37537
 Alpha  occ. eigenvalues --   -0.37006  -0.36889  -0.36137  -0.34500  -0.34403
 Alpha  occ. eigenvalues --   -0.34308  -0.33746  -0.32411  -0.30734  -0.30613
 Alpha  occ. eigenvalues --   -0.30434  -0.30074  -0.29749  -0.29171  -0.28524
 Alpha  occ. eigenvalues --   -0.28408  -0.20698  -0.19428  -0.17790  -0.17552
 Alpha  occ. eigenvalues --   -0.10602
 Alpha virt. eigenvalues --   -0.00126   0.00619   0.01656   0.01912   0.02479
 Alpha virt. eigenvalues --    0.02781   0.03039   0.03105   0.04007   0.04130
 Alpha virt. eigenvalues --    0.04186   0.04676   0.05497   0.05820   0.06265

  Beta  occ. eigenvalues --  -18.99902 -18.99901 -10.15685 -10.15685 -10.15267
  Beta  occ. eigenvalues --  -10.15266 -10.13734 -10.13734 -10.12835 -10.12835
  Beta  occ. eigenvalues --  -10.12835 -10.12834 -10.11805 -10.11804 -10.10675
  Beta  occ. eigenvalues --  -10.10673  -0.90922  -0.90542  -0.79607  -0.79104
  Beta  occ. eigenvalues --   -0.74604  -0.67578  -0.66247  -0.66216  -0.65625
  Beta  occ. eigenvalues --   -0.65621  -0.62987  -0.57217  -0.52627  -0.51466
  Beta  occ. eigenvalues --   -0.47735  -0.43715  -0.43211  -0.42904  -0.41282
  Beta  occ. eigenvalues --   -0.41208  -0.40825  -0.38762  -0.38573  -0.37537
  Beta  occ. eigenvalues --   -0.37006  -0.36889  -0.36137  -0.34500  -0.34403
  Beta  occ. eigenvalues --   -0.34308  -0.33746  -0.32411  -0.30734  -0.30613
  Beta  occ. eigenvalues --   -0.30434  -0.30074  -0.29749  -0.29171  -0.28524
  Beta  occ. eigenvalues --   -0.28408  -0.20698  -0.19428  -0.17790  -0.17552
  Beta  occ. eigenvalues --   -0.10602
  Beta virt. eigenvalues --   -0.00126   0.00619   0.01656   0.01912   0.02479
  Beta virt. eigenvalues --    0.02781   0.03039   0.03105   0.04007   0.04130
  Beta virt. eigenvalues --    0.04186   0.04676   0.05497   0.05820   0.06265

 Mulliken charges and spin densities:
               1          2
     1  C   -1.008903   0.000000
     2  C   -0.434544   0.000000
     3  C    1.072083  -0.000000
     4  C   -1.008911   0.000000
     5  C   -0.434529   0.000000
     6  C    1.072062  -0.000000
     7  O   -0.692128  -0.000000
     8  O   -0.692128  -0.000000
     9  C    0.605782   0.000000
    10  C   -0.682147  -0.000000
    11  C   -0.545689  -0.000000
    12  C   -0.682107  -0.000000
    13  C    0.605776   0.000000
    14  C   -0.545688  -0.000000
    15  C   -0.682103  -0.000000
    16  C   -0.682149  -0.000000
    17  H    0.128355   0.000000
    18  H    0.128356  -0.000000
    19  H    0.179054  -0.000000
    20  H    0.125850   0.000000
    21  H    0.113543  -0.000000
    22  H    0.123597  -0.000000
    23  H    0.155180   0.000000
    24  H    0.123612  -0.000000
    25  H    0.125870   0.000000
    26  H    0.113552  -0.000000
    27  H    0.179048  -0.000000
    28  H    0.123601   0.000000
    29  H    0.123608  -0.000000
    30  H    0.155180  -0.000000
    31  H    0.113561   0.000000
    32  H    0.179037  -0.000000
    33  H    0.125867   0.000000
    34  H    0.113534  -0.000000
    35  H    0.125853   0.000000
    36  H    0.179065  -0.000000
 Sum of Mulliken charges =  -2.00000  -0.00000

 Dipole moment (field-independent basis, Debye):
    X=             -0.0000    Y=              0.0000    Z=              0.0004  Tot=              0.0004
 Quadrupole moment (field-independent basis, Debye-Ang):
   XX=           -142.0079   YY=           -157.0009   ZZ=           -114.6206
   XY=            -25.5860   XZ=              0.0002   YZ=              0.0017

 Normal termination of Gaussian 16 at Sun Jan 21 07:44:50 2024.
