 Gaussian 16, Revision A.03,
 Gaussian 16:  ES64L-G16RevA.03 25-Dec-2016

 ----------------------------------------------------------------
 #P UB3LYP/6-311++G(d,p) SCRF=(PCM,Solvent=n,n-DiMethylFormamide)
 ----------------------------------------------------------------

 -------
 Reduced
 -------
 Symbolic Z-matrix:
 Charge = -2 Multiplicity = 1

                         Standard orientation:
 ---------------------------------------------------------------------
 Center     Atomic      Atomic             Coordinates (Angstroms)
 Number     Number       Type             X           Y           Z
 ---------------------------------------------------------------------
      1          6           0       -1.751167   -1.161527    0.000309
      2          6           0       -2.956165   -0.502818    0.032692
      3          6           0       -3.016637    0.907401    0.049926
      4          6           0       -0.517530   -0.455264   -0.021376
      5          6           0       -0.565924    0.986686   -0.015258
      6          6           0       -1.823832    1.615979    0.023324
      7          6           0        0.717862   -1.215907   -0.047564
      8          6           0        1.887009   -0.385912   -0.071525
      9          6           0        1.854692    1.018062   -0.070751
     10          6           0        0.658325    1.787947   -0.043540
     11          8           0        0.736082   -2.502723   -0.059191
     12          8           0        0.641594    3.073042   -0.036478
     13          1           0       -1.688276   -2.248965   -0.009731
     14          1           0       -1.821714    2.702115    0.031825
     15          8           0        3.091498   -1.082701   -0.140379
     16          8           0       -4.179136   -1.200550    0.053939
     17          1           0       -3.981242    1.405884    0.078219
     18          1           0        2.778909    1.586031   -0.080742
     19          6           0        4.268886   -0.408857    0.230750
     20          1           0       -3.949147   -2.135020    0.037542
     21          1           0        5.071229   -1.153106    0.261574
     22          1           0        4.182386    0.060833    1.224801
     23          1           0        4.554414    0.370949   -0.488540
 ---------------------------------------------------------------------

 SCF Done:  E(UB3LYP) =  -725.314208854     A.U. after   19 cycles

 The electronic state is 1-A.
 Alpha  occ. eigenvalues --  -19.13836 -19.12182 -19.01692 -19.01003 -10.20961
 Alpha  occ. eigenvalues --  -10.20252 -10.17919 -10.17235 -10.16214 -10.14990
 Alpha  occ. eigenvalues --  -10.14730 -10.14011 -10.13676 -10.13134 -10.11580
 Alpha  occ. eigenvalues --   -1.03864  -1.03294  -0.93409  -0.92556  -0.82349
 Alpha  occ. eigenvalues --   -0.76212  -0.72223  -0.71064  -0.68092  -0.62984
 Alpha  occ. eigenvalues --   -0.60142  -0.57084  -0.53220  -0.52055  -0.49226
 Alpha  occ. eigenvalues --   -0.46663  -0.44522  -0.43843  -0.43732  -0.40752
 Alpha  occ. eigenvalues --   -0.40236  -0.39322  -0.39154  -0.37053  -0.36091
 Alpha  occ. eigenvalues --   -0.35827  -0.35463  -0.33040  -0.32686  -0.31631
 Alpha  occ. eigenvalues --   -0.30589  -0.29823  -0.27883  -0.22579  -0.21252
 Alpha  occ. eigenvalues --   -0.19764  -0.19500  -0.19175  -0.10448
 Alpha virt. eigenvalues --   -0.00382   0.00002   0.00637   0.01468   0.02250
 Alpha virt. eigenvalues --    0.02624   0.02824   0.04033   0.04589   0.05220
 Alpha virt. eigenvalues --    0.05812   0.05953   0.06616   0.07080   0.08565

  Beta  occ. eigenvalues --  -19.13836 -19.12182 -19.01692 -19.01003 -10.20961
  Beta  occ. eigenvalues --  -10.20252 -10.17919 -10.17235 -10.16214 -10.14990
  Beta  occ. eigenvalues --  -10.14730 -10.14011 -10.13676 -10.13134 -10.11580
  Beta  occ. eigenvalues --   -1.03864  -1.03294  -0.93409  -0.92556  -0.82349
  Beta  occ. eigenvalues --   -0.76212  -0.72223  -0.71064  -0.68092  -0.62984
  Beta  occ. eigenvalues --   -0.60142  -0.57084  -0.53220  -0.52055  -0.49226
  Beta  occ. eigenvalues --   -0.46663  -0.44522  -0.43843  -0.43732  -0.40752
  Beta  occ. eigenvalues --   -0.40236  -0.39322  -0.39154  -0.37053  -0.36091
  Beta  occ. eigenvalues --   -0.35827  -0.35463  -0.33040  -0.32686  -0.31631
  Beta  occ. eigenvalues --   -0.30589  -0.29823  -0.27883  -0.22579  -0.21252
  Beta  occ. eigenvalues --   -0.19764  -0.19500  -0.19175  -0.10448
  Beta virt. eigenvalues --   -0.00382   0.00002   0.00637   0.01468   0.02250
  Beta virt. eigenvalues --    0.02624   0.02824   0.04033   0.04589   0.05220
  Beta virt. eigenvalues --    0.05812   0.05953   0.06616   0.07080   0.08565

 Mulliken charges and spin densities:
               1          2
     1  C    0.273115   0.000000
     2  C   -0.622402  -0.000000
     3  C   -0.263488  -0.000000
     4  C    0.519207  -0.000000
     5  C   -0.022574  -0.000000
     6  C    0.146825   0.000000
     7  C   -0.667770   0.000000
     8  C   -0.369109   0.000000
     9  C    0.436743   0.000000
    10  C   -0.448452   0.000000
    11  O   -0.728352   0.000000
    12  O   -0.691711   0.000000
    13  H    0.124105  -0.000000
    14  H    0.148166  -0.000000
    15  O   -0.230783   0.000000
    16  O   -0.327803   0.000000
    17  H    0.177430  -0.000000
    18  H    0.140094  -0.000000
    19  C   -0.327701   0.000000
    20  H    0.289304  -0.000000
    21  H    0.160184  -0.000000
    22  H    0.147266   0.000000
    23  H    0.137704  -0.000000
 Sum of Mulliken charges =  -2.00000   0.00000

 Dipole moment (field-independent basis, Debye):
    X=             -2.1305    Y=             -1.8710    Z=              0.8363  Tot=              2.9562
 Quadrupole moment (field-independent basis, Debye-Ang):
   XX=           -113.6156   YY=           -152.0368   ZZ=            -97.9961
   XY=              6.4202   XZ=              2.4426   YZ=             -0.6334

 Normal termination of Gaussian 16 at Sun Jan 21 08:53:02 2024.
