 Gaussian 16, Revision A.03,
 Gaussian 16:  ES64L-G16RevA.03 25-Dec-2016

 ----------------------------------------------------------------
 #P UB3LYP/6-311++G(d,p) SCRF=(PCM,Solvent=n,n-DiMethylFormamide)
 ----------------------------------------------------------------

 ------------------
 Radical PCM in DMF
 ------------------
 Symbolic Z-matrix:
 Charge = -1 Multiplicity = 2

                         Standard orientation:
 ---------------------------------------------------------------------
 Center     Atomic      Atomic             Coordinates (Angstroms)
 Number     Number       Type             X           Y           Z
 ---------------------------------------------------------------------
      1          7           0        4.679172   -0.830446   -0.061971
      2          6           0        3.378015   -0.270584   -0.009148
      3          6           0        3.228083    1.138369   -0.011722
      4          6           0        1.968327    1.698592   -0.006200
      5          6           0        0.803061    0.903895   -0.006853
      6          6           0       -0.509057    1.551361   -0.000226
      7          8           0       -0.636915    2.800589    0.005021
      8          6           0       -1.666361    0.652082    0.000831
      9          6           0       -2.966291    1.202035    0.006183
     10          6           0       -4.087295    0.395452    0.008697
     11          6           0       -3.940063   -1.010139    0.006187
     12          6           0       -2.679441   -1.571706    0.001308
     13          6           0       -1.516485   -0.767323   -0.001675
     14          6           0       -0.203930   -1.410121   -0.006282
     15          8           0       -0.071567   -2.663493   -0.004062
     16          6           0        0.951396   -0.512768   -0.011741
     17          6           0        2.249193   -1.068813   -0.010711
     18          1           0        5.366974   -0.290572    0.447554
     19          1           0        4.702984   -1.796502    0.237349
     20          1           0        4.112069    1.770931   -0.025618
     21          1           0        1.836497    2.774739   -0.004139
     22          1           0       -3.047140    2.283197    0.008248
     23          1           0       -5.079114    0.838064    0.012532
     24          1           0       -4.819992   -1.647209    0.008011
     25          1           0       -2.538653   -2.646570   -0.000681
     26          1           0        2.325120   -2.151704   -0.009020
 ---------------------------------------------------------------------

 SCF Done:  E(UB3LYP) =  -744.474862025     A.U. after   18 cycles

 The electronic state is 2-A.
 Alpha  occ. eigenvalues --  -19.07345 -19.07182 -14.31787 -10.22288 -10.21823
 Alpha  occ. eigenvalues --  -10.21373 -10.17189 -10.17131 -10.17121 -10.17034
 Alpha  occ. eigenvalues --  -10.17015 -10.16990 -10.16952 -10.16823 -10.16752
 Alpha  occ. eigenvalues --  -10.16507 -10.16143  -1.00055  -0.99636  -0.91692
 Alpha  occ. eigenvalues --   -0.85607  -0.84003  -0.77685  -0.74932  -0.74638
 Alpha  occ. eigenvalues --   -0.72827  -0.66361  -0.63716  -0.61244  -0.59042
 Alpha  occ. eigenvalues --   -0.55589  -0.53554  -0.52776  -0.50146  -0.47820
 Alpha  occ. eigenvalues --   -0.46604  -0.45577  -0.44286  -0.42451  -0.42081
 Alpha  occ. eigenvalues --   -0.42069  -0.41319  -0.40680  -0.39914  -0.38700
 Alpha  occ. eigenvalues --   -0.37835  -0.37639  -0.35114  -0.34752  -0.34442
 Alpha  occ. eigenvalues --   -0.33153  -0.30572  -0.26268  -0.25580  -0.25202
 Alpha  occ. eigenvalues --   -0.24405  -0.23476  -0.21909  -0.13773
 Alpha virt. eigenvalues --   -0.05064  -0.01621  -0.00439  -0.00084   0.00247
 Alpha virt. eigenvalues --    0.01204   0.01865   0.02276   0.03858   0.04235
 Alpha virt. eigenvalues --    0.04408   0.04507   0.05152   0.06289   0.06408

  Beta  occ. eigenvalues --  -19.06857 -19.06600 -14.31772 -10.22129 -10.21607
  Beta  occ. eigenvalues --  -10.21337 -10.17136 -10.17113 -10.17085 -10.16966
  Beta  occ. eigenvalues --  -10.16964 -10.16943 -10.16866 -10.16820 -10.16734
  Beta  occ. eigenvalues --  -10.16466 -10.16095  -0.99186  -0.98602  -0.91630
  Beta  occ. eigenvalues --   -0.85347  -0.83883  -0.77316  -0.74656  -0.74485
  Beta  occ. eigenvalues --   -0.72664  -0.65605  -0.63563  -0.60998  -0.58970
  Beta  occ. eigenvalues --   -0.55348  -0.53313  -0.52674  -0.50080  -0.47619
  Beta  occ. eigenvalues --   -0.46351  -0.45456  -0.44195  -0.42402  -0.42032
  Beta  occ. eigenvalues --   -0.41089  -0.40744  -0.40327  -0.39680  -0.38465
  Beta  occ. eigenvalues --   -0.37390  -0.35474  -0.34949  -0.34378  -0.33959
  Beta  occ. eigenvalues --   -0.32992  -0.29770  -0.25214  -0.24420  -0.24326
  Beta  occ. eigenvalues --   -0.23917  -0.22975  -0.21303
  Beta virt. eigenvalues --   -0.07913  -0.04152  -0.00682  -0.00412   0.00159
  Beta virt. eigenvalues --    0.00289   0.01209   0.01883   0.02272   0.03917
  Beta virt. eigenvalues --    0.04248   0.04528   0.04547   0.05509   0.06336

 Mulliken charges and spin densities:
               1          2
     1  N   -0.368945   0.007356
     2  C   -0.507731   0.018235
     3  C   -0.145495   0.022985
     4  C    0.125817   0.018217
     5  C    0.155536   0.008424
     6  C   -0.565819   0.088184
     7  O   -0.466247   0.180684
     8  C    0.134438   0.049403
     9  C    0.101168   0.012055
    10  C   -0.467426   0.057738
    11  C   -0.447296   0.025919
    12  C    0.061753   0.042563
    13  C    0.279391   0.031220
    14  C   -0.669546   0.126504
    15  O   -0.473111   0.217441
    16  C    0.544980   0.047097
    17  C   -0.028151   0.062660
    18  H    0.264253   0.000565
    19  H    0.271103  -0.000179
    20  H    0.195462  -0.002160
    21  H    0.167780  -0.000980
    22  H    0.164416  -0.000343
    23  H    0.178034  -0.004422
    24  H    0.179440  -0.002423
    25  H    0.162510  -0.002411
    26  H    0.153687  -0.004333
 Sum of Mulliken charges =  -1.00000   1.00000

 Dipole moment (field-independent basis, Debye):
    X=              3.4961    Y=             -0.5611    Z=              1.4388  Tot=              3.8220
 Quadrupole moment (field-independent basis, Debye-Ang):
   XX=            -89.7606   YY=           -133.3008   ZZ=           -106.7855
   XY=              2.3773   XZ=              7.7115   YZ=             -1.3214

 Normal termination of Gaussian 16 at Sun Jan 14 01:15:00 2024.
