 Gaussian 16, Revision A.03,
 Gaussian 16:  ES64L-G16RevA.03 25-Dec-2016

 --------------------------------------
 #P UB3LYP/6-311++G(d,p) nosym opt freq
 --------------------------------------

 -------
 Reduced
 -------
 Symbolic Z-matrix:
 Charge = -2 Multiplicity = 1

 SCF Done:  E(UB3LYP) =  -953.971175074     A.U. after   43 cycles
 Optimization completed.
    -- Stationary point found.
 Normal termination of Gaussian 16 at Sun Jan  7 06:50:18 2024.

 ----------------------------------------------------------------------
 #P Geom=AllCheck Guess=TCheck SCRF=Check GenChk UB3LYP/6-311++G(d,p) F
 req
 ----------------------------------------------------------------------

 Structure from the checkpoint file:  "203-an.chk"
 -------
 Reduced
 -------
 Charge = -2 Multiplicity = 1

                          Input orientation:
 ---------------------------------------------------------------------
 Center     Atomic      Atomic             Coordinates (Angstroms)
 Number     Number       Type             X           Y           Z
 ---------------------------------------------------------------------
      1          6           0        4.617082    1.305592   -0.506444
      2          6           0        3.304606    0.614126   -0.227792
      3          6           0        3.303992   -0.663642    0.390802
      4          6           0        2.113400   -1.328002    0.667447
      5          8           0        2.200835   -2.548022    1.313887
      6          6           0        0.843742   -0.792501    0.312553
      7          6           0       -0.407971   -1.524957    0.544921
      8          8           0       -0.435964   -2.718373    0.938126
      9          6           0       -1.636968   -0.764223    0.257633
     10          6           0       -2.930767   -1.275844    0.545167
     11          8           0       -3.076981   -2.501316    1.166537
     12          6           0       -4.100147   -0.579259    0.237706
     13          6           0       -4.010356    0.688272   -0.369366
     14          8           0       -5.219410    1.338762   -0.654754
     15          6           0       -2.795250    1.240553   -0.658398
     16          6           0       -1.587229    0.547897   -0.352838
     17          6           0       -0.352144    1.216596   -0.674219
     18          8           0       -0.340226    2.377028   -1.236682
     19          6           0        0.855141    0.522139   -0.300495
     20          6           0        2.093650    1.179885   -0.546807
     21          1           0        5.213639    1.446192    0.411676
     22          1           0        4.458294    2.290905   -0.955131
     23          1           0        5.246452    0.725770   -1.192238
     24          1           0        4.248788   -1.147449    0.640681
     25          1           0        3.116597   -2.617120    1.609484
     26          1           0       -4.013507   -2.574904    1.382324
     27          1           0       -5.074989   -1.009830    0.453923
     28          1           0       -4.977699    2.171333   -1.073272
     29          1           0       -2.686899    2.218904   -1.120403
     30          1           0        2.030288    2.161491   -1.004026
 ---------------------------------------------------------------------

 SCF Done:  E(UB3LYP) =  -953.971175074     A.U. after    5 cycles

 Alpha  occ. eigenvalues --  -18.94789 -18.92921 -18.91832 -18.79903 -18.78598
 Alpha  occ. eigenvalues --  -10.01113 -10.00529  -9.99898  -9.97019  -9.95968
 Alpha  occ. eigenvalues --   -9.94451  -9.94421  -9.94022  -9.92764  -9.92546
 Alpha  occ. eigenvalues --   -9.92391  -9.92260  -9.92016  -9.91599  -9.91532
 Alpha  occ. eigenvalues --   -0.84871  -0.83886  -0.82748  -0.72676  -0.70274
 Alpha  occ. eigenvalues --   -0.61173  -0.60738  -0.54880  -0.51934  -0.50590
 Alpha  occ. eigenvalues --   -0.49457  -0.46766  -0.42175  -0.40753  -0.38254
 Alpha  occ. eigenvalues --   -0.36767  -0.34416  -0.31953  -0.30555  -0.27423
 Alpha  occ. eigenvalues --   -0.26574  -0.26103  -0.23087  -0.22009  -0.21721
 Alpha  occ. eigenvalues --   -0.20842  -0.19986  -0.19901  -0.18808  -0.17585
 Alpha  occ. eigenvalues --   -0.17415  -0.17107  -0.16925  -0.15392  -0.14015
 Alpha  occ. eigenvalues --   -0.13883  -0.12966  -0.12852  -0.11800  -0.10418
 Alpha  occ. eigenvalues --   -0.09535  -0.08997  -0.08411  -0.05981   0.00066
 Alpha  occ. eigenvalues --    0.00463   0.01087   0.01524   0.03296   0.03869
 Alpha  occ. eigenvalues --    0.12704
 Alpha virt. eigenvalues --    0.14380   0.14930   0.15751   0.15879   0.17974
 Alpha virt. eigenvalues --    0.18373   0.19058   0.20339   0.20577   0.21250
 Alpha virt. eigenvalues --    0.21756   0.22225   0.24181   0.24386   0.24735

  Beta  occ. eigenvalues --  -18.94789 -18.92921 -18.91832 -18.79903 -18.78598
  Beta  occ. eigenvalues --  -10.01113 -10.00529  -9.99898  -9.97019  -9.95968
  Beta  occ. eigenvalues --   -9.94451  -9.94421  -9.94022  -9.92764  -9.92546
  Beta  occ. eigenvalues --   -9.92391  -9.92260  -9.92016  -9.91599  -9.91532
  Beta  occ. eigenvalues --   -0.84871  -0.83886  -0.82748  -0.72676  -0.70274
  Beta  occ. eigenvalues --   -0.61173  -0.60738  -0.54880  -0.51934  -0.50590
  Beta  occ. eigenvalues --   -0.49457  -0.46766  -0.42175  -0.40753  -0.38254
  Beta  occ. eigenvalues --   -0.36767  -0.34416  -0.31953  -0.30555  -0.27423
  Beta  occ. eigenvalues --   -0.26574  -0.26103  -0.23087  -0.22009  -0.21721
  Beta  occ. eigenvalues --   -0.20842  -0.19986  -0.19901  -0.18808  -0.17585
  Beta  occ. eigenvalues --   -0.17415  -0.17107  -0.16925  -0.15392  -0.14015
  Beta  occ. eigenvalues --   -0.13883  -0.12966  -0.12852  -0.11800  -0.10418
  Beta  occ. eigenvalues --   -0.09535  -0.08997  -0.08411  -0.05981   0.00066
  Beta  occ. eigenvalues --    0.00463   0.01087   0.01524   0.03296   0.03869
  Beta  occ. eigenvalues --    0.12704
  Beta virt. eigenvalues --    0.14380   0.14930   0.15751   0.15879   0.17974
  Beta virt. eigenvalues --    0.18373   0.19058   0.20339   0.20577   0.21250
  Beta virt. eigenvalues --    0.21756   0.22225   0.24181   0.24386   0.24735

 Mulliken charges and spin densities:
               1          2
     1  C    1.838517  -0.000000
     2  C   -0.287912   0.000000
     3  C   -0.659840   0.000000
     4  C   -0.424867  -0.000000
     5  O   -0.187269   0.000000
     6  C    0.068555   0.000000
     7  C   -0.467739  -0.000000
     8  O   -0.403757  -0.000000
     9  C   -0.003421   0.000000
    10  C   -0.032660  -0.000000
    11  O   -0.171338   0.000000
    12  C   -0.036099  -0.000000
    13  C   -0.610424  -0.000000
    14  O   -0.306049   0.000000
    15  C   -0.079861  -0.000000
    16  C    0.751598   0.000000
    17  C   -0.773495   0.000000
    18  O   -0.487808  -0.000000
    19  C    0.521299  -0.000000
    20  C   -0.217692  -0.000000
    21  H   -0.438633   0.000000
    22  H   -0.221340   0.000000
    23  H    0.047943   0.000000
    24  H   -0.271853   0.000000
    25  H    0.114031   0.000000
    26  H    0.186717  -0.000000
    27  H    0.046686  -0.000000
    28  H    0.242927  -0.000000
    29  H    0.107251   0.000000
    30  H    0.156532  -0.000000
 Sum of Mulliken charges =  -2.00000   0.00000

 Dipole moment (field-independent basis, Debye):
    X=             -3.0241    Y=              0.1659    Z=             -0.5659  Tot=              3.0811
 Quadrupole moment (field-independent basis, Debye-Ang):
   XX=           -219.5343   YY=           -173.5016   ZZ=           -140.7876
   XY=            -12.6514   XZ=             -5.6253   YZ=             15.7572

  Exact polarizability:2970.309 590.3821107.824-191.729-488.011 614.382
 Approx polarizability:5460.240 685.236 889.400 522.253-226.153 556.210

                      1                      2                      3
                      A                      A                      A
 Frequencies --     27.9019                50.8424                65.2214
 Red. masses --      7.4454                 6.0783                 7.0299
 Frc consts  --      0.0034                 0.0093                 0.0176
 IR Inten    --      9.0483                 1.3379                 7.4792

                      4                      5                      6
                      A                      A                      A
 Frequencies --    139.3370               154.9861               160.6711
 Red. masses --      1.5760                 6.7522                 5.4609
 Frc consts  --      0.0180                 0.0956                 0.0831
 IR Inten    --     13.4893                 6.5989                11.9293

                      7                      8                      9
                      A                      A                      A
 Frequencies --    170.5447               198.2370               203.6558
 Red. masses --      2.0253                 3.3159                 3.9887
 Frc consts  --      0.0347                 0.0768                 0.0975
 IR Inten    --     14.4333               171.1814                25.0238

                     10                     11                     12
                      A                      A                      A
 Frequencies --    243.3181               246.9042               267.4711
 Red. masses --      1.8426                 2.2949                 5.9283
 Frc consts  --      0.0643                 0.0824                 0.2499
 IR Inten    --    410.4339               180.5422                14.8909

                     13                     14                     15
                      A                      A                      A
 Frequencies --    286.1880               301.3867               317.2801
 Red. masses --      2.3527                 1.5314                 5.9093
 Frc consts  --      0.1135                 0.0820                 0.3505
 IR Inten    --    287.2719               169.3691                 2.6685

                     16                     17                     18
                      A                      A                      A
 Frequencies --    344.5392               346.8073               365.7143
 Red. masses --      3.3473                 3.8082                 5.9449
 Frc consts  --      0.2341                 0.2699                 0.4685
 IR Inten    --     72.6843                62.7472                66.2876

                     19                     20                     21
                      A                      A                      A
 Frequencies --    375.9744               389.0080               413.1755
 Red. masses --      8.6578                 1.6946                 5.9803
 Frc consts  --      0.7211                 0.1511                 0.6015
 IR Inten    --     16.3527                80.9356                17.1338

                     22                     23                     24
                      A                      A                      A
 Frequencies --    424.8397               467.6486               505.0566
 Red. masses --      6.8288                10.9050                 4.7258
 Frc consts  --      0.7262                 1.4051                 0.7102
 IR Inten    --     35.2161               379.5507                25.9181

                     25                     26                     27
                      A                      A                      A
 Frequencies --    535.1733               542.2019               551.3620
 Red. masses --      3.1944                 7.9381                 6.9645
 Frc consts  --      0.5390                 1.3750                 1.2474
 IR Inten    --     36.2494                33.4150                31.0723

                     28                     29                     30
                      A                      A                      A
 Frequencies --    577.6513               592.7447               601.5525
 Red. masses --      5.0393                 3.6692                 2.2978
 Frc consts  --      0.9907                 0.7595                 0.4899
 IR Inten    --     17.8093               101.7229                53.6189

                     31                     32                     33
                      A                      A                      A
 Frequencies --    606.2565               619.1032               661.0639
 Red. masses --      4.3193                 3.3749                 2.2274
 Frc consts  --      0.9354                 0.7621                 0.5735
 IR Inten    --     31.3027                33.3368                14.3686

                     34                     35                     36
                      A                      A                      A
 Frequencies --    692.3705               722.9914               737.5506
 Red. masses --      1.9659                 5.3906                 5.2844
 Frc consts  --      0.5552                 1.6602                 1.6937
 IR Inten    --     65.4977                23.9099                93.1998

                     37                     38                     39
                      A                      A                      A
 Frequencies --    742.5772               761.7521               814.6627
 Red. masses --      5.2919                 8.2857                 8.6111
 Frc consts  --      1.7193                 2.8327                 3.3672
 IR Inten    --     61.6994                20.4382                 7.8891

                     40                     41                     42
                      A                      A                      A
 Frequencies --    842.1732               887.2664               898.5267
 Red. masses --      1.5285                 5.9074                 1.3698
 Frc consts  --      0.6387                 2.7400                 0.6516
 IR Inten    --     29.8891                26.7971               103.3511

                     43                     44                     45
                      A                      A                      A
 Frequencies --    952.8720               989.7754               997.4472
 Red. masses --      6.7822                 2.5283                 4.7200
 Frc consts  --      3.6282                 1.4593                 2.7667
 IR Inten    --    284.6470                76.3718               270.1351

                     46                     47                     48
                      A                      A                      A
 Frequencies --   1014.5692              1058.0550              1071.1865
 Red. masses --      2.6134                 1.4897                 2.4553
 Frc consts  --      1.5850                 0.9826                 1.6599
 IR Inten    --     19.5151                31.5146                12.4656

                     49                     50                     51
                      A                      A                      A
 Frequencies --   1115.4107              1139.3084              1148.2967
 Red. masses --      3.4854                 2.5357                 2.1155
 Frc consts  --      2.5549                 1.9392                 1.6435
 IR Inten    --    182.2715               199.1910               539.0256

                     52                     53                     54
                      A                      A                      A
 Frequencies --   1171.6149              1184.1526              1211.7245
 Red. masses --      2.0022                 1.5264                 1.4973
 Frc consts  --      1.6193                 1.2610                 1.2953
 IR Inten    --     12.8804                23.2373               141.5675

                     55                     56                     57
                      A                      A                      A
 Frequencies --   1219.5972              1237.4846              1256.0498
 Red. masses --      1.6769                 2.4372                 2.4641
 Frc consts  --      1.4696                 2.1990                 2.2905
 IR Inten    --    204.1001               237.9133                52.4314

                     58                     59                     60
                      A                      A                      A
 Frequencies --   1297.6167              1332.6985              1342.6546
 Red. masses --      5.3403                 6.0430                 7.1491
 Frc consts  --      5.2979                 6.3236                 7.5933
 IR Inten    --     73.9355               866.6174                13.8409

                     61                     62                     63
                      A                      A                      A
 Frequencies --   1353.3517              1382.1195              1401.5685
 Red. masses --      3.2244                 1.4863                 2.2722
 Frc consts  --      3.4795                 1.6728                 2.6299
 IR Inten    --    190.9607               673.4528               415.4534

                     64                     65                     66
                      A                      A                      A
 Frequencies --   1441.3887              1444.6479              1471.5108
 Red. masses --      4.0390                 5.0892                 1.3776
 Frc consts  --      4.9441                 6.2578                 1.7575
 IR Inten    --     76.2070               886.3028               134.5547

                     67                     68                     69
                      A                      A                      A
 Frequencies --   1477.2107              1485.5658              1495.9580
 Red. masses --      1.3281                 1.8484                 3.3254
 Frc consts  --      1.7076                 2.4034                 4.3846
 IR Inten    --    153.7776              1134.3013               453.5439

                     70                     71                     72
                      A                      A                      A
 Frequencies --   1528.8559              1549.5407              1566.6416
 Red. masses --      4.8416                 5.9513                 5.5307
 Frc consts  --      6.6677                 8.4192                 7.9977
 IR Inten    --    190.4609               419.7908               112.3335

                     73                     74                     75
                      A                      A                      A
 Frequencies --   1610.3694              1622.6428              2922.4404
 Red. masses --      5.5645                 6.3557                 1.0603
 Frc consts  --      8.5021                 9.8596                 5.3352
 IR Inten    --    293.7038              1667.3086                50.4381

                     76                     77                     78
                      A                      A                      A
 Frequencies --   3004.1760              3062.7237              3088.0946
 Red. masses --      1.0764                 1.0954                 1.0880
 Frc consts  --      5.7235                 6.0539                 6.1132
 IR Inten    --   1087.8691               110.1617                35.0534

                     79                     80                     81
                      A                      A                      A
 Frequencies --   3127.2983              3136.0011              3165.4664
 Red. masses --      1.0889                 1.0889                 1.0889
 Frc consts  --      6.2745                 6.3096                 6.4284
 IR Inten    --     13.2258                78.6343                85.8650

                     82                     83                     84
                      A                      A                      A
 Frequencies --   3761.8107              3777.9173              3827.0086
 Red. masses --      1.0649                 1.0648                 1.0654
 Frc consts  --      8.8786                 8.9545                 9.1933
 IR Inten    --   1300.9716              2165.8450                14.9975

 - Thermochemistry -
 -------------------
 Temperature   298.150 Kelvin.  Pressure   1.00000 Atm.
 Atom     1 has atomic number  6 and mass  12.00000

 Molecular mass:   270.05282 amu.
 Principal axes and moments of inertia in atomic units:
                           1         2         3
     Eigenvalues --  2833.881227534.08057**********
           X            0.99963   0.02294  -0.01449
           Y           -0.01470   0.90682   0.42126
           Z            0.02280  -0.42090   0.90682
 This molecule is an asymmetric top.
 Rotational symmetry number  1.
 Warning -- assumption of classical behavior for rotation
           may cause significant error
 Rotational temperatures (Kelvin)      0.03056     0.01150     0.00838
 Rotational constants (GHZ):           0.63684     0.23954     0.17453
 Zero-point vibrational energy     558049.0 (Joules/Mol)
                                  133.37692 (Kcal/Mol)
 Warning -- explicit consideration of  32 degrees of freedom as
           vibrations may cause significant error
 Vibrational temperatures:     40.14    73.15    93.84   200.47   222.99
          (Kelvin)            231.17   245.38   285.22   293.02   350.08
                              355.24   384.83   411.76   433.63   456.50
                              495.72   498.98   526.18   540.94   559.70
                              594.47   611.25   672.84   726.66   770.00
                              780.11   793.29   831.11   852.83   865.50
                              872.27   890.75   951.12   996.17  1040.22
                             1061.17  1068.40  1095.99  1172.12  1211.70
                             1276.58  1292.78  1370.97  1424.07  1435.10
                             1459.74  1522.31  1541.20  1604.83  1639.21
                             1652.14  1685.69  1703.73  1743.40  1754.73
                             1780.46  1807.18  1866.98  1917.46  1931.78
                             1947.17  1988.56  2016.54  2073.84  2078.53
                             2117.18  2125.38  2137.40  2152.35  2199.68
                             2229.44  2254.05  2316.96  2334.62  4204.74
                             4322.34  4406.58  4443.08  4499.48  4512.01
                             4554.40  5412.41  5435.58  5506.21

 Zero-point correction=                           0.212550 (Hartree/Particle)
 Thermal correction to Energy=                    0.229787
 Thermal correction to Enthalpy=                  0.230731
 Thermal correction to Gibbs Free Energy=         0.168150
 Sum of electronic and zero-point Energies=           -953.758625
 Sum of electronic and thermal Energies=              -953.741388
 Sum of electronic and thermal Enthalpies=            -953.740444
 Sum of electronic and thermal Free Energies=         -953.803025

                     E (Thermal)             CV                S
                      KCal/Mol        Cal/Mol-Kelvin    Cal/Mol-Kelvin
 Total                  144.194             67.870            131.714
 Electronic               0.000              0.000              0.000
 Translational            0.889              2.981             42.679
 Rotational               0.889              2.981             33.756
 Vibrational            142.416             61.908             55.278
 Vibration     1          0.593              1.984              5.973
 Vibration     2          0.595              1.977              4.784
 Vibration     3          0.597              1.971              4.293
 Vibration     4          0.615              1.914              2.813
 Vibration     5          0.620              1.897              2.610
 Vibration     6          0.622              1.891              2.542
 Vibration     7          0.626              1.879              2.429
 Vibration     8          0.637              1.842              2.149
 Vibration     9          0.639              1.835              2.100
 Vibration    10          0.659              1.774              1.778
 Vibration    11          0.661              1.768              1.753
 Vibration    12          0.673              1.733              1.612
 Vibration    13          0.684              1.699              1.496
 Vibration    14          0.693              1.671              1.409
 Vibration    15          0.704              1.641              1.324
 Vibration    16          0.723              1.586              1.191
 Vibration    17          0.725              1.582              1.181
 Vibration    18          0.739              1.543              1.098
 Vibration    19          0.747              1.521              1.055
 Vibration    20          0.757              1.494              1.004
 Vibration    21          0.777              1.442              0.915
 Vibration    22          0.787              1.416              0.876
 Vibration    23          0.825              1.322              0.744
 Vibration    24          0.860              1.239              0.646
 Vibration    25          0.890              1.172              0.576
 Vibration    26          0.897              1.157              0.561
 Vibration    27          0.907              1.137              0.541
 Vibration    28          0.934              1.080              0.490
 Vibration    29          0.950              1.047              0.462
 Vibration    30          0.960              1.029              0.447
 Vibration    31          0.965              1.019              0.439
 Vibration    32          0.979              0.992              0.418

 Optimization completed.
    -- Stationary point found.
 Normal termination of Gaussian 16 at Sun Jan  7 07:33:26 2024.
