 Q-Chem 5.4, Q-Chem, Inc., Pleasanton, CA (2021)
 Q-Chem 5.4.0 for Intel X86 EM64T Linux

User input:
--------------------------------------------------------------
$molecule
-2 1
C                  4.6170820000      1.3055920000     -0.5064440000
C                  3.3046060000      0.6141260000     -0.2277920000
C                  3.3039920000     -0.6636420000      0.3908020000
C                  2.1134000000     -1.3280020000      0.6674470000
O                  2.2008350000     -2.5480220000      1.3138870000
C                  0.8437420000     -0.7925010000      0.3125530000
C                 -0.4079710000     -1.5249570000      0.5449210000
O                 -0.4359640000     -2.7183730000      0.9381260000
C                 -1.6369680000     -0.7642230000      0.2576330000
C                 -2.9307670000     -1.2758440000      0.5451670000
O                 -3.0769810000     -2.5013160000      1.1665370000
C                 -4.1001470000     -0.5792590000      0.2377060000
C                 -4.0103560000      0.6882720000     -0.3693660000
O                 -5.2194100000      1.3387620000     -0.6547540000
C                 -2.7952500000      1.2405530000     -0.6583980000
C                 -1.5872290000      0.5478970000     -0.3528380000
C                 -0.3521440000      1.2165960000     -0.6742190000
O                 -0.3402260000      2.3770280000     -1.2366820000
C                  0.8551410000      0.5221390000     -0.3004950000
C                  2.0936500000      1.1798850000     -0.5468070000
H                  5.2136390000      1.4461920000      0.4116760000
H                  4.4582940000      2.2909050000     -0.9551310000
H                  5.2464520000      0.7257700000     -1.1922380000
H                  4.2487880000     -1.1474490000      0.6406810000
H                  3.1165970000     -2.6171200000      1.6094840000
H                 -4.0135070000     -2.5749040000      1.3823240000
H                 -5.0749890000     -1.0098300000      0.4539230000
H                 -4.9776990000      2.1713330000     -1.0732720000
H                 -2.6868990000      2.2189040000     -1.1204030000
H                  2.0302880000      2.1614910000     -1.0040260000
$end
$rem
MAX_SCF_CYCLES=200
BASIS  =  6-311++G(d,p)
GUI  =  2
JOB_TYPE  =  SP
METHOD  =  B3LYP
SOLVENT_METHOD = COSMO
$end
$solvent
dielectric 37.219
opticaldielectric 1.43
$end

--------------------------------------------------------------

             Standard Nuclear Orientation (Angstroms)
    I     Atom           X                Y                Z
 ----------------------------------------------------------------
    1      C       4.9696865947    -1.6424718682    -0.0516148945
    2      C       3.6646254532    -0.8843381286    -0.0312662640
    3      C       3.6791685852     0.5350729739    -0.0515294086
    4      C       2.4958487720     1.2665191137    -0.0390098104
    5      O       2.5987404737     2.6444471110    -0.1076107232
    6      C       1.2183360612     0.6445165587     0.0372568569
    7      C      -0.0266699198     1.4195962650     0.1177780961
    8      O      -0.0438062446     2.6675829307     0.2656671008
    9      C      -1.2630372681     0.6216356051     0.0381614836
   10      C      -2.5498398894     1.2203503461    -0.0253001097
   11      O      -2.6809900027     2.5950671365    -0.0723556888
   12      C      -3.7267564035     0.4713715373    -0.0586284149
   13      C      -3.6518982890    -0.9348255927    -0.0431504594
   14      O      -4.8679397993    -1.6322872688    -0.0775798242
   15      C      -2.4439323401    -1.5701966762     0.0033064441
   16      C      -1.2284278039    -0.8259862709     0.0372708294
   17      C      -0.0014372023    -1.5807395968     0.0641136623
   18      O      -0.0032984152    -2.8702114584     0.0832955782
   19      C       1.2145576773    -0.8060770454     0.0370654051
   20      C       2.4463507989    -1.5192094084     0.0005704293
   21      H       5.5821346895    -1.3880463837    -0.9340931960
   22      H       4.7997440924    -2.7233700867    -0.0640224757
   23      H       5.5885253634    -1.4134949452     0.8242970338
   24      H       4.6298276381     1.0692402712    -0.0593315399
   25      H       3.5198643317     2.8224281045    -0.3326124231
   26      H      -3.6132624119     2.7627651073    -0.2506972636
   27      H      -4.6961905784     0.9631549051    -0.0869939193
   28      H      -4.6364215188    -2.5662074811    -0.0467850707
   29      H      -2.3469962500    -2.6532106986     0.0098837036
   30      H       2.3716775880    -2.6013532769    -0.0011194644
 ----------------------------------------------------------------

   15    -953.9711945142      7.54e-06  Convergence criterion met
 Total energy in the final basis set =     -953.9711945142
    6    -954.2649596396      4.01e-06  Convergence criterion met
 Total energy in the final basis set =     -954.2649596396

                    Orbital Energies (a.u.)
 --------------------------------------------------------------

 Alpha MOs
 -- Occupied --
-19.1416 -19.1373 -19.1340 -19.0269 -19.0173 -10.2243 -10.2172 -10.2147
-10.1943 -10.1659 -10.1590 -10.1522 -10.1462 -10.1439 -10.1418 -10.1417
-10.1396 -10.1380 -10.1351 -10.1324  -1.0477  -1.0435  -1.0430  -0.9588
 -0.9362  -0.8291  -0.8222  -0.7634  -0.7312  -0.7197  -0.7124  -0.6762
 -0.6379  -0.6180  -0.5950  -0.5785  -0.5537  -0.5360  -0.5187  -0.4808
 -0.4770  -0.4736  -0.4483  -0.4377  -0.4279  -0.4132  -0.4099  -0.4059
 -0.3958  -0.3910  -0.3885  -0.3844  -0.3783  -0.3713  -0.3584  -0.3554
 -0.3535  -0.3503  -0.3351  -0.3275  -0.3210  -0.3168  -0.3010  -0.2789
 -0.2246  -0.2160  -0.2086  -0.2066  -0.2024  -0.1941  -0.1042

          Ground-State Mulliken Net Atomic Charges

     Atom                 Charge (a.u.)
  ----------------------------------------
      1 C                    -0.371720
      2 C                     0.320003
      3 C                    -0.257202
      4 C                    -0.110902
      5 O                    -0.273933
      6 C                     0.015415
      7 C                    -0.201864
      8 O                    -0.624530
      9 C                    -0.087699
     10 C                    -0.108874
     11 O                    -0.263790
     12 C                    -0.071940
     13 C                    -0.688338
     14 O                    -0.351193
     15 C                     0.067499
     16 C                     0.574407
     17 C                    -0.485921
     18 O                    -0.725151
     19 C                     0.102732
     20 C                    -0.474208
     21 H                     0.158995
     22 H                     0.164000
     23 H                     0.165146
     24 H                     0.151348
     25 H                     0.303085
     26 H                     0.307898
     27 H                     0.186632
     28 H                     0.316858
     29 H                     0.146701
     30 H                     0.116548
  ----------------------------------------
  Sum of atomic charges =    -2.000000

                    Cartesian Multipole Moments
 -----------------------------------------------------------------
    Charge (ESU x 10^10)
                -9.6064
    Dipole Moment (Debye)
         X       1.8626      Y       0.9650      Z      -1.7104
       Tot       2.7067
    Quadrupole Moments (Debye-Ang)
        XX    -131.0063     XY       2.3294     YY    -176.7360
        XZ      -0.6727     YZ      -3.7063     ZZ    -128.1165

 Total job time:  103.76s(wall), 793.77s(cpu)
        *  Thank you very much for using Q-Chem.  Have a nice day.  *
