 Q-Chem 5.4, Q-Chem, Inc., Pleasanton, CA (2021)
 Q-Chem 5.4.0 for Intel X86 EM64T Linux

User input:
--------------------------------------------------------------
$molecule
-1 2
C                 -2.8901220000     -1.9246540000     -0.1390790000
C                 -2.3999270000     -0.4961670000     -0.0503860000
C                 -3.3553240000      0.5054540000      0.0501040000
C                 -3.0039710000      1.8659470000      0.1374690000
C                 -1.6759530000      2.2256800000      0.1236710000
C                 -0.6622990000      1.2490810000      0.0233590000
C                  0.7253490000      1.7239800000      0.0161090000
O                  1.0075950000      2.9469810000      0.0957450000
C                  1.7610900000      0.7018320000     -0.0875970000
C                  3.1210880000      1.0849900000     -0.1002880000
C                  4.1263100000      0.1445450000     -0.1971040000
C                  3.7990020000     -1.2271520000     -0.2854810000
C                  2.4760090000     -1.6217210000     -0.2747160000
C                  1.4297110000     -0.6773870000     -0.1764220000
C                  0.0420300000     -1.1566120000     -0.1698430000
O                 -0.1998940000     -2.3888050000     -0.2505040000
C                 -1.0115260000     -0.1397800000     -0.0658870000
H                 -3.9851250000     -1.9387670000     -0.1083230000
H                 -2.4993290000     -2.5368110000      0.6758450000
H                 -2.5495290000     -2.4120860000     -1.0544590000
H                 -4.4051060000      0.2249390000      0.0610750000
H                 -3.7802540000      2.6217720000      0.2149170000
H                 -1.3608200000      3.2602040000      0.1885780000
H                  3.3393300000      2.1445050000     -0.0309630000
H                  5.1668410000      0.4560730000     -0.2054730000
H                  4.5883740000     -1.9693600000     -0.3617560000
H                  2.1964470000     -2.6666800000     -0.3412110000
$end
$rem
MAX_SCF_CYCLES=200
BASIS  =  6-311++G(d,p)
GUI  =  2
JOB_TYPE  =  SP
METHOD  =  B3LYP
SOLVENT_METHOD = COSMO
$end
$solvent
dielectric 37.219
opticaldielectric 1.43
$end

--------------------------------------------------------------

             Standard Nuclear Orientation (Angstroms)
    I     Atom           X                Y                Z
 ----------------------------------------------------------------
    1      C       2.8971829746    -2.2610882660     0.0008088223
    2      C       2.5073048814    -0.7993334275     0.0000604400
    3      C       3.5306596464     0.1381478302    -0.0003998322
    4      C       3.2746192741     1.5225126903    -0.0005965874
    5      C       1.9740513519     1.9716818872    -0.0002267438
    6      C       0.8942909005     1.0631557310     0.0001294100
    7      C      -0.4577828319     1.6315263103     0.0004475200
    8      O      -0.6544063925     2.8737321055     0.0001630754
    9      C      -1.5627411391     0.6789676511     0.0002812257
   10      C      -2.8935878386     1.1537441637     0.0002802619
   11      C      -3.9623937295     0.2808551189    -0.0000164637
   12      C      -3.7311166983    -1.1130618527    -0.0003196011
   13      C      -2.4380016943    -1.5967607727    -0.0003036511
   14      C      -1.3279249321    -0.7227485278     0.0000069185
   15      C       0.0238683437    -1.2954730507     0.0000495373
   16      O       0.1796324558    -2.5441004010    -0.0004883791
   17      C       1.1462427301    -0.3494232929     0.0001111144
   18      H       3.9891785456    -2.3489633401     0.0013768269
   19      H       2.4943311870    -2.7867085430    -0.8669412851
   20      H       2.4934792438    -2.7859826502     0.8685779586
   21      H       4.5590032754    -0.2130795173    -0.0004806716
   22      H       4.1020813954     2.2262109550    -0.0009277640
   23      H       1.7314785536     3.0275796420    -0.0002674459
   24      H      -3.0377163310     2.2280972255     0.0004740256
   25      H      -4.9793418351     0.6624845816    -0.0000405581
   26      H      -4.5706763977    -1.8022194500    -0.0005699194
   27      H      -2.2316535773    -2.6606856923    -0.0004729618
 ----------------------------------------------------------------

    9    -728.3405158369      8.56e-06  Convergence criterion met
 Total energy in the final basis set =     -728.3405158369
    4    -728.4206444985      9.50e-06  Convergence criterion met
 Total energy in the final basis set =     -728.4206444985

                    Orbital Energies (a.u.)
 --------------------------------------------------------------

 Alpha MOs
 -- Occupied --
-19.0778 -19.0750 -10.2265 -10.2240 -10.1835 -10.1759 -10.1723 -10.1720
-10.1718 -10.1714 -10.1712 -10.1695 -10.1690 -10.1686 -10.1656 -10.1645
-10.1520  -1.0052  -1.0025  -0.8608  -0.8509  -0.7846  -0.7683  -0.7497
 -0.7367  -0.6868  -0.6594  -0.6307  -0.6153  -0.5764  -0.5466  -0.5320
 -0.5188  -0.4723  -0.4626  -0.4570  -0.4543  -0.4279  -0.4228  -0.4185
 -0.4125  -0.4050  -0.4021  -0.3998  -0.3796  -0.3754  -0.3651  -0.3575
 -0.3441  -0.3421  -0.3386  -0.3316  -0.2684  -0.2569  -0.2484  -0.2477
 -0.2470  -0.2355  -0.1417

 Beta MOs
 -- Occupied --
-19.0724 -19.0694 -10.2248 -10.2221 -10.1835 -10.1752 -10.1715 -10.1715
-10.1709 -10.1709 -10.1704 -10.1690 -10.1689 -10.1686 -10.1650 -10.1644
-10.1520  -0.9956  -0.9927  -0.8581  -0.8497  -0.7807  -0.7668  -0.7476
 -0.7348  -0.6840  -0.6536  -0.6289  -0.6127  -0.5755  -0.5444  -0.5296
 -0.5173  -0.4692  -0.4619  -0.4552  -0.4536  -0.4224  -0.4189  -0.4146
 -0.4093  -0.4033  -0.3986  -0.3953  -0.3741  -0.3643  -0.3608  -0.3505
 -0.3431  -0.3412  -0.3303  -0.3270  -0.2515  -0.2479  -0.2426  -0.2421
 -0.2401  -0.2305

          Ground-State Mulliken Net Atomic Charges

     Atom                 Charge (a.u.)    Spin (a.u.)
  --------------------------------------------------------
      1 C                    -0.536008       0.005725
      2 C                     0.747291       0.017875
      3 C                    -0.436272       0.053176
      4 C                    -0.369910       0.037066
      5 C                    -0.047228       0.035690
      6 C                     0.389401       0.036219
      7 C                    -0.528098       0.114144
      8 O                    -0.495590       0.198352
      9 C                     0.050848       0.011787
     10 C                     0.034710       0.033095
     11 C                    -0.488318       0.028386
     12 C                    -0.493224       0.042747
     13 C                     0.127860       0.020729
     14 C                     0.020727       0.039085
     15 C                    -0.732400       0.089612
     16 O                    -0.446943       0.201702
     17 C                     0.433149       0.052682
     18 H                     0.154742      -0.000337
     19 H                     0.166828      -0.000050
     20 H                     0.166520      -0.000052
     21 H                     0.142538      -0.004198
     22 H                     0.214848      -0.002978
     23 H                     0.166760      -0.001856
     24 H                     0.175473      -0.001651
     25 H                     0.200427      -0.002538
     26 H                     0.201797      -0.003487
     27 H                     0.180070      -0.000926
  --------------------------------------------------------
  Sum of atomic charges =    -1.000000

                    Cartesian Multipole Moments
 -----------------------------------------------------------------
    Charge (ESU x 10^10)
                -4.8032
    Dipole Moment (Debye)
         X       1.3385      Y      -1.7011      Z      -0.0010
       Tot       2.1646
    Quadrupole Moments (Debye-Ang)
        XX     -95.7245     XY       5.4961     YY    -134.5661
        XZ      -0.0005     YZ      -0.0036     ZZ    -106.3140

 Total job time:  91.77s(wall), 576.88s(cpu)
        *  Thank you very much for using Q-Chem.  Have a nice day.  *
