 Q-Chem 5.4, Q-Chem, Inc., Pleasanton, CA (2021)
 Q-Chem 5.4.0 for Intel X86 EM64T Linux

User input:
--------------------------------------------------------------
$molecule
-1 2
C                 -3.0100270000     -1.5508880000     -0.1485220000
O                 -2.2713110000     -0.5576750000      0.5573870000
C                 -0.9205940000     -0.5208050000      0.2820480000
C                 -0.3821670000      0.6291430000     -0.2545340000
O                 -1.2354800000      1.6413010000     -0.6427230000
C                 -1.0743430000      2.8740830000      0.0526930000
C                  1.0481720000      0.7805150000     -0.4953050000
O                  1.5344450000      1.8344310000     -1.0000480000
C                  1.8820350000     -0.3555660000     -0.1372140000
C                  1.3276130000     -1.4978480000      0.3822090000
C                 -0.0839230000     -1.6623190000      0.6365210000
O                 -0.5639690000     -2.7170670000      1.1444460000
C                  3.3620970000     -0.2230530000     -0.3796860000
H                 -2.6202210000     -2.5488600000      0.0630860000
H                 -4.0423500000     -1.4707550000      0.2009940000
H                 -2.9828470000     -1.3541140000     -1.2289420000
H                 -1.3023080000      2.7461750000      1.1196530000
H                 -1.7965230000      3.5685770000     -0.3836660000
H                 -0.0611460000      3.2621440000     -0.0728370000
H                  1.9533780000     -2.3470240000      0.6456990000
H                  3.7785710000      0.6242050000      0.1761840000
H                  3.8897990000     -1.1339980000     -0.0827680000
H                  3.5710990000     -0.0206020000     -1.4357520000
$end
$rem
MAX_SCF_CYCLES=200
BASIS  =  6-311++G(d,p)
GUI  =  2
JOB_TYPE  =  SP
METHOD  =  B3LYP
SOLVENT_METHOD = COSMO
$end
$solvent
dielectric 37.219
opticaldielectric 1.43
$end

--------------------------------------------------------------

             Standard Nuclear Orientation (Angstroms)
    I     Atom           X                Y                Z
 ----------------------------------------------------------------
    1      C      -3.2138395141     0.1318278658     0.7123999830
    2      O      -2.2839265880    -0.3344730949    -0.2614101999
    3      C      -0.9919822129     0.1231299436    -0.1094675567
    4      C       0.0175130366    -0.7918137653     0.1002980997
    5      O      -0.3192954011    -2.1134619711     0.3079123793
    6      C       0.1746768634    -3.0281563074    -0.6660720551
    7      C       1.4192831077    -0.3987663623     0.1857862177
    8      O       2.3400398271    -1.2425608974     0.3911729449
    9      C       1.6969376357     1.0208217205     0.0377512760
   10      C       0.6785225010     1.9193306926    -0.1559092900
   11      C      -0.7132024057     1.5480573302    -0.2529508109
   12      O      -1.6291078955     2.3956767108    -0.4617182192
   13      C       3.1373244670     1.4504088181     0.1253674362
   14      H      -3.2658710507     1.2226792816     0.7091313599
   15      H      -4.1835587217    -0.2896543666     0.4362281265
   16      H      -2.9382275693    -0.2319236581     1.7116442077
   17      H      -0.2562627592    -2.8091374647    -1.6525070137
   18      H      -0.1533042248    -4.0209209053    -0.3480753502
   19      H       1.2652587475    -2.9935969110    -0.7145909531
   20      H       0.8890107373     2.9806487775    -0.2627143434
   21      H       3.7431180277     0.9585339832    -0.6436328738
   22      H       3.2297170961     2.5340154525     0.0082744961
   23      H       3.5770393042     1.1588702191     1.0853673044
 ----------------------------------------------------------------

   10    -650.0741090024      4.30e-06  Convergence criterion met
 Total energy in the final basis set =     -650.0741090024
    4    -650.1633667839      8.22e-06  Convergence criterion met
 Total energy in the final basis set =     -650.1633667839

                    Orbital Energies (a.u.)
 --------------------------------------------------------------

 Alpha MOs
 -- Occupied --
-19.1369 -19.1364 -19.0818 -19.0811 -10.2245 -10.2229 -10.2174 -10.2167
-10.2034 -10.2033 -10.1738 -10.1589 -10.1562  -1.0618  -1.0430  -1.0005
 -0.9981  -0.8263  -0.7668  -0.7110  -0.7007  -0.6687  -0.6458  -0.5828
 -0.5624  -0.5134  -0.4936  -0.4912  -0.4677  -0.4447  -0.4425  -0.4373
 -0.4264  -0.4189  -0.4145  -0.3912  -0.3849  -0.3742  -0.3711  -0.3672
 -0.3482  -0.3467  -0.2926  -0.2894  -0.2753  -0.2429  -0.2412  -0.2298
 -0.1638

 Beta MOs
 -- Occupied --
-19.1367 -19.1363 -19.0752 -19.0745 -10.2229 -10.2210 -10.2166 -10.2157
-10.2033 -10.2033 -10.1724 -10.1580 -10.1563  -1.0608  -1.0418  -0.9892
 -0.9868  -0.8206  -0.7649  -0.7068  -0.6995  -0.6645  -0.6410  -0.5796
 -0.5590  -0.5122  -0.4909  -0.4893  -0.4641  -0.4431  -0.4407  -0.4343
 -0.4252  -0.4123  -0.4081  -0.3869  -0.3734  -0.3706  -0.3676  -0.3475
 -0.3459  -0.3408  -0.2896  -0.2858  -0.2480  -0.2370  -0.2358  -0.2232

          Ground-State Mulliken Net Atomic Charges

     Atom                 Charge (a.u.)    Spin (a.u.)
  --------------------------------------------------------
      1 C                    -0.284131       0.001277
      2 O                    -0.218593       0.001038
      3 C                     0.256481       0.115249
      4 C                    -0.194505       0.045796
      5 O                    -0.208939       0.000469
      6 C                    -0.284906       0.001026
      7 C                    -0.378962       0.099115
      8 O                    -0.516313       0.242152
      9 C                     1.139222       0.091855
     10 C                    -0.846261       0.048112
     11 C                    -0.187678       0.112109
     12 O                    -0.537839       0.231659
     13 C                    -0.394754       0.005966
     14 H                     0.172669      -0.000485
     15 H                     0.164313       0.000391
     16 H                     0.149703       0.000932
     17 H                     0.150404       0.000789
     18 H                     0.165299       0.000414
     19 H                     0.169655      -0.000117
     20 H                     0.176732      -0.007508
     21 H                     0.173936       0.004675
     22 H                     0.160804      -0.000112
     23 H                     0.173662       0.005198
  --------------------------------------------------------
  Sum of atomic charges =    -1.000000

                    Cartesian Multipole Moments
 -----------------------------------------------------------------
    Charge (ESU x 10^10)
                -4.8032
    Dipole Moment (Debye)
         X      -0.0381      Y      -1.7747      Z       0.1945
       Tot       1.7858
    Quadrupole Moments (Debye-Ang)
        XX     -96.8350     XY      16.4526     YY     -96.5028
        XZ      -8.6224     YZ       8.2505     ZZ     -81.2759

 Total job time:  48.86s(wall), 339.25s(cpu)
        *  Thank you very much for using Q-Chem.  Have a nice day.  *
