 Gaussian 16, Revision A.03,
 Gaussian 16:  ES64L-G16RevA.03 25-Dec-2016

 ----------------------------------------------------------------------
 #P UB3LYP/6-311++G(d,p) nosym opt freq SCRF=(PCM,Solvent=n,n-DiMethylF
 ormamide)
 ----------------------------------------------------------------------

 -------
 Reduced
 -------
 Symbolic Z-matrix:
 Charge = -2 Multiplicity = 1

 SCF Done:  E(UB3LYP) =  -783.883147491     A.U. after   17 cycles
 SCF Done:  E(UB3LYP) =  -783.884000382     A.U. after   14 cycles
 SCF Done:  E(UB3LYP) =  -783.884264411     A.U. after   14 cycles
 SCF Done:  E(UB3LYP) =  -783.884427807     A.U. after   12 cycles
 SCF Done:  E(UB3LYP) =  -783.884430181     A.U. after   12 cycles
 SCF Done:  E(UB3LYP) =  -783.884445804     A.U. after   11 cycles
 SCF Done:  E(UB3LYP) =  -783.884448578     A.U. after   11 cycles
 SCF Done:  E(UB3LYP) =  -783.884451590     A.U. after   10 cycles
 SCF Done:  E(UB3LYP) =  -783.884454071     A.U. after   10 cycles
 SCF Done:  E(UB3LYP) =  -783.884455305     A.U. after   11 cycles
 SCF Done:  E(UB3LYP) =  -783.884456356     A.U. after   10 cycles
 SCF Done:  E(UB3LYP) =  -783.884458096     A.U. after   10 cycles
 SCF Done:  E(UB3LYP) =  -783.884459269     A.U. after   11 cycles
 SCF Done:  E(UB3LYP) =  -783.884459706     A.U. after   10 cycles
 Optimization completed.
    -- Stationary point found.
 Normal termination of Gaussian 16 at Sat Feb 10 19:27:31 2024.

 ----------------------------------------------------------------------
 #P Geom=AllCheck Guess=TCheck SCRF=Check GenChk UB3LYP/6-311++G(d,p) F
 req
 ----------------------------------------------------------------------

 Structure from the checkpoint file:  "170-an.chk"
 -------
 Reduced
 -------
 Charge = -2 Multiplicity = 1

                          Input orientation:
 ---------------------------------------------------------------------
 Center     Atomic      Atomic             Coordinates (Angstroms)
 Number     Number       Type             X           Y           Z
 ---------------------------------------------------------------------
      1          6           0        3.883747    1.280653   -1.320963
      2          7           0        2.521535    1.128746   -0.875058
      3          6           0        2.055156    0.011242   -0.225302
      4          6           0        2.925475   -0.985809    0.215767
      5          6           0        2.431934   -2.108294    0.928165
      6          6           0        1.092557   -2.240172    1.191741
      7          6           0        0.146599   -1.261649    0.749615
      8          6           0       -1.242686   -1.472223    1.053543
      9          8           0       -1.657459   -2.515278    1.720893
     10          6           0       -2.149419   -0.466580    0.577191
     11          6           0       -3.547157   -0.580600    0.833505
     12          6           0       -4.455151    0.352891    0.389281
     13          6           0       -4.002069    1.478390   -0.354880
     14          6           0       -2.659023    1.622871   -0.620695
     15          6           0       -1.688637    0.680256   -0.175696
     16          6           0       -0.300427    0.887351   -0.482736
     17          8           0        0.070543    1.939073   -1.187562
     18          6           0        0.617842   -0.101935    0.009206
     19          1           0        4.208325    0.464702   -1.985341
     20          1           0        4.593267    1.317009   -0.483146
     21          1           0        3.970383    2.219587   -1.870458
     22          1           0        1.758743    1.720780   -1.231487
     23          1           0        3.988654   -0.896022    0.029297
     24          1           0        3.133416   -2.866378    1.267038
     25          1           0        0.709524   -3.092372    1.739309
     26          1           0       -3.879537   -1.443249    1.400464
     27          1           0       -5.513215    0.234156    0.603317
     28          1           0       -4.714012    2.217930   -0.708896
     29          1           0       -2.298905    2.474922   -1.186112
 ---------------------------------------------------------------------

 SCF Done:  E(UB3LYP) =  -783.884459706     A.U. after    1 cycles

 Alpha  occ. eigenvalues --  -19.02358 -19.01365 -14.28625 -10.18795 -10.18257
 Alpha  occ. eigenvalues --  -10.17600 -10.16806 -10.14795 -10.14716 -10.14534
 Alpha  occ. eigenvalues --  -10.14497 -10.14310 -10.14034 -10.13561 -10.13458
 Alpha  occ. eigenvalues --  -10.13304 -10.13029 -10.12802  -0.93833  -0.92353
 Alpha  occ. eigenvalues --   -0.90079  -0.82361  -0.80618  -0.75023  -0.72160
 Alpha  occ. eigenvalues --   -0.71871  -0.70324  -0.66023  -0.63502  -0.60047
 Alpha  occ. eigenvalues --   -0.58779  -0.55084  -0.53023  -0.50378  -0.49362
 Alpha  occ. eigenvalues --   -0.47089  -0.44615  -0.43849  -0.42810  -0.42400
 Alpha  occ. eigenvalues --   -0.41877  -0.40589  -0.39748  -0.37831  -0.37562
 Alpha  occ. eigenvalues --   -0.37266  -0.35948  -0.35465  -0.34525  -0.34040
 Alpha  occ. eigenvalues --   -0.32338  -0.32220  -0.31206  -0.30179  -0.29778
 Alpha  occ. eigenvalues --   -0.26762  -0.22779  -0.22212  -0.21356  -0.20286
 Alpha  occ. eigenvalues --   -0.19242  -0.17584  -0.10601
 Alpha virt. eigenvalues --   -0.01895  -0.00085   0.00531   0.00571   0.01209
 Alpha virt. eigenvalues --    0.02218   0.02340   0.03129   0.03767   0.03897
 Alpha virt. eigenvalues --    0.04237   0.04733   0.05502   0.06148   0.06552

  Beta  occ. eigenvalues --  -19.02358 -19.01365 -14.28625 -10.18795 -10.18257
  Beta  occ. eigenvalues --  -10.17600 -10.16806 -10.14795 -10.14716 -10.14534
  Beta  occ. eigenvalues --  -10.14497 -10.14310 -10.14034 -10.13561 -10.13458
  Beta  occ. eigenvalues --  -10.13304 -10.13029 -10.12802  -0.93833  -0.92353
  Beta  occ. eigenvalues --   -0.90079  -0.82361  -0.80618  -0.75023  -0.72160
  Beta  occ. eigenvalues --   -0.71871  -0.70324  -0.66023  -0.63502  -0.60047
  Beta  occ. eigenvalues --   -0.58779  -0.55084  -0.53023  -0.50378  -0.49362
  Beta  occ. eigenvalues --   -0.47089  -0.44615  -0.43849  -0.42810  -0.42400
  Beta  occ. eigenvalues --   -0.41877  -0.40589  -0.39748  -0.37831  -0.37562
  Beta  occ. eigenvalues --   -0.37266  -0.35948  -0.35465  -0.34525  -0.34040
  Beta  occ. eigenvalues --   -0.32338  -0.32220  -0.31206  -0.30179  -0.29778
  Beta  occ. eigenvalues --   -0.26762  -0.22779  -0.22212  -0.21356  -0.20286
  Beta  occ. eigenvalues --   -0.19242  -0.17584  -0.10601
  Beta virt. eigenvalues --   -0.01895  -0.00085   0.00531   0.00571   0.01209
  Beta virt. eigenvalues --    0.02218   0.02340   0.03129   0.03767   0.03897
  Beta virt. eigenvalues --    0.04237   0.04733   0.05502   0.06148   0.06552

 Mulliken charges and spin densities:
               1          2
     1  C   -0.354595  -0.000000
     2  N   -0.310002  -0.000000
     3  C    0.136667   0.000000
     4  C   -0.122800   0.000000
     5  C   -0.515273   0.000000
     6  C   -0.163572  -0.000000
     7  C    0.555767  -0.000000
     8  C   -0.543638   0.000000
     9  O   -0.681986  -0.000000
    10  C    0.150512   0.000000
    11  C   -0.092870   0.000000
    12  C   -0.473605   0.000000
    13  C   -0.533642  -0.000000
    14  C   -0.050058  -0.000000
    15  C    0.077052   0.000000
    16  C   -0.272784  -0.000000
    17  O   -0.652905   0.000000
    18  C    0.000475  -0.000000
    19  H    0.143683   0.000000
    20  H    0.139281  -0.000000
    21  H    0.147375  -0.000000
    22  H    0.393257  -0.000000
    23  H    0.138475  -0.000000
    24  H    0.156811   0.000000
    25  H    0.133259  -0.000000
    26  H    0.140609   0.000000
    27  H    0.154725  -0.000000
    28  H    0.155481   0.000000
    29  H    0.144301   0.000000
 Sum of Mulliken charges =  -2.00000   0.00000

 Dipole moment (field-independent basis, Debye):
    X=              7.6690    Y=              5.0765    Z=             -4.3331  Tot=             10.1666
 Quadrupole moment (field-independent basis, Debye-Ang):
   XX=           -139.5933   YY=           -153.2416   ZZ=           -132.9154
   XY=             -7.7977   XZ=              6.5827   YZ=             20.5004

  Exact polarizability: 566.174 -49.769 359.913 -23.348-102.525 240.373
 Approx polarizability: 605.924 -52.169 419.033 -24.063-127.062 270.684

                      1                      2                      3
                      A                      A                      A
 Frequencies --     53.5475                63.2431                70.9026
 Red. masses --      3.2776                 6.4575                 5.2871
 Frc consts  --      0.0055                 0.0152                 0.0157
 IR Inten    --     20.1841                 3.3100                 6.0710

                      4                      5                      6
                      A                      A                      A
 Frequencies --    134.7110               170.5015               178.0160
 Red. masses --      4.0368                 3.8544                 3.6868
 Frc consts  --      0.0432                 0.0660                 0.0688
 IR Inten    --      0.1210                 9.3729                15.9966

                      7                      8                      9
                      A                      A                      A
 Frequencies --    190.3607               232.7979               273.4764
 Red. masses --      2.4626                 1.6971                 4.1143
 Frc consts  --      0.0526                 0.0542                 0.1813
 IR Inten    --      0.7694                 0.0920                21.9583

                     10                     11                     12
                      A                      A                      A
 Frequencies --    284.4922               326.6660               333.3870
 Red. masses --      4.3772                 4.4725                 8.3296
 Frc consts  --      0.2087                 0.2812                 0.5455
 IR Inten    --      0.2779                14.1141                 6.2714

                     13                     14                     15
                      A                      A                      A
 Frequencies --    381.6945               399.6378               414.7364
 Red. masses --      7.1861                 7.6099                12.1396
 Frc consts  --      0.6168                 0.7161                 1.2303
 IR Inten    --      3.8786                 0.0660                11.8836

                     16                     17                     18
                      A                      A                      A
 Frequencies --    445.1905               480.7428               498.6943
 Red. masses --      3.1601                 6.4418                10.7840
 Frc consts  --      0.3690                 0.8772                 1.5801
 IR Inten    --      4.6957                 7.0000                 0.3949

                     19                     20                     21
                      A                      A                      A
 Frequencies --    502.9550               574.3227               587.5043
 Red. masses --      4.2246                 4.0340                 6.3040
 Frc consts  --      0.6296                 0.7840                 1.2820
 IR Inten    --      2.8236                18.5379                66.7917

                     22                     23                     24
                      A                      A                      A
 Frequencies --    616.3143               636.7623               663.2758
 Red. masses --      4.7890                 3.6939                 5.3478
 Frc consts  --      1.0718                 0.8825                 1.3862
 IR Inten    --     19.0890                 9.5000                15.2482

                     25                     26                     27
                      A                      A                      A
 Frequencies --    690.7666               696.8858               720.6184
 Red. masses --      5.7537                 1.9923                 1.4441
 Frc consts  --      1.6176                 0.5701                 0.4418
 IR Inten    --     15.4320               187.3926                48.5021

                     28                     29                     30
                      A                      A                      A
 Frequencies --    747.7802               759.9313               774.9799
 Red. masses --      1.8516                 1.7488                 1.8842
 Frc consts  --      0.6100                 0.5950                 0.6667
 IR Inten    --    144.3912                10.3586                34.6342

                     31                     32                     33
                      A                      A                      A
 Frequencies --    793.9798               805.2588               817.6333
 Red. masses --      4.3060                 2.5000                 2.3556
 Frc consts  --      1.5993                 0.9551                 0.9278
 IR Inten    --     14.5489                 1.0131                10.3046

                     34                     35                     36
                      A                      A                      A
 Frequencies --    851.9568               855.1534               927.1187
 Red. masses --      1.8539                 5.8080                 6.6914
 Frc consts  --      0.7928                 2.5024                 3.3887
 IR Inten    --      0.8291                82.2916                23.9566

                     37                     38                     39
                      A                      A                      A
 Frequencies --    948.4094               973.2705               977.6979
 Red. masses --      1.2549                 1.3616                 5.1766
 Frc consts  --      0.6650                 0.7599                 2.9155
 IR Inten    --      1.3243                 3.3185               216.1217

                     40                     41                     42
                      A                      A                      A
 Frequencies --    979.4869              1019.2903              1065.9118
 Red. masses --      1.2540                 2.0903                 2.2297
 Frc consts  --      0.7088                 1.2795                 1.4926
 IR Inten    --      0.2268                96.5564               191.8846

                     43                     44                     45
                      A                      A                      A
 Frequencies --   1090.9079              1104.3471              1125.2167
 Red. masses --      3.0475                 1.9872                 1.6892
 Frc consts  --      2.1368                 1.4279                 1.2601
 IR Inten    --    588.2414                75.8334               335.3323

                     46                     47                     48
                      A                      A                      A
 Frequencies --   1137.7316              1143.9220              1168.4968
 Red. masses --      1.9457                 1.2872                 1.6118
 Frc consts  --      1.4839                 0.9924                 1.2966
 IR Inten    --    186.4008                 7.0859                 3.3509

                     49                     50                     51
                      A                      A                      A
 Frequencies --   1173.7854              1185.6162              1226.2352
 Red. masses --      1.4825                 1.7749                 2.5512
 Frc consts  --      1.2035                 1.4700                 2.2602
 IR Inten    --    305.5696                46.4060               348.5536

                     52                     53                     54
                      A                      A                      A
 Frequencies --   1245.9682              1265.8733              1306.5594
 Red. masses --      2.4304                 3.4461                 5.6595
 Frc consts  --      2.2230                 3.2535                 5.6923
 IR Inten    --    108.4078               405.7026               184.2639

                     55                     56                     57
                      A                      A                      A
 Frequencies --   1343.0048              1352.0385              1363.5768
 Red. masses --      2.5712                 5.0290                 3.4836
 Frc consts  --      2.7324                 5.4164                 3.8162
 IR Inten    --    489.3829               552.1970              1406.8836

                     58                     59                     60
                      A                      A                      A
 Frequencies --   1407.4078              1432.7587              1448.8066
 Red. masses --      2.6258                 6.4030                 1.5554
 Frc consts  --      3.0645                 7.7442                 1.9236
 IR Inten    --     62.2411               223.4126               217.5031

                     61                     62                     63
                      A                      A                      A
 Frequencies --   1469.3411              1469.9751              1473.0560
 Red. masses --      1.7328                 1.1375                 2.4931
 Frc consts  --      2.2042                 1.4482                 3.1873
 IR Inten    --    173.8394                40.3055                24.5930

                     64                     65                     66
                      A                      A                      A
 Frequencies --   1499.5359              1507.7076              1531.4833
 Red. masses --      4.6242                 1.1000                 4.0672
 Frc consts  --      6.1263                 1.4733                 5.6205
 IR Inten    --     60.6407                47.0447               131.9376

                     67                     68                     69
                      A                      A                      A
 Frequencies --   1561.8320              1583.5841              1605.9295
 Red. masses --      2.1076                 6.6356                 5.1081
 Frc consts  --      3.0291                 9.8042                 7.7617
 IR Inten    --    554.9722               114.4432                18.6973

                     70                     71                     72
                      A                      A                      A
 Frequencies --   1611.1374              2948.6728              2986.8570
 Red. masses --      3.5493                 1.0510                 1.0907
 Frc consts  --      5.4282                 5.3841                 5.7330
 IR Inten    --    180.2135               301.9626               142.3879

                     73                     74                     75
                      A                      A                      A
 Frequencies --   3095.1231              3131.7123              3137.3976
 Red. masses --      1.0931                 1.0868                 1.0846
 Frc consts  --      6.1700                 6.2799                 6.2902
 IR Inten    --     48.8379                69.4542                25.3566

                     76                     77                     78
                      A                      A                      A
 Frequencies --   3153.0948              3172.0486              3176.5894
 Red. masses --      1.0892                 1.0912                 1.0933
 Frc consts  --      6.3803                 6.4689                 6.5001
 IR Inten    --     37.1752                45.4383                88.9080

                     79                     80                     81
                      A                      A                      A
 Frequencies --   3179.2795              3185.2673              3214.1816
 Red. masses --      1.0886                 1.0917                 1.0852
 Frc consts  --      6.4828                 6.5257                 6.6053
 IR Inten    --     40.0355                46.8875               655.7507

 - Thermochemistry -
 -------------------
 Temperature   298.150 Kelvin.  Pressure   1.00000 Atm.
 Atom     1 has atomic number  6 and mass  12.00000

 Molecular mass:   237.07898 amu.
 Principal axes and moments of inertia in atomic units:
                           1         2         3
     Eigenvalues --  2354.991815331.023707673.15086
           X            0.99365  -0.01495   0.11151
           Y           -0.04418   0.85966   0.50895
           Z           -0.10347  -0.51065   0.85354
 This molecule is an asymmetric top.
 Rotational symmetry number  1.
 Warning -- assumption of classical behavior for rotation
           may cause significant error
 Rotational temperatures (Kelvin)      0.03678     0.01625     0.01129
 Rotational constants (GHZ):           0.76635     0.33854     0.23520
 Zero-point vibrational energy     575021.7 (Joules/Mol)
                                  137.43349 (Kcal/Mol)
 Warning -- explicit consideration of  22 degrees of freedom as
           vibrations may cause significant error
 Vibrational temperatures:     77.04    90.99   102.01   193.82   245.31
          (Kelvin)            256.13   273.89   334.94   393.47   409.32
                              470.00   479.67   549.17   574.99   596.71
                              640.53   691.68   717.51   723.64   826.32
                              845.29   886.74   916.16   954.31   993.86
                             1002.66  1036.81  1075.89  1093.37  1115.02
                             1142.36  1158.59  1176.39  1225.78  1230.37
                             1333.92  1364.55  1400.32  1406.69  1409.26
                             1466.53  1533.61  1569.57  1588.91  1618.94
                             1636.94  1645.85  1681.21  1688.82  1705.84
                             1764.28  1792.67  1821.31  1879.85  1932.28
                             1945.28  1961.88  2024.95  2061.42  2084.51
                             2114.05  2114.97  2119.40  2157.50  2169.25
                             2203.46  2247.13  2278.42  2310.57  2318.07
                             4242.48  4297.42  4453.19  4505.84  4514.02
                             4536.60  4563.87  4570.40  4574.27  4582.89
                             4624.49

 Zero-point correction=                           0.219014 (Hartree/Particle)
 Thermal correction to Energy=                    0.233103
 Thermal correction to Enthalpy=                  0.234047
 Thermal correction to Gibbs Free Energy=         0.178145
 Sum of electronic and zero-point Energies=           -783.665446
 Sum of electronic and thermal Energies=              -783.651357
 Sum of electronic and thermal Enthalpies=            -783.650412
 Sum of electronic and thermal Free Energies=         -783.706314

                     E (Thermal)             CV                S
                      KCal/Mol        Cal/Mol-Kelvin    Cal/Mol-Kelvin
 Total                  146.274             56.882            117.656
 Electronic               0.000              0.000              0.000
 Translational            0.889              2.981             42.291
 Rotational               0.889              2.981             32.932
 Vibrational            144.497             50.920             42.432
 Vibration     1          0.596              1.976              4.682
 Vibration     2          0.597              1.972              4.353
 Vibration     3          0.598              1.968              4.128
 Vibration     4          0.613              1.919              2.878
 Vibration     5          0.626              1.879              2.430
 Vibration     6          0.628              1.869              2.349
 Vibration     7          0.634              1.853              2.224
 Vibration     8          0.654              1.791              1.857
 Vibration     9          0.676              1.722              1.574
 Vibration    10          0.683              1.702              1.507
 Vibration    11          0.710              1.622              1.277
 Vibration    12          0.715              1.609              1.244
 Vibration    13          0.751              1.509              1.032
 Vibration    14          0.766              1.471              0.964
 Vibration    15          0.778              1.438              0.910
 Vibration    16          0.805              1.372              0.810
 Vibration    17          0.837              1.293              0.708
 Vibration    18          0.854              1.253              0.661
 Vibration    19          0.858              1.243              0.651
 Vibration    20          0.931              1.087              0.496
 Vibration    21          0.945              1.058              0.472
 Vibration    22          0.976              0.997              0.422

                           ! Non-Optimized Parameters !
 Normal termination of Gaussian 16 at Sat Feb 10 20:36:35 2024.
