 Gaussian 16, Revision A.03,
 Gaussian 16:  ES64L-G16RevA.03 25-Dec-2016

 --------------------------------------
 #P UB3LYP/6-311++G(d,p) nosym opt freq
 --------------------------------------

 -------
 Reduced
 -------
 Symbolic Z-matrix:
 Charge = -2 Multiplicity = 1

 SCF Done:  E(UB3LYP) =  -764.208221568     A.U. after   20 cycles
 Optimization completed.
    -- Stationary point found.
 Normal termination of Gaussian 16 at Wed Dec 27 21:02:29 2023.

 ----------------------------------------------------------------------
 #P Geom=AllCheck Guess=TCheck SCRF=Check GenChk UB3LYP/6-311++G(d,p) F
 req
 ----------------------------------------------------------------------

 Structure from the checkpoint file:  "177-an.chk"
 -------
 Reduced
 -------
 Charge = -2 Multiplicity = 1

                          Input orientation:
 ---------------------------------------------------------------------
 Center     Atomic      Atomic             Coordinates (Angstroms)
 Number     Number       Type             X           Y           Z
 ---------------------------------------------------------------------
      1          8           0        2.552996    2.523507   -0.209748
      2          6           0        2.498315    1.239341    0.016068
      3          6           0        3.646783    0.466333    0.264963
      4          6           0        3.568008   -0.924139    0.508418
      5          6           0        2.357760   -1.586146    0.512463
      6          6           0        1.148808   -0.877038    0.268964
      7          6           0       -0.112359   -1.608761    0.280192
      8          8           0       -0.170381   -2.865632    0.502128
      9          6           0       -1.298407   -0.813998    0.022859
     10          6           0       -2.569173   -1.431412    0.012043
     11          6           0       -3.736159   -0.730413   -0.226894
     12          6           0       -3.665483    0.673178   -0.473496
     13          6           0       -2.450613    1.317014   -0.472808
     14          6           0       -1.225914    0.616888   -0.228516
     15          6           0        0.012061    1.269970   -0.227629
     16          8           0        0.060517    2.627504   -0.468730
     17          6           0        1.201801    0.539974    0.018263
     18          1           0        1.055599    2.832227   -0.409326
     19          1           0        4.605377    0.980853    0.263859
     20          1           0        4.487991   -1.479912    0.696357
     21          1           0        2.281147   -2.651265    0.697585
     22          1           0       -2.583014   -2.500459    0.203724
     23          1           0       -4.698335   -1.238638   -0.227762
     24          1           0       -4.577998    1.236945   -0.663270
     25          1           0       -2.389327    2.384079   -0.659708
 ---------------------------------------------------------------------

 SCF Done:  E(UB3LYP) =  -764.208221568     A.U. after    2 cycles

 Alpha  occ. eigenvalues --  -18.84946 -18.80206 -18.78371  -9.95573  -9.94527
 Alpha  occ. eigenvalues --   -9.94444  -9.93429  -9.92727  -9.92658  -9.92333
 Alpha  occ. eigenvalues --   -9.91261  -9.91226  -9.90582  -9.90390  -9.89837
 Alpha  occ. eigenvalues --   -9.89174  -9.89065  -0.76415  -0.70856  -0.70288
 Alpha  occ. eigenvalues --   -0.60176  -0.57070  -0.52604  -0.50099  -0.47398
 Alpha  occ. eigenvalues --   -0.45664  -0.41082  -0.37608  -0.35985  -0.31977
 Alpha  occ. eigenvalues --   -0.30564  -0.27423  -0.25672  -0.24309  -0.20908
 Alpha  occ. eigenvalues --   -0.20565  -0.19821  -0.18454  -0.17343  -0.15257
 Alpha  occ. eigenvalues --   -0.14825  -0.14100  -0.13172  -0.12499  -0.11632
 Alpha  occ. eigenvalues --   -0.11373  -0.09885  -0.09006  -0.08368  -0.08153
 Alpha  occ. eigenvalues --   -0.06613  -0.04248  -0.01264  -0.00015   0.01864
 Alpha  occ. eigenvalues --    0.02180   0.04465   0.06184   0.12065
 Alpha virt. eigenvalues --    0.15950   0.17484   0.17658   0.19438   0.20066
 Alpha virt. eigenvalues --    0.20725   0.21260   0.22035   0.23203   0.24157
 Alpha virt. eigenvalues --    0.25175   0.26223   0.26816   0.26931   0.27511

  Beta  occ. eigenvalues --  -18.84946 -18.80206 -18.78371  -9.95573  -9.94527
  Beta  occ. eigenvalues --   -9.94444  -9.93429  -9.92727  -9.92658  -9.92333
  Beta  occ. eigenvalues --   -9.91261  -9.91226  -9.90582  -9.90390  -9.89837
  Beta  occ. eigenvalues --   -9.89174  -9.89065  -0.76415  -0.70856  -0.70288
  Beta  occ. eigenvalues --   -0.60176  -0.57070  -0.52604  -0.50099  -0.47398
  Beta  occ. eigenvalues --   -0.45664  -0.41082  -0.37608  -0.35985  -0.31977
  Beta  occ. eigenvalues --   -0.30564  -0.27423  -0.25672  -0.24309  -0.20908
  Beta  occ. eigenvalues --   -0.20565  -0.19821  -0.18454  -0.17343  -0.15257
  Beta  occ. eigenvalues --   -0.14825  -0.14100  -0.13172  -0.12499  -0.11632
  Beta  occ. eigenvalues --   -0.11373  -0.09885  -0.09006  -0.08368  -0.08153
  Beta  occ. eigenvalues --   -0.06613  -0.04248  -0.01264  -0.00015   0.01864
  Beta  occ. eigenvalues --    0.02180   0.04465   0.06184   0.12065
  Beta virt. eigenvalues --    0.15950   0.17484   0.17658   0.19438   0.20066
  Beta virt. eigenvalues --    0.20725   0.21260   0.22035   0.23203   0.24157
  Beta virt. eigenvalues --    0.25175   0.26223   0.26816   0.26931   0.27511

 Mulliken charges and spin densities:
               1          2
     1  O   -0.557604   0.000000
     2  C   -0.654149  -0.000000
     3  C   -0.107530   0.000000
     4  C   -0.257211  -0.000000
     5  C   -0.198348  -0.000000
     6  C    0.610173  -0.000000
     7  C   -0.666545   0.000000
     8  O   -0.490203  -0.000000
     9  C    0.072623  -0.000000
    10  C   -0.045754   0.000000
    11  C   -0.468662   0.000000
    12  C   -0.435183   0.000000
    13  C   -0.149975  -0.000000
    14  C    0.334660   0.000000
    15  C   -0.075576   0.000000
    16  O   -0.484361   0.000000
    17  C    0.539237  -0.000000
    18  H    0.391244  -0.000000
    19  H    0.069501   0.000000
    20  H    0.070664   0.000000
    21  H    0.112603  -0.000000
    22  H    0.128455  -0.000000
    23  H    0.073413  -0.000000
    24  H    0.072766   0.000000
    25  H    0.115763  -0.000000
 Sum of Mulliken charges =  -2.00000  -0.00000

 Dipole moment (field-independent basis, Debye):
    X=             -4.2884    Y=             -0.0242    Z=             -0.4103  Tot=              4.3080
 Quadrupole moment (field-independent basis, Debye-Ang):
   XX=           -163.9864   YY=           -157.8350   ZZ=           -113.3713
   XY=            -12.8053   XZ=             -2.6923   YZ=              7.0828

  Exact polarizability: 380.101   2.573 236.091  24.455 -20.671 126.276
 Approx polarizability: 622.550   2.105 446.101  42.085 -47.892 192.378

                      1                      2                      3
                      A                      A                      A
 Frequencies --     63.8850                90.8238               137.8861
 Red. masses --      6.2606                 7.3225                 4.8089
 Frc consts  --      0.0151                 0.0356                 0.0539
 IR Inten    --      2.1417                 1.8102                 0.4157

                      4                      5                      6
                      A                      A                      A
 Frequencies --    165.0064               207.2910               224.9010
 Red. masses --      7.8600                 4.9090                 5.5703
 Frc consts  --      0.1261                 0.1243                 0.1660
 IR Inten    --      1.1364                 0.0448                 6.9987

                      7                      8                      9
                      A                      A                      A
 Frequencies --    272.7419               326.7204               358.1364
 Red. masses --      5.3338                 7.8670                 7.8428
 Frc consts  --      0.2338                 0.4948                 0.5927
 IR Inten    --      0.0999                11.9486                 1.5064

                     10                     11                     12
                      A                      A                      A
 Frequencies --    375.4537               386.8912               399.7554
 Red. masses --      7.4485                 7.3265                 7.8290
 Frc consts  --      0.6186                 0.6461                 0.7371
 IR Inten    --      0.0729                26.2373                 4.1463

                     13                     14                     15
                      A                      A                      A
 Frequencies --    442.0466               487.9648               490.4562
 Red. masses --      3.2942                11.0620                 4.4519
 Frc consts  --      0.3793                 1.5519                 0.6309
 IR Inten    --      2.0205                 3.5382                 2.1732

                     16                     17                     18
                      A                      A                      A
 Frequencies --    511.8991               567.9744               569.3859
 Red. masses --      8.7017                 8.0012                 3.8157
 Frc consts  --      1.3435                 1.5208                 0.7288
 IR Inten    --      2.6896                 6.9174                21.1823

                     19                     20                     21
                      A                      A                      A
 Frequencies --    600.8355               607.8395               658.9065
 Red. masses --      5.9844                 4.0624                 6.5374
 Frc consts  --      1.2729                 0.8843                 1.6723
 IR Inten    --     18.0911                 9.8651                 5.3066

                     22                     23                     24
                      A                      A                      A
 Frequencies --    682.9498               691.1231               699.0160
 Red. masses --      6.4217                 1.6755                 1.8809
 Frc consts  --      1.7647                 0.4715                 0.5415
 IR Inten    --      2.1059                72.1626                 2.6743

                     25                     26                     27
                      A                      A                      A
 Frequencies --    723.1144               749.2644               781.1080
 Red. masses --      1.8064                 1.9535                 1.8233
 Frc consts  --      0.5565                 0.6461                 0.6554
 IR Inten    --     40.5477                 0.4904                18.2827

                     28                     29                     30
                      A                      A                      A
 Frequencies --    791.6067               798.7316               812.5744
 Red. masses --      6.5781                 2.3496                 5.0133
 Frc consts  --      2.4287                 0.8832                 1.9503
 IR Inten    --      2.7090                 5.2059                 0.1377

                     31                     32                     33
                      A                      A                      A
 Frequencies --    868.0052               899.6366               926.8852
 Red. masses --      7.0856                 1.2203                 6.2532
 Frc consts  --      3.1454                 0.5819                 3.1652
 IR Inten    --     34.5023                 1.6664                10.1661

                     34                     35                     36
                      A                      A                      A
 Frequencies --    929.9781               956.3974               978.0524
 Red. masses --      1.2440                 1.3170                 1.0533
 Frc consts  --      0.6339                 0.7097                 0.5937
 IR Inten    --      3.1329                 2.4432                62.3851

                     37                     38                     39
                      A                      A                      A
 Frequencies --   1008.2871              1028.5850              1057.0892
 Red. masses --      2.4511                 3.7585                 2.0227
 Frc consts  --      1.4682                 2.3429                 1.3317
 IR Inten    --     50.0277               117.8794                68.4668

                     40                     41                     42
                      A                      A                      A
 Frequencies --   1078.5823              1120.1486              1139.7410
 Red. masses --      2.9885                 1.8032                 1.3718
 Frc consts  --      2.0484                 1.3331                 1.0499
 IR Inten    --     85.5294                49.3818                47.7262

                     43                     44                     45
                      A                      A                      A
 Frequencies --   1157.2545              1189.4625              1222.5059
 Red. masses --      1.2509                 1.9649                 3.0486
 Frc consts  --      0.9871                 1.6379                 2.6844
 IR Inten    --      9.7753                13.3747               121.4110

                     46                     47                     48
                      A                      A                      A
 Frequencies --   1250.5325              1293.2980              1326.0203
 Red. masses --      2.3960                 2.9630                 5.2782
 Frc consts  --      2.2076                 2.9199                 5.4681
 IR Inten    --     79.6337               174.4324                 3.9629

                     49                     50                     51
                      A                      A                      A
 Frequencies --   1335.7762              1363.9791              1392.4154
 Red. masses --      4.9429                 4.4926                 3.1041
 Frc consts  --      5.1964                 4.9246                 3.5459
 IR Inten    --     85.0896               192.9441                66.4902

                     52                     53                     54
                      A                      A                      A
 Frequencies --   1414.7579              1447.7864              1454.1705
 Red. masses --      3.0032                 3.5796                 3.1262
 Frc consts  --      3.5416                 4.4207                 3.8949
 IR Inten    --    142.4034                26.8151               660.7692

                     55                     56                     57
                      A                      A                      A
 Frequencies --   1490.8808              1502.2854              1522.7773
 Red. masses --      3.3318                 4.1908                 5.4791
 Frc consts  --      4.3633                 5.5725                 7.4857
 IR Inten    --    329.7980                78.5569               262.0001

                     58                     59                     60
                      A                      A                      A
 Frequencies --   1560.6484              1578.0875              1607.4489
 Red. masses --      4.9953                 5.6148                 5.7607
 Frc consts  --      7.1684                 8.2384                 8.7701
 IR Inten    --     32.7875                12.3032                34.6282

                     61                     62                     63
                      A                      A                      A
 Frequencies --   1652.5502              2771.9304              3071.5289
 Red. masses --      1.7350                 1.0782                 1.0846
 Frc consts  --      2.7916                 4.8811                 6.0287
 IR Inten    --     19.2695               686.6839                93.5095

                     64                     65                     66
                      A                      A                      A
 Frequencies --   3090.5080              3116.1831              3122.1661
 Red. masses --      1.0829                 1.0896                 1.0898
 Frc consts  --      6.0939                 6.2341                 6.2588
 IR Inten    --     45.4967               111.3899               120.6848

                     67                     68                     69
                      A                      A                      A
 Frequencies --   3154.0092              3164.1828              3174.0977
 Red. masses --      1.0908                 1.0911                 1.0902
 Frc consts  --      6.3935                 6.4362                 6.4717
 IR Inten    --     42.3312                44.7824                30.7036

 - Thermochemistry -
 -------------------
 Temperature   298.150 Kelvin.  Pressure   1.00000 Atm.
 Atom     1 has atomic number  8 and mass  15.99491

 Molecular mass:   224.04734 amu.
 Principal axes and moments of inertia in atomic units:
                           1         2         3
     Eigenvalues --  2065.585704389.064066454.64934
           X            0.98943  -0.11042  -0.09398
           Y            0.12574   0.97616   0.17691
           Z            0.07221  -0.18686   0.97973
 This molecule is an asymmetric top.
 Rotational symmetry number  1.
 Warning -- assumption of classical behavior for rotation
           may cause significant error
 Rotational temperatures (Kelvin)      0.04193     0.01973     0.01342
 Rotational constants (GHZ):           0.87372     0.41119     0.27960
 Zero-point vibrational energy     467111.4 (Joules/Mol)
                                  111.64229 (Kcal/Mol)
 Warning -- explicit consideration of  20 degrees of freedom as
           vibrations may cause significant error
 Vibrational temperatures:     91.92   130.68   198.39   237.41   298.25
          (Kelvin)            323.58   392.41   470.08   515.28   540.19
                              556.65   575.16   636.01   702.07   705.66
                              736.51   817.19   819.22   864.47   874.55
                              948.02   982.61   994.37  1005.73  1040.40
                             1078.02  1123.84  1138.95  1149.20  1169.11
                             1248.87  1294.38  1333.58  1338.03  1376.04
                             1407.20  1450.70  1479.90  1520.92  1551.84
                             1611.64  1639.83  1665.03  1711.37  1758.91
                             1799.24  1860.77  1907.85  1921.88  1962.46
                             2003.38  2035.52  2083.04  2092.23  2145.04
                             2161.45  2190.94  2245.42  2270.52  2312.76
                             2377.65  3988.19  4419.25  4446.55  4483.49
                             4492.10  4537.92  4552.55  4566.82

 Zero-point correction=                           0.177913 (Hartree/Particle)
 Thermal correction to Energy=                    0.190064
 Thermal correction to Enthalpy=                  0.191008
 Thermal correction to Gibbs Free Energy=         0.139766
 Sum of electronic and zero-point Energies=           -764.030308
 Sum of electronic and thermal Energies=              -764.018158
 Sum of electronic and thermal Enthalpies=            -764.017214
 Sum of electronic and thermal Free Energies=         -764.068456

                     E (Thermal)             CV                S
                      KCal/Mol        Cal/Mol-Kelvin    Cal/Mol-Kelvin
 Total                  119.267             50.528            107.848
 Electronic               0.000              0.000              0.000
 Translational            0.889              2.981             42.123
 Rotational               0.889              2.981             32.437
 Vibrational            117.489             44.566             33.288
 Vibration     1          0.597              1.972              4.333
 Vibration     2          0.602              1.956              3.642
 Vibration     3          0.614              1.915              2.833
 Vibration     4          0.623              1.885              2.492
 Vibration     5          0.641              1.829              2.067
 Vibration     6          0.650              1.803              1.919
 Vibration     7          0.676              1.724              1.579
 Vibration     8          0.710              1.622              1.276
 Vibration     9          0.733              1.559              1.130
 Vibration    10          0.746              1.522              1.057
 Vibration    11          0.755              1.498              1.012
 Vibration    12          0.766              1.471              0.964
 Vibration    13          0.802              1.378              0.820
 Vibration    14          0.844              1.277              0.689
 Vibration    15          0.846              1.271              0.682
 Vibration    16          0.867              1.224              0.629
 Vibration    17          0.924              1.101              0.508
 Vibration    18          0.925              1.097              0.505
 Vibration    19          0.959              1.030              0.448
 Vibration    20          0.967              1.015              0.436

                           ! Non-Optimized Parameters !
 Normal termination of Gaussian 16 at Wed Dec 27 21:53:01 2023.
