 Q-Chem 5.4, Q-Chem, Inc., Pleasanton, CA (2021)
 Q-Chem 5.4.0 for Intel X86 EM64T Linux

User input:
--------------------------------------------------------------
$molecule
-2 1
O                  2.5529960000      2.5235070000     -0.2097480000
C                  2.4983150000      1.2393410000      0.0160680000
C                  3.6467830000      0.4663330000      0.2649630000
C                  3.5680080000     -0.9241390000      0.5084180000
C                  2.3577600000     -1.5861460000      0.5124630000
C                  1.1488080000     -0.8770380000      0.2689640000
C                 -0.1123590000     -1.6087610000      0.2801920000
O                 -0.1703810000     -2.8656320000      0.5021280000
C                 -1.2984070000     -0.8139980000      0.0228590000
C                 -2.5691730000     -1.4314120000      0.0120430000
C                 -3.7361590000     -0.7304130000     -0.2268940000
C                 -3.6654830000      0.6731780000     -0.4734960000
C                 -2.4506130000      1.3170140000     -0.4728080000
C                 -1.2259140000      0.6168880000     -0.2285160000
C                  0.0120610000      1.2699700000     -0.2276290000
O                  0.0605170000      2.6275040000     -0.4687300000
C                  1.2018010000      0.5399740000      0.0182630000
H                  1.0555990000      2.8322270000     -0.4093260000
H                  4.6053770000      0.9808530000      0.2638590000
H                  4.4879910000     -1.4799120000      0.6963570000
H                  2.2811470000     -2.6512650000      0.6975850000
H                 -2.5830140000     -2.5004590000      0.2037240000
H                 -4.6983350000     -1.2386380000     -0.2277620000
H                 -4.5779980000      1.2369450000     -0.6632700000
H                 -2.3893270000      2.3840790000     -0.6597080000
$end

$rem
BASIS  =  6-311++G(d,p)
GUI  =  2
JOB_TYPE  =  SP
METHOD  =  B3LYP
SCF_CONVERGENCE  = 8
SOLVENT_METHOD = sm12
$end

$smx
solvent dimethylformamide
charges CM5
$end

--------------------------------------------------------------

             Standard Nuclear Orientation (Angstroms)
    I     Atom           X                Y                Z
 ----------------------------------------------------------------
    1      O       2.5529960000     2.5235070000    -0.2097480000
    2      C       2.4983150000     1.2393410000     0.0160680000
    3      C       3.6467830000     0.4663330000     0.2649630000
    4      C       3.5680080000    -0.9241390000     0.5084180000
    5      C       2.3577600000    -1.5861460000     0.5124630000
    6      C       1.1488080000    -0.8770380000     0.2689640000
    7      C      -0.1123590000    -1.6087610000     0.2801920000
    8      O      -0.1703810000    -2.8656320000     0.5021280000
    9      C      -1.2984070000    -0.8139980000     0.0228590000
   10      C      -2.5691730000    -1.4314120000     0.0120430000
   11      C      -3.7361590000    -0.7304130000    -0.2268940000
   12      C      -3.6654830000     0.6731780000    -0.4734960000
   13      C      -2.4506130000     1.3170140000    -0.4728080000
   14      C      -1.2259140000     0.6168880000    -0.2285160000
   15      C       0.0120610000     1.2699700000    -0.2276290000
   16      O       0.0605170000     2.6275040000    -0.4687300000
   17      C       1.2018010000     0.5399740000     0.0182630000
   18      H       1.0555990000     2.8322270000    -0.4093260000
   19      H       4.6053770000     0.9808530000     0.2638590000
   20      H       4.4879910000    -1.4799120000     0.6963570000
   21      H       2.2811470000    -2.6512650000     0.6975850000
   22      H      -2.5830140000    -2.5004590000     0.2037240000
   23      H      -4.6983350000    -1.2386380000    -0.2277620000
   24      H      -4.5779980000     1.2369450000    -0.6632700000
   25      H      -2.3893270000     2.3840790000    -0.6597080000
 ----------------------------------------------------------------

   18    -764.2021914727      3.55e-09  Convergence criterion met
 Total energy in the final basis set =     -764.4826320005

                    Orbital Energies (a.u.)
 --------------------------------------------------------------

 Alpha MOs
 -- Occupied --
-19.1057 -19.0605 -19.0427 -10.2153 -10.2037 -10.2033 -10.1803 -10.1767
-10.1752 -10.1743 -10.1703 -10.1701 -10.1660 -10.1617 -10.1586 -10.1518
-10.1483  -1.0207  -0.9667  -0.9617  -0.8542  -0.8288  -0.7820  -0.7527
 -0.7293  -0.7154  -0.6667  -0.6299  -0.6156  -0.5740  -0.5603  -0.5272
 -0.5128  -0.4966  -0.4647  -0.4578  -0.4532  -0.4368  -0.4236  -0.4120
 -0.4055  -0.3988  -0.3858  -0.3770  -0.3718  -0.3693  -0.3570  -0.3446
 -0.3388  -0.3350  -0.3233  -0.3004  -0.2668  -0.2532  -0.2407  -0.2344
 -0.2127  -0.1971  -0.1372

          Ground-State Mulliken Net Atomic Charges

     Atom                 Charge (a.u.)
  ----------------------------------------
      1 O                    -0.371748
      2 C                    -0.870197
      3 C                     0.668481
      4 C                     0.702636
      5 C                    -0.846986
      6 C                    -1.146180
      7 C                    -1.997931
      8 O                    -0.309321
      9 C                    -1.864409
     10 C                     0.507017
     11 C                     1.711459
     12 C                     1.740290
     13 C                     0.584790
     14 C                    -0.458276
     15 C                    -1.102518
     16 O                    -0.260179
     17 C                    -0.960072
     18 H                     0.413318
     19 H                     0.225912
     20 H                     0.356573
     21 H                     0.094975
     22 H                     0.162079
     23 H                     0.397169
     24 H                     0.427440
     25 H                     0.195677
  ----------------------------------------
  Sum of atomic charges =    -2.000000

                    Cartesian Multipole Moments
 -----------------------------------------------------------------
    Charge (ESU x 10^10)
                -9.6064
    Dipole Moment (Debye)
         X      -6.2885      Y       0.5647      Z      -0.7092
       Tot       6.3535
    Quadrupole Moments (Debye-Ang)
        XX    -153.8198     XY     -12.3751     YY    -157.0718
        XZ      -1.7362     YZ       6.8522     ZZ    -113.9433

 Total job time:  576.39s(wall), 4322.20s(cpu)
        *  Thank you very much for using Q-Chem.  Have a nice day.  *
