 Gaussian 16, Revision A.03,
 Gaussian 16:  ES64L-G16RevA.03 25-Dec-2016

 ----------------------------------------------------------------
 #P UB3LYP/6-311++G(d,p) SCRF=(PCM,Solvent=n,n-DiMethylFormamide)
 ----------------------------------------------------------------

 ------------------
 Quinone PCM in DMF
 ------------------
 Symbolic Z-matrix:
 Charge =  0 Multiplicity = 1

                         Standard orientation:
 ---------------------------------------------------------------------
 Center     Atomic      Atomic             Coordinates (Angstroms)
 Number     Number       Type             X           Y           Z
 ---------------------------------------------------------------------
      1          6           0        0.645463   -0.047987   -0.011588
      2          6           0        0.300495    1.263945   -0.006367
      3          6           0       -1.098171    1.693303    0.006013
      4          8           0       -1.395287    2.880506    0.014907
      5          6           0       -2.166507    0.639931    0.007436
      6          6           0       -3.509875    1.011833    0.017415
      7          6           0       -4.503531    0.035917    0.018101
      8          6           0       -4.161906   -1.318408    0.008713
      9          6           0       -2.824369   -1.698715   -0.001273
     10          6           0       -1.823562   -0.721878   -0.001701
     11          6           0       -0.402804   -1.130305   -0.012884
     12          8           0       -0.050616   -2.302086   -0.023678
     13          1           0        1.051325    2.040222   -0.011391
     14          1           0       -3.753518    2.067104    0.024212
     15          1           0       -5.547129    0.329662    0.025742
     16          1           0       -4.938862   -2.074160    0.009068
     17          1           0       -2.536728   -2.742780   -0.008958
     18          7           0        1.912703   -0.584688   -0.014563
     19          6           0        3.131412    0.103241   -0.029843
     20          7           0        4.219555   -0.730045   -0.016915
     21          6           0        5.567447   -0.186835    0.074828
     22          8           0        3.213366    1.316839   -0.072677
     23          1           0        1.902904   -1.599578   -0.040886
     24          1           0        4.088828   -1.705454    0.200390
     25          1           0        5.634746    0.702454   -0.549937
     26          1           0        6.275083   -0.932462   -0.289418
     27          1           0        5.833280    0.091799    1.099995
 ---------------------------------------------------------------------

 SCF Done:  E(UB3LYP) =  -798.744358257     A.U. after   16 cycles

 The electronic state is 1-A.
 Alpha  occ. eigenvalues --  -19.15017 -19.12712 -19.10999 -14.37469 -14.35118
 Alpha  occ. eigenvalues --  -10.32332 -10.29831 -10.27913 -10.26178 -10.21268
 Alpha  occ. eigenvalues --  -10.21038 -10.20584 -10.20280 -10.20162 -10.19969
 Alpha  occ. eigenvalues --  -10.19907 -10.19399  -1.08756  -1.07765  -1.06024
 Alpha  occ. eigenvalues --   -0.97121  -0.93452  -0.89336  -0.83210  -0.78214
 Alpha  occ. eigenvalues --   -0.77728  -0.73139  -0.69703  -0.65708  -0.65358
 Alpha  occ. eigenvalues --   -0.60933  -0.60142  -0.58730  -0.55831  -0.52818
 Alpha  occ. eigenvalues --   -0.52455  -0.49658  -0.48351  -0.47652  -0.46723
 Alpha  occ. eigenvalues --   -0.46437  -0.45936  -0.45472  -0.44977  -0.44127
 Alpha  occ. eigenvalues --   -0.43108  -0.42562  -0.41985  -0.40292  -0.38717
 Alpha  occ. eigenvalues --   -0.38550  -0.37274  -0.35353  -0.30296  -0.30048
 Alpha  occ. eigenvalues --   -0.29096  -0.28172  -0.28043  -0.27770  -0.25296
 Alpha virt. eigenvalues --   -0.12726  -0.05864  -0.03384  -0.01051  -0.00170
 Alpha virt. eigenvalues --    0.00834   0.01307   0.01687   0.01909   0.03033
 Alpha virt. eigenvalues --    0.03150   0.03200   0.03768   0.04292   0.04584

  Beta  occ. eigenvalues --  -19.15017 -19.12712 -19.10999 -14.37469 -14.35118
  Beta  occ. eigenvalues --  -10.32332 -10.29831 -10.27913 -10.26178 -10.21268
  Beta  occ. eigenvalues --  -10.21038 -10.20584 -10.20280 -10.20162 -10.19969
  Beta  occ. eigenvalues --  -10.19907 -10.19399  -1.08756  -1.07765  -1.06024
  Beta  occ. eigenvalues --   -0.97121  -0.93452  -0.89336  -0.83210  -0.78214
  Beta  occ. eigenvalues --   -0.77728  -0.73139  -0.69703  -0.65708  -0.65358
  Beta  occ. eigenvalues --   -0.60933  -0.60142  -0.58730  -0.55831  -0.52818
  Beta  occ. eigenvalues --   -0.52455  -0.49658  -0.48351  -0.47652  -0.46723
  Beta  occ. eigenvalues --   -0.46437  -0.45936  -0.45472  -0.44977  -0.44127
  Beta  occ. eigenvalues --   -0.43108  -0.42562  -0.41985  -0.40292  -0.38717
  Beta  occ. eigenvalues --   -0.38550  -0.37274  -0.35353  -0.30296  -0.30048
  Beta  occ. eigenvalues --   -0.29096  -0.28172  -0.28043  -0.27770  -0.25296
  Beta virt. eigenvalues --   -0.12726  -0.05864  -0.03384  -0.01051  -0.00170
  Beta virt. eigenvalues --    0.00834   0.01307   0.01687   0.01909   0.03033
  Beta virt. eigenvalues --    0.03150   0.03200   0.03768   0.04292   0.04584

 Mulliken charges and spin densities:
               1          2
     1  C    0.381785  -0.000000
     2  C    0.223666  -0.000000
     3  C   -0.229314   0.000000
     4  O   -0.318638  -0.000000
     5  C    0.704645  -0.000000
     6  C    0.246248   0.000000
     7  C   -0.319643  -0.000000
     8  C   -0.424108  -0.000000
     9  C    0.211142   0.000000
    10  C   -0.340802   0.000000
    11  C   -1.115150  -0.000000
    12  O   -0.259970   0.000000
    13  H    0.266481   0.000000
    14  H    0.178978   0.000000
    15  H    0.211779  -0.000000
    16  H    0.208063   0.000000
    17  H    0.192741   0.000000
    18  N   -0.243275   0.000000
    19  C    0.128825  -0.000000
    20  N   -0.207800  -0.000000
    21  C   -0.255536   0.000000
    22  O   -0.421362   0.000000
    23  H    0.373390  -0.000000
    24  H    0.287097   0.000000
    25  H    0.179353   0.000000
    26  H    0.160480   0.000000
    27  H    0.180924  -0.000000
 Sum of Mulliken charges =  -0.00000   0.00000

 Dipole moment (field-independent basis, Debye):
    X=              0.6050    Y=             -7.1037    Z=              0.5479  Tot=              7.1504
 Quadrupole moment (field-independent basis, Debye-Ang):
   XX=            -60.0596   YY=           -113.6837   ZZ=           -100.1555
   XY=             -7.9555   XZ=              2.1654   YZ=             -0.6020

 Normal termination of Gaussian 16 at Sun Jan 21 08:08:30 2024.
