 Q-Chem 5.4, Q-Chem, Inc., Pleasanton, CA (2021)
 Q-Chem 5.4.0 for Intel X86 EM64T Linux

User input:
--------------------------------------------------------------
$molecule
-1 2
C                  0.6058130000      1.2909440000     -0.8955340000
C                 -0.7365140000      0.8229670000     -0.5801620000
C                 -1.0284990000     -0.4817050000     -0.2406630000
C                  0.0749420000     -1.4392410000     -0.1010240000
C                  1.4513790000     -0.9957280000     -0.3503790000
C                  1.6731610000      0.3231710000     -0.6865150000
O                  0.8278760000      2.4466460000     -1.3137430000
O                 -0.1569850000     -2.6310820000      0.2328590000
S                  3.3423710000      0.9523880000     -1.0311500000
C                  3.4983670000      2.5427040000     -0.1658750000
C                  3.4294090000      3.7292340000     -0.8873510000
C                  3.7856030000      2.5347200000      1.1955820000
C                  3.9941320000      3.7470170000      1.8520630000
C                  3.6579340000      4.9337060000     -0.2272960000
C                  3.9346930000      4.9443170000      1.1404090000
O                  3.5062930000      1.2105780000     -2.4693000000
O                  4.3190890000      0.0713910000     -0.3606940000
H                  3.1888990000      3.6914880000     -1.9408500000
H                  3.8596140000      1.5934410000      1.7257860000
H                  3.6085780000      5.8660210000     -0.7792760000
H                  4.2126810000      3.7533820000      2.9143990000
H                  4.1019200000      5.8864910000      1.6518670000
S                 -2.0381240000      2.0737870000     -0.7877320000
C                 -1.4847410000      3.5569240000      0.1049000000
C                 -0.9653520000      4.6360230000     -0.6016640000
C                 -1.6824750000      3.6159090000      1.4812520000
C                 -1.3389390000      4.7801760000      2.1670440000
C                 -0.6414450000      5.8008220000      0.0893530000
C                 -0.8231280000      5.8725070000      1.4709550000
O                 -2.1849250000      2.4338640000     -2.2053170000
O                 -3.2361540000      1.6262370000     -0.0502500000
H                 -0.8133490000      4.5431330000     -1.6679700000
H                 -2.1137520000      2.7690180000      2.0001980000
H                 -1.4841990000      4.8355890000      3.2404630000
H                 -0.2360930000      6.6496870000     -0.4503750000
H                 -0.5601160000      6.7793800000      2.0054440000
C                 -2.4059980000     -1.0479450000     -0.0080680000
C                  2.5064590000     -2.0649280000     -0.2260410000
H                 -2.8425410000     -0.6577820000      0.9145480000
H                 -2.3204560000     -2.1303630000      0.0681720000
H                 -3.0954060000     -0.7779440000     -0.8082790000
H                  2.0066250000     -3.0271670000     -0.1308990000
H                  3.1335330000     -1.8993180000      0.6534200000
H                  3.1801640000     -2.0712080000     -1.0831890000
$end
$rem
MAX_SCF_CYCLES=200
BASIS  =  6-311++G(d,p)
GUI  =  2
JOB_TYPE  =  SP
METHOD  =  B3LYP
SOLVENT_METHOD = PCM
$end
$pcm
theory = CPCM
$end
$solvent
dielectric 37.219
opticaldielectric 1.43
$end

--------------------------------------------------------------

             Standard Nuclear Orientation (Angstroms)
    I     Atom           X                Y                Z
 ----------------------------------------------------------------
    1      C       0.6058130000     1.2909440000    -0.8955340000
    2      C      -0.7365140000     0.8229670000    -0.5801620000
    3      C      -1.0284990000    -0.4817050000    -0.2406630000
    4      C       0.0749420000    -1.4392410000    -0.1010240000
    5      C       1.4513790000    -0.9957280000    -0.3503790000
    6      C       1.6731610000     0.3231710000    -0.6865150000
    7      O       0.8278760000     2.4466460000    -1.3137430000
    8      O      -0.1569850000    -2.6310820000     0.2328590000
    9      S       3.3423710000     0.9523880000    -1.0311500000
   10      C       3.4983670000     2.5427040000    -0.1658750000
   11      C       3.4294090000     3.7292340000    -0.8873510000
   12      C       3.7856030000     2.5347200000     1.1955820000
   13      C       3.9941320000     3.7470170000     1.8520630000
   14      C       3.6579340000     4.9337060000    -0.2272960000
   15      C       3.9346930000     4.9443170000     1.1404090000
   16      O       3.5062930000     1.2105780000    -2.4693000000
   17      O       4.3190890000     0.0713910000    -0.3606940000
   18      H       3.1888990000     3.6914880000    -1.9408500000
   19      H       3.8596140000     1.5934410000     1.7257860000
   20      H       3.6085780000     5.8660210000    -0.7792760000
   21      H       4.2126810000     3.7533820000     2.9143990000
   22      H       4.1019200000     5.8864910000     1.6518670000
   23      S      -2.0381240000     2.0737870000    -0.7877320000
   24      C      -1.4847410000     3.5569240000     0.1049000000
   25      C      -0.9653520000     4.6360230000    -0.6016640000
   26      C      -1.6824750000     3.6159090000     1.4812520000
   27      C      -1.3389390000     4.7801760000     2.1670440000
   28      C      -0.6414450000     5.8008220000     0.0893530000
   29      C      -0.8231280000     5.8725070000     1.4709550000
   30      O      -2.1849250000     2.4338640000    -2.2053170000
   31      O      -3.2361540000     1.6262370000    -0.0502500000
   32      H      -0.8133490000     4.5431330000    -1.6679700000
   33      H      -2.1137520000     2.7690180000     2.0001980000
   34      H      -1.4841990000     4.8355890000     3.2404630000
   35      H      -0.2360930000     6.6496870000    -0.4503750000
   36      H      -0.5601160000     6.7793800000     2.0054440000
   37      C      -2.4059980000    -1.0479450000    -0.0080680000
   38      C       2.5064590000    -2.0649280000    -0.2260410000
   39      H      -2.8425410000    -0.6577820000     0.9145480000
   40      H      -2.3204560000    -2.1303630000     0.0681720000
   41      H      -3.0954060000    -0.7779440000    -0.8082790000
   42      H       2.0066250000    -3.0271670000    -0.1308990000
   43      H       3.1335330000    -1.8993180000     0.6534200000
   44      H       3.1801640000    -2.0712080000    -1.0831890000
 ----------------------------------------------------------------

    8   -2019.8866161331      7.82e-06  Convergence criterion met
 Total energy in the final basis set =    -2019.8866161331

                    Orbital Energies (a.u.)
 --------------------------------------------------------------

 Alpha MOs
 -- Occupied --
-89.0560 -89.0559 -19.1237 -19.1236 -19.1180 -19.1179 -19.0977 -19.0973
-10.2578 -10.2418 -10.2122 -10.2120 -10.2112 -10.2112 -10.2105 -10.2104
-10.1929 -10.1929 -10.1906 -10.1906 -10.1873 -10.1872 -10.1857 -10.1857
-10.1850 -10.1849 -10.1594 -10.1593  -8.1197  -8.1196  -6.0825  -6.0824
 -6.0814  -6.0814  -6.0806  -6.0806  -1.1147  -1.1143  -1.0328  -1.0241
 -1.0102  -1.0098  -0.8763  -0.8762  -0.8588  -0.8134  -0.7803  -0.7792
 -0.7628  -0.7625  -0.7430  -0.7298  -0.6974  -0.6615  -0.6591  -0.6219
 -0.6218  -0.6140  -0.6102  -0.5742  -0.5739  -0.5416  -0.5406  -0.5225
 -0.5099  -0.4900  -0.4854  -0.4816  -0.4777  -0.4693  -0.4584  -0.4572
 -0.4550  -0.4526  -0.4506  -0.4467  -0.4364  -0.4360  -0.4307  -0.4177
 -0.4139  -0.4117  -0.3992  -0.3877  -0.3868  -0.3819  -0.3789  -0.3780
 -0.3756  -0.3702  -0.3595  -0.3593  -0.3474  -0.3469  -0.3344  -0.3332
 -0.3179  -0.3159  -0.3049  -0.3023  -0.2989  -0.2826  -0.2751  -0.2745
 -0.2703  -0.2660  -0.2630  -0.2490  -0.1838

 Beta MOs
 -- Occupied --
-89.0560 -89.0559 -19.1236 -19.1235 -19.1180 -19.1179 -19.0922 -19.0899
-10.2568 -10.2403 -10.2122 -10.2120 -10.2104 -10.2103 -10.2089 -10.2088
-10.1929 -10.1929 -10.1906 -10.1906 -10.1873 -10.1872 -10.1857 -10.1857
-10.1849 -10.1849 -10.1595 -10.1594  -8.1197  -8.1196  -6.0825  -6.0824
 -6.0814  -6.0814  -6.0806  -6.0806  -1.1145  -1.1141  -1.0242  -1.0107
 -1.0100  -1.0092  -0.8763  -0.8762  -0.8530  -0.8109  -0.7798  -0.7787
 -0.7627  -0.7625  -0.7383  -0.7284  -0.6956  -0.6587  -0.6562  -0.6219
 -0.6218  -0.6126  -0.6087  -0.5726  -0.5719  -0.5411  -0.5390  -0.5208
 -0.5081  -0.4895  -0.4848  -0.4814  -0.4776  -0.4689  -0.4566  -0.4560
 -0.4549  -0.4526  -0.4486  -0.4369  -0.4360  -0.4348  -0.4248  -0.4145
 -0.4117  -0.4008  -0.3982  -0.3875  -0.3839  -0.3788  -0.3779  -0.3743
 -0.3690  -0.3597  -0.3593  -0.3578  -0.3466  -0.3460  -0.3341  -0.3318
 -0.3175  -0.3150  -0.3043  -0.3011  -0.2802  -0.2746  -0.2740  -0.2718
 -0.2670  -0.2627  -0.2578  -0.2448

          Ground-State Mulliken Net Atomic Charges

     Atom                 Charge (a.u.)    Spin (a.u.)
  --------------------------------------------------------
      1 C                    -0.292996       0.037723
      2 C                    -0.188906       0.075785
      3 C                     0.755824       0.131465
      4 C                    -1.603477       0.048569
      5 C                     0.770397       0.130551
      6 C                    -0.193462       0.076429
      7 O                    -0.271447       0.201098
      8 O                    -0.394637       0.295498
      9 S                     0.651878      -0.011409
     10 C                    -0.076782      -0.005082
     11 C                    -0.179210       0.014212
     12 C                     0.177445      -0.003615
     13 C                    -0.519371       0.002096
     14 C                    -0.338877      -0.002144
     15 C                    -0.394104      -0.000263
     16 O                    -0.171423       0.002585
     17 O                    -0.186034      -0.001058
     18 H                     0.260570       0.000367
     19 H                     0.267878       0.000026
     20 H                     0.238441      -0.000060
     21 H                     0.235223       0.000045
     22 H                     0.211385      -0.000031
     23 S                     0.631249      -0.012826
     24 C                    -0.056529      -0.006321
     25 C                    -0.173306       0.015608
     26 C                     0.182264      -0.002856
     27 C                    -0.529472       0.002110
     28 C                    -0.306839      -0.001648
     29 C                    -0.417195      -0.000525
     30 O                    -0.179448       0.002653
     31 O                    -0.183792      -0.001010
     32 H                     0.261450       0.000452
     33 H                     0.268419       0.000136
     34 H                     0.234973       0.000013
     35 H                     0.235953      -0.000074
     36 H                     0.212079      -0.000033
     37 C                    -0.561665      -0.003196
     38 C                    -0.560991      -0.003393
     39 H                     0.208648       0.006760
     40 H                     0.180131      -0.002049
     41 H                     0.201847       0.004357
     42 H                     0.179184      -0.001978
     43 H                     0.209902       0.006772
     44 H                     0.204822       0.004262
  --------------------------------------------------------
  Sum of atomic charges =    -1.000000

                    Cartesian Multipole Moments
 -----------------------------------------------------------------
    Charge (ESU x 10^10)
                -4.8032
    Dipole Moment (Debye)
         X      -0.9471      Y       2.1746      Z      10.0191
       Tot      10.2961
    Quadrupole Moments (Debye-Ang)
        XX    -233.9388     XY      16.3049     YY    -170.3354
        XZ      10.8165     YZ      26.4409     ZZ    -190.1792

 Total job time:  228.03s(wall), 1612.89s(cpu)
        *  Thank you very much for using Q-Chem.  Have a nice day.  *
