 Q-Chem 5.4, Q-Chem, Inc., Pleasanton, CA (2021)
 Q-Chem 5.4.0 for Intel X86 EM64T Linux

User input:
--------------------------------------------------------------
$molecule
-1 2
C                 -1.5179100000      0.3291200000      0.9024090000
C                 -1.9966420000      1.4667350000      0.3019080000
C                 -1.0703610000      2.3865020000     -0.3508830000
O                 -1.4721230000      3.4468800000     -0.9164170000
C                  0.3288690000      2.0213510000     -0.3166990000
C                  0.8076000000      0.8837410000      0.2838120000
C                 -0.1186830000     -0.0360510000      0.9365590000
O                  0.2830700000     -1.0964560000      1.5020510000
H                  0.9955770000      2.7228420000     -0.8094420000
C                  2.2695410000      0.4975960000      0.3223030000
C                  3.2523750000      1.4552170000     -0.3549850000
C                  4.7072370000      0.9794510000     -0.2619240000
C                  5.7102460000      1.9269050000     -0.9319660000
C                  7.1627160000      1.4433880000     -0.8346790000
C                  8.2242660000      2.4069670000     -1.3989620000
C                  9.6388600000      1.9141340000     -1.0610440000
C                  8.0789410000      2.6218600000     -2.9125490000
C                 -3.4585930000      1.8528500000      0.2633470000
C                 -4.4411200000      0.8967590000      0.9432400000
C                 -5.8959250000      1.3727790000      0.8505590000
C                 -6.8986620000      0.4267570000      1.5230250000
C                 -8.3510610000      0.9105770000      1.4261650000
C                 -9.4124540000     -0.0517750000      1.9928330000
C                -10.8271680000      0.4409830000      1.6553140000
C                 -9.2659430000     -0.2643520000      3.5066330000
H                 -2.1846080000     -0.3723470000      1.3951950000
H                  2.3710940000     -0.5038870000     -0.1167930000
H                  2.5587430000      0.3564880000      1.3722670000
H                  3.1713450000      2.4516540000      0.0970440000
H                  2.9822220000      1.5793180000     -1.4110960000
H                  4.7925530000     -0.0166090000     -0.7165220000
H                  4.9803270000      0.8527020000      0.7941630000
H                  5.6300930000      2.9204720000     -0.4706390000
H                  5.4258650000      2.0562620000     -1.9826540000
H                  7.2590150000      0.4735450000     -1.3432630000
H                  7.3955950000      1.2530400000      0.2210430000
H                  8.0828230000      3.3794690000     -0.9067910000
H                  9.7732410000      1.8004340000      0.0190640000
H                 10.4022030000      2.6104540000     -1.4235270000
H                  9.8323350000      0.9394240000     -1.5236250000
H                  8.8477630000      3.3050780000     -3.2879870000
H                  7.1057400000      3.0430890000     -3.1740870000
H                  8.1866900000      1.6723920000     -3.4499670000
H                 -3.7484570000      1.9916560000     -0.7867640000
H                 -3.5597700000      2.8552970000      0.7002700000
H                 -4.1700400000      0.7745430000      1.9993350000
H                 -4.3608200000     -0.1005440000      0.4929990000
H                 -6.1698440000      1.4978080000     -0.2055200000
H                 -5.9805790000      2.3696350000      1.3035290000
H                 -6.6134320000      0.2990540000      2.5736840000
H                 -6.8192190000     -0.5676010000      1.0632820000
H                 -8.5847480000      1.0993330000      0.3703350000
H                 -8.4466370000      1.8812510000      1.9332980000
H                 -9.2717320000     -1.0250920000      1.5020660000
H                -11.5904340000     -0.2545280000      2.0195090000
H                -10.9624020000      0.5530410000      0.5751400000
H                -11.0199520000      1.4164730000      2.1165330000
H                -10.0346790000     -0.9467270000      3.8837770000
H                 -9.3729290000      0.6859890000      4.0426590000
H                 -8.2926640000     -0.6854970000      3.7680180000
$end
$rem
MAX_SCF_CYCLES=200
BASIS  =  6-311++G(d,p)
GUI  =  2
JOB_TYPE  =  SP
METHOD  =  B3LYP
THRESH = 14
SCF_ALGORITHM = DIIS_GDM
SOLVENT_METHOD = PCM
$end
$pcm
theory = CPCM
$end
$solvent
dielectric 37.219
opticaldielectric 1.43
$end

--------------------------------------------------------------

             Standard Nuclear Orientation (Angstroms)
    I     Atom           X                Y                Z
 ----------------------------------------------------------------
    1      C      -1.5179100000     0.3291200000     0.9024090000
    2      C      -1.9966420000     1.4667350000     0.3019080000
    3      C      -1.0703610000     2.3865020000    -0.3508830000
    4      O      -1.4721230000     3.4468800000    -0.9164170000
    5      C       0.3288690000     2.0213510000    -0.3166990000
    6      C       0.8076000000     0.8837410000     0.2838120000
    7      C      -0.1186830000    -0.0360510000     0.9365590000
    8      O       0.2830700000    -1.0964560000     1.5020510000
    9      H       0.9955770000     2.7228420000    -0.8094420000
   10      C       2.2695410000     0.4975960000     0.3223030000
   11      C       3.2523750000     1.4552170000    -0.3549850000
   12      C       4.7072370000     0.9794510000    -0.2619240000
   13      C       5.7102460000     1.9269050000    -0.9319660000
   14      C       7.1627160000     1.4433880000    -0.8346790000
   15      C       8.2242660000     2.4069670000    -1.3989620000
   16      C       9.6388600000     1.9141340000    -1.0610440000
   17      C       8.0789410000     2.6218600000    -2.9125490000
   18      C      -3.4585930000     1.8528500000     0.2633470000
   19      C      -4.4411200000     0.8967590000     0.9432400000
   20      C      -5.8959250000     1.3727790000     0.8505590000
   21      C      -6.8986620000     0.4267570000     1.5230250000
   22      C      -8.3510610000     0.9105770000     1.4261650000
   23      C      -9.4124540000    -0.0517750000     1.9928330000
   24      C     -10.8271680000     0.4409830000     1.6553140000
   25      C      -9.2659430000    -0.2643520000     3.5066330000
   26      H      -2.1846080000    -0.3723470000     1.3951950000
   27      H       2.3710940000    -0.5038870000    -0.1167930000
   28      H       2.5587430000     0.3564880000     1.3722670000
   29      H       3.1713450000     2.4516540000     0.0970440000
   30      H       2.9822220000     1.5793180000    -1.4110960000
   31      H       4.7925530000    -0.0166090000    -0.7165220000
   32      H       4.9803270000     0.8527020000     0.7941630000
   33      H       5.6300930000     2.9204720000    -0.4706390000
   34      H       5.4258650000     2.0562620000    -1.9826540000
   35      H       7.2590150000     0.4735450000    -1.3432630000
   36      H       7.3955950000     1.2530400000     0.2210430000
   37      H       8.0828230000     3.3794690000    -0.9067910000
   38      H       9.7732410000     1.8004340000     0.0190640000
   39      H      10.4022030000     2.6104540000    -1.4235270000
   40      H       9.8323350000     0.9394240000    -1.5236250000
   41      H       8.8477630000     3.3050780000    -3.2879870000
   42      H       7.1057400000     3.0430890000    -3.1740870000
   43      H       8.1866900000     1.6723920000    -3.4499670000
   44      H      -3.7484570000     1.9916560000    -0.7867640000
   45      H      -3.5597700000     2.8552970000     0.7002700000
   46      H      -4.1700400000     0.7745430000     1.9993350000
   47      H      -4.3608200000    -0.1005440000     0.4929990000
   48      H      -6.1698440000     1.4978080000    -0.2055200000
   49      H      -5.9805790000     2.3696350000     1.3035290000
   50      H      -6.6134320000     0.2990540000     2.5736840000
   51      H      -6.8192190000    -0.5676010000     1.0632820000
   52      H      -8.5847480000     1.0993330000     0.3703350000
   53      H      -8.4466370000     1.8812510000     1.9332980000
   54      H      -9.2717320000    -1.0250920000     1.5020660000
   55      H     -11.5904340000    -0.2545280000     2.0195090000
   56      H     -10.9624020000     0.5530410000     0.5751400000
   57      H     -11.0199520000     1.4164730000     2.1165330000
   58      H     -10.0346790000    -0.9467270000     3.8837770000
   59      H      -9.3729290000     0.6859890000     4.0426590000
   60      H      -8.2926640000    -0.6854970000     3.7680180000
 ----------------------------------------------------------------

   14   -1010.9214347459      3.87e-06  Convergence criterion met
 Total energy in the final basis set =    -1010.9214347459

                    Orbital Energies (a.u.)
 --------------------------------------------------------------

 Alpha MOs
 -- Occupied --
-19.0736 -19.0736 -10.2129 -10.2129 -10.1660 -10.1660 -10.1651 -10.1651
-10.1579 -10.1579 -10.1546 -10.1546 -10.1542 -10.1542 -10.1535 -10.1535
-10.1532 -10.1532 -10.1524 -10.1524 -10.1489 -10.1489 -10.1482 -10.1482
 -0.9950  -0.9925  -0.8262  -0.8108  -0.8080  -0.7956  -0.7802  -0.7605
 -0.7340  -0.7117  -0.6841  -0.6764  -0.6763  -0.6759  -0.6445  -0.6202
 -0.5926  -0.5833  -0.5721  -0.5587  -0.5502  -0.5489  -0.5345  -0.4749
 -0.4738  -0.4722  -0.4589  -0.4543  -0.4534  -0.4358  -0.4326  -0.4314
 -0.4282  -0.4282  -0.4142  -0.4120  -0.4089  -0.3979  -0.3948  -0.3911
 -0.3804  -0.3795  -0.3792  -0.3766  -0.3735  -0.3651  -0.3617  -0.3586
 -0.3546  -0.3478  -0.3448  -0.3402  -0.3346  -0.3343  -0.3262  -0.3224
 -0.3174  -0.3173  -0.3126  -0.3126  -0.3104  -0.3103  -0.2991  -0.2990
 -0.2738  -0.2411  -0.2408  -0.2326  -0.1562

 Beta MOs
 -- Occupied --
-19.0670 -19.0670 -10.2112 -10.2112 -10.1651 -10.1651 -10.1646 -10.1646
-10.1580 -10.1580 -10.1546 -10.1546 -10.1542 -10.1542 -10.1535 -10.1535
-10.1532 -10.1532 -10.1517 -10.1517 -10.1489 -10.1489 -10.1482 -10.1482
 -0.9834  -0.9807  -0.8215  -0.8107  -0.8075  -0.7949  -0.7793  -0.7595
 -0.7333  -0.7107  -0.6770  -0.6763  -0.6763  -0.6752  -0.6415  -0.6190
 -0.5911  -0.5820  -0.5719  -0.5572  -0.5501  -0.5483  -0.5306  -0.4743
 -0.4736  -0.4703  -0.4551  -0.4535  -0.4532  -0.4356  -0.4312  -0.4304
 -0.4276  -0.4246  -0.4127  -0.4112  -0.4070  -0.3915  -0.3896  -0.3877
 -0.3791  -0.3790  -0.3772  -0.3741  -0.3713  -0.3598  -0.3570  -0.3542
 -0.3466  -0.3447  -0.3441  -0.3389  -0.3326  -0.3301  -0.3259  -0.3216
 -0.3168  -0.3164  -0.3126  -0.3125  -0.3104  -0.3103  -0.2989  -0.2985
 -0.2433  -0.2350  -0.2333  -0.2269

          Ground-State Mulliken Net Atomic Charges

     Atom                 Charge (a.u.)    Spin (a.u.)
  --------------------------------------------------------
      1 C                    -0.742912       0.035445
      2 C                     0.841556       0.117425
      3 C                    -0.820024       0.113739
      4 O                    -0.507216       0.237125
      5 C                    -0.743614       0.035436
      6 C                     0.842302       0.117407
      7 C                    -0.819363       0.113738
      8 O                    -0.507228       0.237126
      9 H                     0.184391      -0.006428
     10 C                    -0.252351      -0.004128
     11 C                     0.216130      -0.002567
     12 C                    -0.473557      -0.002911
     13 C                     0.194905      -0.000887
     14 C                    -0.732707      -0.000191
     15 C                     0.498427      -0.000049
     16 C                    -0.673190      -0.000001
     17 C                    -0.705130       0.000004
     18 C                    -0.252691      -0.004111
     19 C                     0.217536      -0.002565
     20 C                    -0.473994      -0.002910
     21 C                     0.195090      -0.000886
     22 C                    -0.732399      -0.000192
     23 C                     0.498531      -0.000049
     24 C                    -0.673167      -0.000001
     25 C                    -0.705196       0.000004
     26 H                     0.184435      -0.006429
     27 H                     0.184420       0.007544
     28 H                     0.182608       0.007574
     29 H                     0.129868      -0.000737
     30 H                     0.128133      -0.000793
     31 H                     0.142249      -0.000138
     32 H                     0.131806      -0.000178
     33 H                     0.138883       0.000083
     34 H                     0.112776       0.000089
     35 H                     0.140199      -0.000007
     36 H                     0.136335      -0.000002
     37 H                     0.143271      -0.000000
     38 H                     0.140175      -0.000000
     39 H                     0.163592      -0.000000
     40 H                     0.144950      -0.000000
     41 H                     0.150984      -0.000001
     42 H                     0.151251      -0.000002
     43 H                     0.149233      -0.000001
     44 H                     0.182715       0.007600
     45 H                     0.184361       0.007517
     46 H                     0.128296      -0.000784
     47 H                     0.129639      -0.000744
     48 H                     0.131864      -0.000178
     49 H                     0.142194      -0.000138
     50 H                     0.112754       0.000087
     51 H                     0.138907       0.000085
     52 H                     0.136334      -0.000002
     53 H                     0.140177      -0.000007
     54 H                     0.143266      -0.000000
     55 H                     0.163588      -0.000000
     56 H                     0.140177      -0.000000
     57 H                     0.144948      -0.000000
     58 H                     0.150985      -0.000001
     59 H                     0.149237      -0.000001
     60 H                     0.151260      -0.000002
  --------------------------------------------------------
  Sum of atomic charges =    -1.000000

                    Cartesian Multipole Moments
 -----------------------------------------------------------------
    Charge (ESU x 10^10)
                -4.8032
    Dipole Moment (Debye)
         X       2.8555      Y      -5.6450      Z      -1.4066
       Tot       6.4807
    Quadrupole Moments (Debye-Ang)
        XX    -164.3069     XY      16.4572     YY    -194.3524
        XZ      -3.8599     YZ      15.4252     ZZ    -167.5073

 Total job time:  550.54s(wall), 3832.63s(cpu)
        *  Thank you very much for using Q-Chem.  Have a nice day.  *
