 Q-Chem 5.4, Q-Chem, Inc., Pleasanton, CA (2021)
 Q-Chem 5.4.0 for Intel X86 EM64T Linux

User input:
--------------------------------------------------------------
$molecule
-3 1
C                 -1.7684960000      1.8793410000     -5.1443690000
C                 -1.6646910000      0.5574040000     -5.5366070000
C                 -1.2574840000     -0.4226880000     -4.5941460000
C                 -1.4809610000      2.2992030000     -3.8226050000
C                 -1.1039000000      1.3007520000     -2.8601060000
C                 -0.9859550000     -0.0442470000     -3.2939570000
C                 -1.5930770000      3.7101520000     -3.4797370000
C                 -0.8408510000      1.6421210000     -1.4757020000
C                 -1.2987180000      4.0712120000     -2.0993560000
C                 -0.9532400000      3.0575620000     -1.1350710000
C                 -1.3681850000      5.4560480000     -1.6564510000
C                 -1.1513180000      5.7673930000     -0.2971740000
C                 -0.8283800000      4.7454700000      0.6164500000
C                 -0.7234120000      3.4332280000      0.2112890000
O                 -1.9574780000      4.5573070000     -4.3781690000
O                 -0.5209830000      0.7599910000     -0.6098480000
N                 -1.6286280000      6.4382690000     -2.5753440000
H                 -2.0735410000      2.6487950000     -5.8455170000
H                 -1.8884160000      0.2629640000     -6.5614600000
H                 -1.1669240000     -1.4646200000     -4.9011420000
H                 -0.6775670000     -0.7711860000     -2.5494790000
S                 -1.1672940000      7.4755760000      0.3406780000
H                 -0.6772560000      5.0235090000      1.6535440000
H                 -1.9314800000      6.0724800000     -3.4806870000
H                 -1.9660330000      7.3151210000     -2.1947590000
H                 -0.4726790000      2.6434400000      0.9097160000
O                 -2.2311870000      8.2062770000     -0.4340690000
O                 -1.4946120000      7.3638060000      1.7956190000
O                  0.1897540000      8.0575820000      0.1072130000
$end

$rem
BASIS  =  6-311++G(d,p)
GUI  =  2
JOB_TYPE  =  SP
METHOD  =  B3LYP
SCF_CONVERGENCE  = 8
SOLVENT_METHOD = sm12
$end

$smx
solvent dimethylformamide
charges CM5
$end

--------------------------------------------------------------

             Standard Nuclear Orientation (Angstroms)
    I     Atom           X                Y                Z
 ----------------------------------------------------------------
    1      C      -1.7684960000     1.8793410000    -5.1443690000
    2      C      -1.6646910000     0.5574040000    -5.5366070000
    3      C      -1.2574840000    -0.4226880000    -4.5941460000
    4      C      -1.4809610000     2.2992030000    -3.8226050000
    5      C      -1.1039000000     1.3007520000    -2.8601060000
    6      C      -0.9859550000    -0.0442470000    -3.2939570000
    7      C      -1.5930770000     3.7101520000    -3.4797370000
    8      C      -0.8408510000     1.6421210000    -1.4757020000
    9      C      -1.2987180000     4.0712120000    -2.0993560000
   10      C      -0.9532400000     3.0575620000    -1.1350710000
   11      C      -1.3681850000     5.4560480000    -1.6564510000
   12      C      -1.1513180000     5.7673930000    -0.2971740000
   13      C      -0.8283800000     4.7454700000     0.6164500000
   14      C      -0.7234120000     3.4332280000     0.2112890000
   15      O      -1.9574780000     4.5573070000    -4.3781690000
   16      O      -0.5209830000     0.7599910000    -0.6098480000
   17      N      -1.6286280000     6.4382690000    -2.5753440000
   18      H      -2.0735410000     2.6487950000    -5.8455170000
   19      H      -1.8884160000     0.2629640000    -6.5614600000
   20      H      -1.1669240000    -1.4646200000    -4.9011420000
   21      H      -0.6775670000    -0.7711860000    -2.5494790000
   22      S      -1.1672940000     7.4755760000     0.3406780000
   23      H      -0.6772560000     5.0235090000     1.6535440000
   24      H      -1.9314800000     6.0724800000    -3.4806870000
   25      H      -1.9660330000     7.3151210000    -2.1947590000
   26      H      -0.4726790000     2.6434400000     0.9097160000
   27      O      -2.2311870000     8.2062770000    -0.4340690000
   28      O      -1.4946120000     7.3638060000     1.7956190000
   29      O       0.1897540000     8.0575820000     0.1072130000
 ----------------------------------------------------------------

   19   -1367.5209632037      7.86e-09  Convergence criterion met
 Total energy in the final basis set =    -1368.0520056846

                    Orbital Energies (a.u.)
 --------------------------------------------------------------

 Alpha MOs
 -- Occupied --
-89.0268 -19.0720 -19.0704 -19.0683 -19.0402 -19.0295 -14.2952 -10.2167
-10.1975 -10.1871 -10.1755 -10.1741 -10.1711 -10.1708 -10.1678 -10.1664
-10.1601 -10.1552 -10.1536 -10.1521 -10.1511  -8.0850  -6.0480  -6.0477
 -6.0466  -1.0833  -0.9638  -0.9503  -0.9481  -0.9445  -0.9052  -0.8470
 -0.8251  -0.7713  -0.7440  -0.7316  -0.7175  -0.6530  -0.6348  -0.6159
 -0.5880  -0.5669  -0.5482  -0.5369  -0.5087  -0.4900  -0.4712  -0.4678
 -0.4536  -0.4395  -0.4338  -0.4294  -0.4248  -0.4210  -0.4075  -0.4011
 -0.3917  -0.3783  -0.3711  -0.3689  -0.3530  -0.3412  -0.3409  -0.3283
 -0.3219  -0.3119  -0.3098  -0.2967  -0.2755  -0.2744  -0.2697  -0.2497
 -0.2400  -0.2327  -0.2320  -0.2164  -0.2039  -0.1985  -0.1162

          Ground-State Mulliken Net Atomic Charges

     Atom                 Charge (a.u.)
  ----------------------------------------
      1 C                     0.585816
      2 C                     2.538558
      3 C                     2.411885
      4 C                    -0.373269
      5 C                    -0.668902
      6 C                     0.570798
      7 C                    -1.908810
      8 C                    -2.241886
      9 C                    -1.572813
     10 C                    -1.437822
     11 C                    -0.421626
     12 C                    -1.238987
     13 C                    -0.070098
     14 C                    -1.324733
     15 O                    -0.233964
     16 O                    -0.254899
     17 N                    -0.223287
     18 H                     0.168660
     19 H                     0.458680
     20 H                     0.465782
     21 H                     0.152481
     22 S                     1.425060
     23 H                     0.185918
     24 H                     0.381901
     25 H                     0.242750
     26 H                     0.119473
     27 O                    -0.309998
     28 O                    -0.232446
     29 O                    -0.194223
  ----------------------------------------
  Sum of atomic charges =    -3.000000

                    Cartesian Multipole Moments
 -----------------------------------------------------------------
    Charge (ESU x 10^10)
               -14.4096
    Dipole Moment (Debye)
         X      16.3247      Y     -63.6429      Z      19.4699
       Tot      68.5273
    Quadrupole Moments (Debye-Ang)
        XX    -175.7504     XY      75.9198     YY    -564.7636
        XZ     -30.5136     YZ      39.2663     ZZ    -245.0691

 Total job time:  1000.14s(wall), 7704.37s(cpu)
        *  Thank you very much for using Q-Chem.  Have a nice day.  *
