 Q-Chem 5.4, Q-Chem, Inc., Pleasanton, CA (2021)
 Q-Chem 5.4.0 for Intel X86 EM64T Linux

User input:
--------------------------------------------------------------
$molecule
0 1
C                  6.8985320000     -1.5894660000     -0.2041040000
C                  7.4737940000     -0.6504490000     -1.0573780000
C                  6.6436430000      0.3124630000     -1.6786450000
C                  5.2750690000      0.2936280000     -1.4189950000
C                  4.7024950000     -0.6496030000     -0.5626510000
C                  5.5258500000     -1.6046640000      0.0534770000
C                  4.9669450000     -2.6335040000      0.9757900000
C                  3.4962190000     -2.6045170000      1.2159390000
C                  2.6728350000     -1.6494500000      0.5997720000
C                  3.2317300000     -0.6207670000     -0.3227370000
C                  2.9236750000     -3.5475790000      2.0724280000
C                  1.5551000000     -3.5662440000      2.3322930000
C                  0.7249620000     -2.6033890000      1.7110190000
C                  1.3002170000     -1.6645310000      0.8574950000
O                  5.6838580000     -3.4651930000      1.5121700000
O                  2.5147720000      0.2106880000     -0.8594220000
C                  0.9757560000     -4.6009800000      3.2632320000
C                 -0.7613440000     -2.5862700000      1.9630680000
C                  8.9601610000     -0.6674310000     -1.3092300000
C                  7.2230350000      1.3474280000     -2.6093080000
H                  7.5143240000     -2.3366990000      0.2830080000
H                  4.6193730000      1.0211730000     -1.8832930000
H                  3.5792810000     -4.2751920000      2.5367460000
H                  0.6843450000     -0.9173830000      0.3703530000
H                  1.7543220000     -5.2594460000      3.6503020000
H                  0.2292720000     -5.2215360000      2.7567190000
H                  0.4726200000     -4.1344970000      4.1165400000
H                 -1.2284210000     -3.5308240000      1.6654510000
H                 -1.2438290000     -1.7820240000      1.4063330000
H                 -0.9854360000     -2.4437520000      3.0253100000
H                  9.4425810000     -1.4718000000     -0.7526080000
H                  9.4271340000      0.2770690000     -1.0113280000
H                  9.1844240000     -0.8097600000     -2.3714580000
H                  7.7262540000      0.8812150000     -3.4626960000
H                  7.9694660000      1.9678670000     -2.1025360000
H                  6.4444860000      2.0060050000     -2.9962260000
$end
$rem
MAX_SCF_CYCLES=200
BASIS  =  6-311++G(d,p)
GUI  =  2
JOB_TYPE  =  SP
METHOD  =  B3LYP
SOLVENT_METHOD = PCM
$end
$pcm
theory = CPCM
$end
$solvent
dielectric 37.219
opticaldielectric 1.43
$end

--------------------------------------------------------------

             Standard Nuclear Orientation (Angstroms)
    I     Atom           X                Y                Z
 ----------------------------------------------------------------
    1      C       6.8985320000    -1.5894660000    -0.2041040000
    2      C       7.4737940000    -0.6504490000    -1.0573780000
    3      C       6.6436430000     0.3124630000    -1.6786450000
    4      C       5.2750690000     0.2936280000    -1.4189950000
    5      C       4.7024950000    -0.6496030000    -0.5626510000
    6      C       5.5258500000    -1.6046640000     0.0534770000
    7      C       4.9669450000    -2.6335040000     0.9757900000
    8      C       3.4962190000    -2.6045170000     1.2159390000
    9      C       2.6728350000    -1.6494500000     0.5997720000
   10      C       3.2317300000    -0.6207670000    -0.3227370000
   11      C       2.9236750000    -3.5475790000     2.0724280000
   12      C       1.5551000000    -3.5662440000     2.3322930000
   13      C       0.7249620000    -2.6033890000     1.7110190000
   14      C       1.3002170000    -1.6645310000     0.8574950000
   15      O       5.6838580000    -3.4651930000     1.5121700000
   16      O       2.5147720000     0.2106880000    -0.8594220000
   17      C       0.9757560000    -4.6009800000     3.2632320000
   18      C      -0.7613440000    -2.5862700000     1.9630680000
   19      C       8.9601610000    -0.6674310000    -1.3092300000
   20      C       7.2230350000     1.3474280000    -2.6093080000
   21      H       7.5143240000    -2.3366990000     0.2830080000
   22      H       4.6193730000     1.0211730000    -1.8832930000
   23      H       3.5792810000    -4.2751920000     2.5367460000
   24      H       0.6843450000    -0.9173830000     0.3703530000
   25      H       1.7543220000    -5.2594460000     3.6503020000
   26      H       0.2292720000    -5.2215360000     2.7567190000
   27      H       0.4726200000    -4.1344970000     4.1165400000
   28      H      -1.2284210000    -3.5308240000     1.6654510000
   29      H      -1.2438290000    -1.7820240000     1.4063330000
   30      H      -0.9854360000    -2.4437520000     3.0253100000
   31      H       9.4425810000    -1.4718000000    -0.7526080000
   32      H       9.4271340000     0.2770690000    -1.0113280000
   33      H       9.1844240000    -0.8097600000    -2.3714580000
   34      H       7.7262540000     0.8812150000    -3.4626960000
   35      H       7.9694660000     1.9678670000    -2.1025360000
   36      H       6.4444860000     2.0060050000    -2.9962260000
 ----------------------------------------------------------------

    8    -846.2822001419      6.22e-06  Convergence criterion met
 Total energy in the final basis set =     -846.2822001419

                    Orbital Energies (a.u.)
 --------------------------------------------------------------

 Alpha MOs
 -- Occupied --
-19.1264 -19.1263 -10.2782 -10.2782 -10.2012 -10.2012 -10.2007 -10.2007
-10.2001 -10.2001 -10.1995 -10.1995 -10.1881 -10.1881 -10.1881 -10.1881
-10.1685 -10.1685 -10.1685 -10.1685  -1.0618  -1.0600  -0.8913  -0.8816
 -0.8253  -0.7941  -0.7837  -0.7828  -0.7264  -0.7191  -0.7156  -0.6822
 -0.6576  -0.6289  -0.6098  -0.6057  -0.5806  -0.5375  -0.5275  -0.5077
 -0.4796  -0.4746  -0.4626  -0.4550  -0.4545  -0.4446  -0.4427  -0.4416
 -0.4341  -0.4333  -0.4254  -0.4161  -0.4035  -0.4029  -0.3929  -0.3915
 -0.3907  -0.3907  -0.3693  -0.3686  -0.3586  -0.3572  -0.3519  -0.3495
 -0.2846  -0.2716  -0.2708  -0.2696  -0.2675  -0.2545

          Ground-State Mulliken Net Atomic Charges

     Atom                 Charge (a.u.)
  ----------------------------------------
      1 C                    -0.136974
      2 C                     0.370458
      3 C                     0.349964
      4 C                    -0.127087
      5 C                     0.123552
      6 C                     0.129456
      7 C                    -0.775019
      8 C                     0.122368
      9 C                     0.131219
     10 C                    -0.777836
     11 C                    -0.128413
     12 C                     0.351588
     13 C                     0.370487
     14 C                    -0.136660
     15 O                    -0.289535
     16 O                    -0.289461
     17 C                    -0.521974
     18 C                    -0.522320
     19 C                    -0.520783
     20 C                    -0.521895
     21 H                     0.159723
     22 H                     0.159923
     23 H                     0.159835
     24 H                     0.159671
     25 H                     0.184906
     26 H                     0.177392
     27 H                     0.177537
     28 H                     0.177672
     29 H                     0.184961
     30 H                     0.177374
     31 H                     0.184941
     32 H                     0.177674
     33 H                     0.177422
     34 H                     0.177541
     35 H                     0.177421
     36 H                     0.184863
  ----------------------------------------
  Sum of atomic charges =    -0.000009

                    Cartesian Multipole Moments
 -----------------------------------------------------------------
    Charge (ESU x 10^10)
                -0.0000
    Dipole Moment (Debye)
         X      -0.0001      Y       0.0011      Z       0.0015
       Tot       0.0019
    Quadrupole Moments (Debye-Ang)
        XX     -90.1670     XY      21.8221     YY    -117.2753
        XZ     -22.6683     YZ      -5.6524     ZZ    -110.8946

 Total job time:  71.86s(wall), 514.34s(cpu)
        *  Thank you very much for using Q-Chem.  Have a nice day.  *
