 Gaussian 16, Revision A.03,
 Gaussian 16:  ES64L-G16RevA.03 25-Dec-2016

 ----------------------------------------------------------------
 #P UB3LYP/6-311++G(d,p) SCRF=(PCM,Solvent=n,n-DiMethylFormamide)
 ----------------------------------------------------------------

 -------
 Reduced
 -------
 Symbolic Z-matrix:
 Charge = -2 Multiplicity = 1

                         Standard orientation:
 ---------------------------------------------------------------------
 Center     Atomic      Atomic             Coordinates (Angstroms)
 Number     Number       Type             X           Y           Z
 ---------------------------------------------------------------------
      1          6           0        0.144246    1.299225    0.031880
      2          6           0       -1.209343    1.703120   -0.084143
      3          6           0       -2.281540    0.806984   -0.098132
      4          6           0       -2.111181   -0.612720   -0.001450
      5          6           0       -0.736815   -1.004657    0.108058
      6          6           0        0.352800   -0.115912    0.118794
      7          8           0        1.148545    2.173537    0.064829
      8          8           0       -3.101278   -1.455963   -0.012879
      9          6           0        1.783684   -0.610222    0.340519
     10          6           0        2.080155   -2.011713   -0.207272
     11          8           0        2.751898    0.273991   -0.219576
     12          1           0       -1.393957    2.776205   -0.157120
     13          1           0       -3.303163    1.180732   -0.185269
     14          1           0       -0.562729   -2.076630    0.181102
     15          1           0        1.955652   -0.661939    1.441301
     16          1           0        1.476917   -2.780440    0.284424
     17          1           0        3.140605   -2.239164   -0.041700
     18          1           0        1.879017   -2.043317   -1.283322
     19          1           0        2.282290    1.187393   -0.147931
 ---------------------------------------------------------------------

 SCF Done:  E(UB3LYP) =  -535.734705090     A.U. after   18 cycles

 The electronic state is 1-A.
 Alpha  occ. eigenvalues --  -19.06945 -19.02616 -19.01318 -10.19763 -10.16857
 Alpha  occ. eigenvalues --  -10.16843 -10.14279 -10.13286 -10.12504 -10.12141
 Alpha  occ. eigenvalues --  -10.12019  -0.97957  -0.92441  -0.92157  -0.78321
 Alpha  occ. eigenvalues --   -0.73314  -0.68793  -0.65005  -0.59216  -0.54814
 Alpha  occ. eigenvalues --   -0.52523  -0.46079  -0.44136  -0.42997  -0.42586
 Alpha  occ. eigenvalues --   -0.39425  -0.36928  -0.36143  -0.35829  -0.35440
 Alpha  occ. eigenvalues --   -0.34601  -0.33545  -0.31333  -0.31246  -0.30410
 Alpha  occ. eigenvalues --   -0.24507  -0.22367  -0.21034  -0.20233  -0.19174
 Alpha  occ. eigenvalues --   -0.12320
 Alpha virt. eigenvalues --    0.00160   0.01252   0.01763   0.02149   0.03097
 Alpha virt. eigenvalues --    0.03510   0.03925   0.04931   0.05967   0.06273
 Alpha virt. eigenvalues --    0.07498   0.07812   0.08379   0.08797   0.10105

  Beta  occ. eigenvalues --  -19.06945 -19.02616 -19.01318 -10.19763 -10.16857
  Beta  occ. eigenvalues --  -10.16843 -10.14279 -10.13286 -10.12504 -10.12141
  Beta  occ. eigenvalues --  -10.12019  -0.97957  -0.92441  -0.92157  -0.78321
  Beta  occ. eigenvalues --   -0.73314  -0.68793  -0.65005  -0.59216  -0.54814
  Beta  occ. eigenvalues --   -0.52523  -0.46079  -0.44136  -0.42997  -0.42586
  Beta  occ. eigenvalues --   -0.39425  -0.36928  -0.36143  -0.35829  -0.35440
  Beta  occ. eigenvalues --   -0.34601  -0.33545  -0.31333  -0.31246  -0.30410
  Beta  occ. eigenvalues --   -0.24507  -0.22367  -0.21034  -0.20233  -0.19174
  Beta  occ. eigenvalues --   -0.12320
  Beta virt. eigenvalues --    0.00160   0.01252   0.01763   0.02149   0.03097
  Beta virt. eigenvalues --    0.03510   0.03925   0.04931   0.05967   0.06273
  Beta virt. eigenvalues --    0.07498   0.07812   0.08379   0.08797   0.10105

 Mulliken charges and spin densities:
               1          2
     1  C   -0.707237  -0.000000
     2  C    0.081812  -0.000000
     3  C   -0.048145   0.000000
     4  C   -0.353893  -0.000000
     5  C   -1.164012   0.000000
     6  C    1.394234   0.000000
     7  O   -0.700776   0.000000
     8  O   -0.737612  -0.000000
     9  C   -0.111434   0.000000
    10  C   -0.478521  -0.000000
    11  O   -0.422630  -0.000000
    12  H    0.137186  -0.000000
    13  H    0.131692  -0.000000
    14  H    0.093444   0.000000
    15  H    0.129948   0.000000
    16  H    0.138928  -0.000000
    17  H    0.140778  -0.000000
    18  H    0.140291   0.000000
    19  H    0.335948   0.000000
 Sum of Mulliken charges =  -2.00000  -0.00000

 Dipole moment (field-independent basis, Debye):
    X=              5.5852    Y=             -2.0893    Z=              0.7349  Tot=              6.0083
 Quadrupole moment (field-independent basis, Debye-Ang):
   XX=           -133.8363   YY=            -98.5212   ZZ=            -75.4338
   XY=            -26.0618   XZ=              2.0277   YZ=             -1.1256

 Normal termination of Gaussian 16 at Wed Jan 24 22:49:39 2024.
