 Q-Chem 5.4, Q-Chem, Inc., Pleasanton, CA (2021)
 Q-Chem 5.4.0 for Intel X86 EM64T Linux

User input:
--------------------------------------------------------------
$molecule
-1 2
C                  0.7272750000      1.1554440000     -1.5000130000
C                 -0.6748540000      0.9011160000     -1.7756280000
C                 -1.4724310000      0.1767610000     -0.9330790000
C                 -0.9997780000     -0.3938880000      0.3222070000
C                  0.4060460000     -0.1524890000      0.5903700000
C                  1.2070120000      0.5601150000     -0.2589520000
O                  1.4355300000      1.8481060000     -2.2657370000
O                 -1.7270150000     -1.0206110000      1.1260020000
S                  2.9488190000      0.7257370000      0.1910910000
C                  3.2368070000      2.5058600000      0.3860650000
C                  3.5720730000      3.2785850000     -0.7232170000
C                  3.1507930000      3.0583940000      1.6620700000
C                  3.3998930000      4.4193980000      1.8290030000
C                  3.8222420000      4.6375400000     -0.5424160000
C                  3.7357970000      5.2073050000      0.7280330000
O                  3.8050980000      0.2486640000     -0.9014650000
O                  3.1076650000      0.1391480000      1.5357660000
H                  3.6083430000      2.8175030000     -1.7002450000
H                  2.9057020000      2.4216430000      2.5028830000
H                  4.0802790000      5.2521150000     -1.3978340000
H                  3.3370410000      4.8609150000      2.8176480000
H                  3.9286590000      6.2668590000      0.8601650000
S                 -3.1828620000     -0.0978800000     -1.4458820000
C                 -4.2082470000      0.6782360000     -0.1667660000
C                 -4.6584090000      1.9803870000     -0.3734080000
C                 -4.5573670000     -0.0428190000      0.9726470000
C                 -5.3741450000      0.5633450000      1.9252580000
C                 -5.4718150000      2.5765290000      0.5884920000
C                 -5.8294110000      1.8683240000      1.7358020000
H                 -1.0768190000      1.3170370000     -2.6915980000
H                  0.8066530000     -0.5636650000      1.5090700000
H                 -4.3813600000      2.5022410000     -1.2808300000
H                 -4.1712750000     -1.0435140000      1.1068820000
H                 -5.6504220000      0.0151960000      2.8192550000
H                 -5.8293100000      3.5894360000      0.4384070000
H                 -6.4621620000      2.3346600000      2.4837770000
O                 -3.4873530000     -1.5337340000     -1.4563590000
O                 -3.3998820000      0.6905740000     -2.6741540000
$end
$rem
MAX_SCF_CYCLES=200
BASIS  =  6-311++G(d,p)
GUI  =  2
JOB_TYPE  =  SP
METHOD  =  B3LYP
SOLVENT_METHOD = PCM
$end
$pcm
theory = CPCM
$end
$solvent
dielectric 37.219
opticaldielectric 1.43
$end

--------------------------------------------------------------

             Standard Nuclear Orientation (Angstroms)
    I     Atom           X                Y                Z
 ----------------------------------------------------------------
    1      C       0.7272750000     1.1554440000    -1.5000130000
    2      C      -0.6748540000     0.9011160000    -1.7756280000
    3      C      -1.4724310000     0.1767610000    -0.9330790000
    4      C      -0.9997780000    -0.3938880000     0.3222070000
    5      C       0.4060460000    -0.1524890000     0.5903700000
    6      C       1.2070120000     0.5601150000    -0.2589520000
    7      O       1.4355300000     1.8481060000    -2.2657370000
    8      O      -1.7270150000    -1.0206110000     1.1260020000
    9      S       2.9488190000     0.7257370000     0.1910910000
   10      C       3.2368070000     2.5058600000     0.3860650000
   11      C       3.5720730000     3.2785850000    -0.7232170000
   12      C       3.1507930000     3.0583940000     1.6620700000
   13      C       3.3998930000     4.4193980000     1.8290030000
   14      C       3.8222420000     4.6375400000    -0.5424160000
   15      C       3.7357970000     5.2073050000     0.7280330000
   16      O       3.8050980000     0.2486640000    -0.9014650000
   17      O       3.1076650000     0.1391480000     1.5357660000
   18      H       3.6083430000     2.8175030000    -1.7002450000
   19      H       2.9057020000     2.4216430000     2.5028830000
   20      H       4.0802790000     5.2521150000    -1.3978340000
   21      H       3.3370410000     4.8609150000     2.8176480000
   22      H       3.9286590000     6.2668590000     0.8601650000
   23      S      -3.1828620000    -0.0978800000    -1.4458820000
   24      C      -4.2082470000     0.6782360000    -0.1667660000
   25      C      -4.6584090000     1.9803870000    -0.3734080000
   26      C      -4.5573670000    -0.0428190000     0.9726470000
   27      C      -5.3741450000     0.5633450000     1.9252580000
   28      C      -5.4718150000     2.5765290000     0.5884920000
   29      C      -5.8294110000     1.8683240000     1.7358020000
   30      H      -1.0768190000     1.3170370000    -2.6915980000
   31      H       0.8066530000    -0.5636650000     1.5090700000
   32      H      -4.3813600000     2.5022410000    -1.2808300000
   33      H      -4.1712750000    -1.0435140000     1.1068820000
   34      H      -5.6504220000     0.0151960000     2.8192550000
   35      H      -5.8293100000     3.5894360000     0.4384070000
   36      H      -6.4621620000     2.3346600000     2.4837770000
   37      O      -3.4873530000    -1.5337340000    -1.4563590000
   38      O      -3.3998820000     0.6905740000    -2.6741540000
 ----------------------------------------------------------------

    8   -1941.2473860595      6.65e-06  Convergence criterion met
 Total energy in the final basis set =    -1941.2473860595

                    Orbital Energies (a.u.)
 --------------------------------------------------------------

 Alpha MOs
 -- Occupied --
-89.0604 -89.0603 -19.1280 -19.1279 -19.1256 -19.1256 -19.1047 -19.1046
-10.2574 -10.2574 -10.2197 -10.2197 -10.2152 -10.2151 -10.2012 -10.2011
-10.1950 -10.1950 -10.1927 -10.1926 -10.1897 -10.1897 -10.1878 -10.1878
-10.1871 -10.1871  -8.1242  -8.1242  -6.0871  -6.0871  -6.0859  -6.0859
 -6.0852  -6.0851  -1.1202  -1.1201  -1.0338  -1.0316  -1.0163  -1.0161
 -0.8787  -0.8786  -0.8644  -0.8081  -0.7831  -0.7757  -0.7646  -0.7646
 -0.7259  -0.7116  -0.6695  -0.6328  -0.6239  -0.6236  -0.6215  -0.6005
 -0.5758  -0.5492  -0.5408  -0.5168  -0.5132  -0.5117  -0.4891  -0.4868
 -0.4808  -0.4775  -0.4633  -0.4591  -0.4569  -0.4566  -0.4545  -0.4409
 -0.4408  -0.4391  -0.4345  -0.4311  -0.4074  -0.4014  -0.3882  -0.3878
 -0.3822  -0.3815  -0.3610  -0.3609  -0.3532  -0.3519  -0.3388  -0.3382
 -0.3251  -0.3234  -0.3141  -0.3133  -0.3095  -0.3001  -0.2798  -0.2763
 -0.2733  -0.2723  -0.2663  -0.2592  -0.1931

 Beta MOs
 -- Occupied --
-89.0604 -89.0604 -19.1279 -19.1279 -19.1256 -19.1256 -19.0979 -19.0978
-10.2564 -10.2564 -10.2190 -10.2190 -10.2152 -10.2151 -10.1992 -10.1992
-10.1950 -10.1950 -10.1927 -10.1926 -10.1897 -10.1897 -10.1878 -10.1878
-10.1871 -10.1871  -8.1242  -8.1242  -6.0871  -6.0871  -6.0860  -6.0859
 -6.0852  -6.0851  -1.1201  -1.1200  -1.0223  -1.0203  -1.0160  -1.0153
 -0.8786  -0.8786  -0.8584  -0.8060  -0.7829  -0.7749  -0.7646  -0.7645
 -0.7169  -0.7100  -0.6674  -0.6314  -0.6239  -0.6235  -0.6174  -0.5999
 -0.5746  -0.5487  -0.5396  -0.5152  -0.5109  -0.5104  -0.4887  -0.4866
 -0.4807  -0.4773  -0.4607  -0.4587  -0.4567  -0.4562  -0.4540  -0.4395
 -0.4394  -0.4330  -0.4259  -0.4212  -0.3983  -0.3928  -0.3874  -0.3823
 -0.3809  -0.3749  -0.3609  -0.3607  -0.3527  -0.3509  -0.3382  -0.3375
 -0.3237  -0.3218  -0.3127  -0.3091  -0.2946  -0.2852  -0.2777  -0.2739
 -0.2712  -0.2704  -0.2620  -0.2543

          Ground-State Mulliken Net Atomic Charges

     Atom                 Charge (a.u.)    Spin (a.u.)
  --------------------------------------------------------
      1 C                    -0.478152       0.056328
      2 C                    -0.410249       0.116304
      3 C                     0.367788       0.090176
      4 C                    -0.473481       0.056363
      5 C                    -0.407535       0.116436
      6 C                     0.374648       0.089920
      7 O                    -0.369373       0.258148
      8 O                    -0.370137       0.258253
      9 S                     0.391960      -0.030334
     10 C                     0.329136       0.002876
     11 C                    -0.249489       0.019320
     12 C                     0.114510      -0.000557
     13 C                    -0.519331      -0.000722
     14 C                    -0.425619      -0.003697
     15 C                    -0.328443       0.001119
     16 O                    -0.185154       0.005196
     17 O                    -0.245189      -0.002567
     18 H                     0.284169      -0.001084
     19 H                     0.262364       0.000650
     20 H                     0.231390       0.000009
     21 H                     0.227398       0.000017
     22 H                     0.208941      -0.000094
     23 S                     0.402412      -0.030290
     24 C                     0.331370       0.002888
     25 C                     0.110045      -0.000568
     26 C                    -0.247617       0.019371
     27 C                    -0.428968      -0.003757
     28 C                    -0.517013      -0.000730
     29 C                    -0.329833       0.001129
     30 H                     0.284301      -0.011107
     31 H                     0.284176      -0.011111
     32 H                     0.262420       0.000664
     33 H                     0.284491      -0.001091
     34 H                     0.231361       0.000010
     35 H                     0.227377       0.000017
     36 H                     0.209096      -0.000094
     37 O                    -0.187240       0.005177
     38 O                    -0.246541      -0.002569
  --------------------------------------------------------
  Sum of atomic charges =    -1.000010

                    Cartesian Multipole Moments
 -----------------------------------------------------------------
    Charge (ESU x 10^10)
                -4.8033
    Dipole Moment (Debye)
         X      -1.7899      Y       6.6417      Z       7.7143
       Tot      10.3357
    Quadrupole Moments (Debye-Ang)
        XX    -204.4694     XY      -8.5601     YY    -151.7152
        XZ     -16.5214     YZ      11.1678     ZZ    -186.6861

 Total job time:  128.85s(wall), 927.14s(cpu)
        *  Thank you very much for using Q-Chem.  Have a nice day.  *
