 Gaussian 16, Revision A.03,
 Gaussian 16:  ES64L-G16RevA.03 25-Dec-2016

 --------------------------------------
 #P UB3LYP/6-311++G(d,p) nosym opt freq
 --------------------------------------

 -------
 Radical
 -------
 Symbolic Z-matrix:
 Charge = -1 Multiplicity = 2

 SCF Done:  E(UB3LYP) =  -1941.16104475     A.U. after   23 cycles
 SCF Done:  E(UB3LYP) =  -1941.16104474     A.U. after   12 cycles
 Optimization completed.
    -- Stationary point found.
 Normal termination of Gaussian 16 at Wed Jan 10 05:29:19 2024.

 ----------------------------------------------------------------------
 #P Geom=AllCheck Guess=TCheck SCRF=Check GenChk UB3LYP/6-311++G(d,p) F
 req
 ----------------------------------------------------------------------

 Structure from the checkpoint file:  "072-rad.chk"
 -------
 Radical
 -------
 Charge = -1 Multiplicity = 2

                          Input orientation:
 ---------------------------------------------------------------------
 Center     Atomic      Atomic             Coordinates (Angstroms)
 Number     Number       Type             X           Y           Z
 ---------------------------------------------------------------------
      1          6           0        0.727275    1.155444   -1.500013
      2          6           0       -0.674854    0.901116   -1.775628
      3          6           0       -1.472431    0.176761   -0.933079
      4          6           0       -0.999778   -0.393888    0.322207
      5          6           0        0.406046   -0.152489    0.590370
      6          6           0        1.207012    0.560115   -0.258952
      7          8           0        1.435530    1.848106   -2.265737
      8          8           0       -1.727015   -1.020611    1.126002
      9         16           0        2.948819    0.725737    0.191091
     10          6           0        3.236807    2.505860    0.386065
     11          6           0        3.572073    3.278585   -0.723217
     12          6           0        3.150793    3.058394    1.662070
     13          6           0        3.399893    4.419398    1.829003
     14          6           0        3.822242    4.637540   -0.542416
     15          6           0        3.735797    5.207305    0.728033
     16          8           0        3.805098    0.248664   -0.901465
     17          8           0        3.107665    0.139148    1.535766
     18          1           0        3.608343    2.817503   -1.700245
     19          1           0        2.905702    2.421643    2.502883
     20          1           0        4.080279    5.252115   -1.397834
     21          1           0        3.337041    4.860915    2.817648
     22          1           0        3.928659    6.266859    0.860165
     23         16           0       -3.182862   -0.097880   -1.445882
     24          6           0       -4.208247    0.678236   -0.166766
     25          6           0       -4.658409    1.980387   -0.373408
     26          6           0       -4.557367   -0.042819    0.972647
     27          6           0       -5.374145    0.563345    1.925258
     28          6           0       -5.471815    2.576529    0.588492
     29          6           0       -5.829411    1.868324    1.735802
     30          1           0       -1.076819    1.317037   -2.691598
     31          1           0        0.806653   -0.563665    1.509070
     32          1           0       -4.381360    2.502241   -1.280830
     33          1           0       -4.171275   -1.043514    1.106882
     34          1           0       -5.650422    0.015196    2.819255
     35          1           0       -5.829310    3.589436    0.438407
     36          1           0       -6.462162    2.334660    2.483777
     37          8           0       -3.487353   -1.533734   -1.456359
     38          8           0       -3.399882    0.690574   -2.674154
 ---------------------------------------------------------------------

 SCF Done:  E(UB3LYP) =  -1941.16104474     A.U. after    3 cycles

 Alpha  occ. eigenvalues --  -88.94820 -88.94820 -19.01172 -19.01172 -19.01081
 Alpha  occ. eigenvalues --  -19.01079 -18.98732 -18.98732 -10.14052 -10.14051
 Alpha  occ. eigenvalues --  -10.12278 -10.12276 -10.11221 -10.11220 -10.11031
 Alpha  occ. eigenvalues --  -10.11030 -10.10938 -10.10937 -10.10701 -10.10701
 Alpha  occ. eigenvalues --  -10.10598 -10.10596 -10.10475 -10.10475 -10.08803
 Alpha  occ. eigenvalues --  -10.08801  -8.01187  -8.01186  -5.97450  -5.97450
 Alpha  occ. eigenvalues --   -5.97366  -5.97366  -5.97302  -5.97302  -1.00488
 Alpha  occ. eigenvalues --   -1.00478  -0.91575  -0.91344  -0.89988  -0.89968
 Alpha  occ. eigenvalues --   -0.79301  -0.79300  -0.75060  -0.70212  -0.69411
 Alpha  occ. eigenvalues --   -0.68197  -0.68148  -0.68071  -0.61344  -0.60679
 Alpha  occ. eigenvalues --   -0.56947  -0.54122  -0.54072  -0.53751  -0.50812
 Alpha  occ. eigenvalues --   -0.50778  -0.48034  -0.45661  -0.44412  -0.41193
 Alpha  occ. eigenvalues --   -0.40380  -0.40263  -0.39081  -0.38915  -0.38875
 Alpha  occ. eigenvalues --   -0.38098  -0.37427  -0.37280  -0.35719  -0.35681
 Alpha  occ. eigenvalues --   -0.34779  -0.34737  -0.34358  -0.32390  -0.32270
 Alpha  occ. eigenvalues --   -0.31646  -0.30494  -0.30117  -0.29944  -0.29706
 Alpha  occ. eigenvalues --   -0.28807  -0.28519  -0.27902  -0.27705  -0.23658
 Alpha  occ. eigenvalues --   -0.23526  -0.22224  -0.22174  -0.21105  -0.20698
 Alpha  occ. eigenvalues --   -0.20529  -0.20180  -0.19831  -0.19277  -0.18781
 Alpha  occ. eigenvalues --   -0.18779  -0.18651  -0.17561  -0.15187  -0.14377
 Alpha  occ. eigenvalues --   -0.07712
 Alpha virt. eigenvalues --    0.03035   0.04364   0.05585   0.05693   0.05695
 Alpha virt. eigenvalues --    0.05732   0.06681   0.07660   0.07711   0.08893
 Alpha virt. eigenvalues --    0.09144   0.10613   0.10814   0.10963   0.11867

  Beta  occ. eigenvalues --  -88.94822 -88.94821 -19.01176 -19.01176 -19.01077
  Beta  occ. eigenvalues --  -19.01075 -18.97985 -18.97984 -10.13996 -10.13994
  Beta  occ. eigenvalues --  -10.12278 -10.12276 -10.11218 -10.11217 -10.11029
  Beta  occ. eigenvalues --  -10.11028 -10.10938 -10.10937 -10.10702 -10.10702
  Beta  occ. eigenvalues --  -10.10543 -10.10541 -10.10473 -10.10473 -10.08596
  Beta  occ. eigenvalues --  -10.08594  -8.01188  -8.01188  -5.97451  -5.97451
  Beta  occ. eigenvalues --   -5.97367  -5.97367  -5.97305  -5.97305  -1.00479
  Beta  occ. eigenvalues --   -1.00471  -0.90370  -0.90218  -0.89937  -0.89797
  Beta  occ. eigenvalues --   -0.79297  -0.79296  -0.74465  -0.70118  -0.69391
  Beta  occ. eigenvalues --   -0.68163  -0.68145  -0.67936  -0.60545  -0.60526
  Beta  occ. eigenvalues --   -0.56694  -0.54106  -0.54069  -0.53650  -0.50712
  Beta  occ. eigenvalues --   -0.50396  -0.47940  -0.45622  -0.44312  -0.41124
  Beta  occ. eigenvalues --   -0.40241  -0.39971  -0.39074  -0.38849  -0.38838
  Beta  occ. eigenvalues --   -0.38059  -0.37413  -0.37260  -0.35693  -0.35676
  Beta  occ. eigenvalues --   -0.34665  -0.34526  -0.34333  -0.31936  -0.31029
  Beta  occ. eigenvalues --   -0.30997  -0.30368  -0.30065  -0.29878  -0.29334
  Beta  occ. eigenvalues --   -0.28553  -0.27879  -0.27567  -0.25911  -0.23614
  Beta  occ. eigenvalues --   -0.23445  -0.22176  -0.22087  -0.20862  -0.20446
  Beta  occ. eigenvalues --   -0.20418  -0.20156  -0.19168  -0.19036  -0.18745
  Beta  occ. eigenvalues --   -0.18680  -0.16975  -0.16172  -0.14493  -0.13763
  Beta virt. eigenvalues --   -0.00499   0.03520   0.04495   0.05588   0.05709
  Beta virt. eigenvalues --    0.05721   0.05739   0.07660   0.07682   0.07797
  Beta virt. eigenvalues --    0.08910   0.09145   0.10825   0.10974   0.11445

 Mulliken charges and spin densities:
               1          2
     1  C   -0.593456   0.030495
     2  C   -0.387953   0.126048
     3  C    0.420491   0.088048
     4  C   -0.592970   0.030482
     5  C   -0.388011   0.126060
     6  C    0.421026   0.088061
     7  O   -0.285450   0.277133
     8  O   -0.285512   0.277129
     9  S    0.254214  -0.032596
    10  C    0.379086   0.002355
    11  C   -0.220660   0.021237
    12  C    0.057765  -0.000145
    13  C   -0.497502  -0.000705
    14  C   -0.392785  -0.003980
    15  C   -0.265856   0.001988
    16  O   -0.080591   0.005738
    17  O   -0.166481  -0.002784
    18  H    0.297162  -0.001419
    19  H    0.240863   0.000790
    20  H    0.169419   0.000031
    21  H    0.159621   0.000019
    22  H    0.140941  -0.000138
    23  S    0.255113  -0.032587
    24  C    0.378498   0.002329
    25  C    0.058154  -0.000102
    26  C   -0.221099   0.021212
    27  C   -0.392827  -0.003982
    28  C   -0.497069  -0.000707
    29  C   -0.265912   0.001991
    30  H    0.270318  -0.012114
    31  H    0.270270  -0.012113
    32  H    0.240902   0.000788
    33  H    0.297222  -0.001424
    34  H    0.169434   0.000032
    35  H    0.159619   0.000019
    36  H    0.140940  -0.000138
    37  O   -0.080522   0.005736
    38  O   -0.166401  -0.002784
 Sum of Mulliken charges =  -1.00000   1.00000

 Dipole moment (field-independent basis, Debye):
    X=             -0.6152    Y=              2.5728    Z=              5.3666  Tot=              5.9831
 Quadrupole moment (field-independent basis, Debye-Ang):
   XX=           -218.7313   YY=           -168.4075   ZZ=           -187.9899
   XY=             -8.7669   XZ=            -13.3189   YZ=              6.2787

  Exact polarizability: 342.759  40.986 273.163 -26.880 -12.255 262.080
 Approx polarizability: 431.269  49.283 462.229 -73.242 -71.669 494.320

                      1                      2                      3
                      A                      A                      A
 Frequencies --     17.3936                19.7361                37.0289
 Red. masses --      6.1529                 5.7608                 4.6218
 Frc consts  --      0.0011                 0.0013                 0.0037
 IR Inten    --      0.5760                 0.0168                 0.3273

                      4                      5                      6
                      A                      A                      A
 Frequencies --     41.1852                53.2465                74.3285
 Red. masses --      7.7538                 5.3114                 5.9064
 Frc consts  --      0.0077                 0.0089                 0.0192
 IR Inten    --      1.6462                 0.0432                 2.0223

                      7                      8                      9
                      A                      A                      A
 Frequencies --     87.9785               123.2841               158.5832
 Red. masses --      7.1054                11.2757                11.6629
 Frc consts  --      0.0324                 0.1010                 0.1728
 IR Inten    --      0.3080                 0.2830                11.2542

                     10                     11                     12
                      A                      A                      A
 Frequencies --    161.0381               175.0204               179.1381
 Red. masses --      6.1569                 7.2504                 6.6785
 Frc consts  --      0.0941                 0.1309                 0.1263
 IR Inten    --      5.7078                 0.4025                 1.1951

                     13                     14                     15
                      A                      A                      A
 Frequencies --    179.4750               190.9813               244.7310
 Red. masses --      7.0344                10.5066                 8.1991
 Frc consts  --      0.1335                 0.2258                 0.2893
 IR Inten    --      2.1415                 1.1323                 0.0133

                     16                     17                     18
                      A                      A                      A
 Frequencies --    248.5604               274.5928               276.1175
 Red. masses --      5.8749                12.5570                 9.1533
 Frc consts  --      0.2139                 0.5578                 0.4112
 IR Inten    --      1.7433                 0.1231                 4.0602

                     19                     20                     21
                      A                      A                      A
 Frequencies --    297.7715               299.9206               302.1074
 Red. masses --     10.2417                 8.4138                11.3742
 Frc consts  --      0.5350                 0.4459                 0.6116
 IR Inten    --      1.8393                 3.3671                 1.2395

                     22                     23                     24
                      A                      A                      A
 Frequencies --    374.1594               397.3905               413.2631
 Red. masses --      8.7909                 6.8994                 2.8776
 Frc consts  --      0.7251                 0.6419                 0.2896
 IR Inten    --      3.0545                 0.2161                 0.2567

                     25                     26                     27
                      A                      A                      A
 Frequencies --    413.7089               430.0160               431.0370
 Red. masses --      2.8792                 9.9695                 4.3287
 Frc consts  --      0.2903                 1.0862                 0.4738
 IR Inten    --      0.5690                 5.0890                 0.6080

                     28                     29                     30
                      A                      A                      A
 Frequencies --    444.5820               459.3940               481.9450
 Red. masses --      7.8619                 5.2151                10.5923
 Frc consts  --      0.9155                 0.6485                 1.4496
 IR Inten    --     32.5765                 0.1216                 0.6473

                     31                     32                     33
                      A                      A                      A
 Frequencies --    492.6883               527.1007               554.6734
 Red. masses --      5.1793                 7.2652                12.0786
 Frc consts  --      0.7407                 1.1893                 2.1895
 IR Inten    --      4.6244                75.6140                16.7120

                     34                     35                     36
                      A                      A                      A
 Frequencies --    574.4610               607.0082               622.9003
 Red. masses --      7.8279                 9.3497                 5.9896
 Frc consts  --      1.5220                 2.0297                 1.3692
 IR Inten    --     32.2238               520.2632                 0.3902

                     37                     38                     39
                      A                      A                      A
 Frequencies --    628.0984               628.4802               686.2146
 Red. masses --      6.4372                 6.4256                 6.9320
 Frc consts  --      1.4962                 1.4954                 1.9232
 IR Inten    --      2.8237                 0.0624                 2.9899

                     40                     41                     42
                      A                      A                      A
 Frequencies --    696.7593               701.0770               702.4698
 Red. masses --      5.5749                 1.8231                 1.9424
 Frc consts  --      1.5946                 0.5279                 0.5647
 IR Inten    --      1.8964               109.7759                13.1315

                     43                     44                     45
                      A                      A                      A
 Frequencies --    715.4139               733.4720               739.3842
 Red. masses --      7.0529                 8.2283                 3.4556
 Frc consts  --      2.1268                 2.6081                 1.1130
 IR Inten    --    101.8707                58.8995                 6.1312

                     46                     47                     48
                      A                      A                      A
 Frequencies --    764.2218               765.0124               845.4159
 Red. masses --      1.8153                 1.8301                 5.3723
 Frc consts  --      0.6246                 0.6310                 2.2623
 IR Inten    --      7.9710                 7.6104                 9.6288

                     49                     50                     51
                      A                      A                      A
 Frequencies --    849.6904               849.9217               899.3372
 Red. masses --      1.2541                 1.2507                 1.5270
 Frc consts  --      0.5335                 0.5323                 0.7277
 IR Inten    --      0.5805                 0.4215                 0.3207

                     52                     53                     54
                      A                      A                      A
 Frequencies --    919.9607               925.1792               937.1108
 Red. masses --      5.4333                 1.6828                 1.3859
 Frc consts  --      2.7093                 0.8487                 0.7171
 IR Inten    --     29.6878                 7.3003                 1.6271

                     55                     56                     57
                      A                      A                      A
 Frequencies --    937.3757               985.4067               985.8578
 Red. masses --      1.3873                 1.4017                 1.3816
 Frc consts  --      0.7182                 0.8019                 0.7912
 IR Inten    --      1.1563                 1.4803                 0.3782

                     58                     59                     60
                      A                      A                      A
 Frequencies --    994.9277               995.0254               999.9490
 Red. masses --      1.3140                 1.3047                 2.9630
 Frc consts  --      0.7664                 0.7611                 1.7456
 IR Inten    --      0.3998                 0.0914                 0.2274

                     61                     62                     63
                      A                      A                      A
 Frequencies --   1014.6820              1015.2274              1041.4855
 Red. masses --      5.8884                 5.6096                 3.5287
 Frc consts  --      3.5720                 3.4065                 2.2551
 IR Inten    --      1.0283                 7.1849                22.7708

                     64                     65                     66
                      A                      A                      A
 Frequencies --   1042.2309              1067.0263              1067.2472
 Red. masses --      3.2921                 3.8633                 3.9160
 Frc consts  --      2.1069                 2.5915                 2.6280
 IR Inten    --     15.5691               170.8894               126.8719

                     67                     68                     69
                      A                      A                      A
 Frequencies --   1096.4466              1096.8257              1109.5540
 Red. masses --      1.5874                 1.5894                 4.3967
 Frc consts  --      1.1244                 1.1266                 3.1891
 IR Inten    --     12.7521                10.6038               114.1948

                     70                     71                     72
                      A                      A                      A
 Frequencies --   1109.9492              1148.2848              1178.3195
 Red. masses --      4.4548                 9.4114                 1.1164
 Frc consts  --      3.2336                 7.3114                 0.9132
 IR Inten    --    146.0460                 0.0383                 0.1039

                     73                     74                     75
                      A                      A                      A
 Frequencies --   1178.3824              1197.7729              1198.2985
 Red. masses --      1.1163                 1.1528                 1.1527
 Frc consts  --      0.9132                 0.9745                 0.9752
 IR Inten    --      0.0926                 8.2390                 5.5332

                     76                     77                     78
                      A                      A                      A
 Frequencies --   1218.5863              1249.4859              1250.2128
 Red. masses --      1.3924                18.5960                12.6591
 Frc consts  --      1.2182                17.1054                11.6579
 IR Inten    --      6.2449               176.4329               114.1129

                     79                     80                     81
                      A                      A                      A
 Frequencies --   1302.7588              1330.3100              1330.7634
 Red. masses --      2.1315                 2.8580                 2.9169
 Frc consts  --      2.1314                 2.9800                 3.0435
 IR Inten    --     51.1159                 0.1445                 0.2764

                     82                     83                     84
                      A                      A                      A
 Frequencies --   1345.3468              1345.8530              1396.6255
 Red. masses --      1.8230                 1.7869                 5.8422
 Frc consts  --      1.9440                 1.9069                 6.7141
 IR Inten    --      3.0137                 3.6099                 1.5285

                     85                     86                     87
                      A                      A                      A
 Frequencies --   1471.9325              1472.7003              1477.0114
 Red. masses --      2.3547                 2.1627                 4.1228
 Frc consts  --      3.0058                 2.7636                 5.2992
 IR Inten    --     52.6187                 6.9059               128.2591

                     88                     89                     90
                      A                      A                      A
 Frequencies --   1506.1331              1506.4307              1518.0710
 Red. masses --      2.0393                 2.0387                11.7958
 Frc consts  --      2.7256                 2.7258                16.0163
 IR Inten    --      9.9774                 8.5986                 1.2528

                     91                     92                     93
                      A                      A                      A
 Frequencies --   1539.4412              1620.1176              1622.3180
 Red. masses --     11.1232                 6.4799                 5.4054
 Frc consts  --     15.5312                10.0211                 8.3821
 IR Inten    --    422.6365                 0.2239                 1.7703

                     94                     95                     96
                      A                      A                      A
 Frequencies --   1622.7713              1623.1920              1626.5923
 Red. masses --      5.4199                 5.7776                 6.9475
 Frc consts  --      8.4092                 8.9688                10.8301
 IR Inten    --      0.0105                 1.3243                 0.8133

                     97                     98                     99
                      A                      A                      A
 Frequencies --   3153.3358              3153.3486              3168.4101
 Red. masses --      1.0853                 1.0853                 1.0900
 Frc consts  --      6.3583                 6.3584                 6.4469
 IR Inten    --      1.7975                 1.8308                22.9930

                    100                    101                    102
                      A                      A                      A
 Frequencies --   3168.4629              3178.9196              3179.0009
 Red. masses --      1.0900                 1.0953                 1.0953
 Frc consts  --      6.4472                 6.5215                 6.5217
 IR Inten    --     22.8770                34.2659                31.4515

                    103                    104                    105
                      A                      A                      A
 Frequencies --   3194.7829              3196.8018              3199.9772
 Red. masses --      1.0892                 1.0901                 1.0930
 Frc consts  --      6.5502                 6.5634                 6.5942
 IR Inten    --     15.7614                 0.4028                 5.0669

                    106                    107                    108
                      A                      A                      A
 Frequencies --   3200.1471              3224.8999              3224.9228
 Red. masses --      1.0930                 1.0929                 1.0929
 Frc consts  --      6.5948                 6.6968                 6.6969
 IR Inten    --      6.6988                 7.9181                 9.6565

 - Thermochemistry -
 -------------------
 Temperature   298.150 Kelvin.  Pressure   1.00000 Atm.
 Atom     1 has atomic number  6 and mass  12.00000

 Molecular mass:   388.00753 amu.
 Principal axes and moments of inertia in atomic units:
                           1         2         3
     Eigenvalues --  5412.68720********************
           X            0.96613  -0.24229   0.08879
           Y            0.25473   0.84051  -0.47819
           Z            0.04123   0.48461   0.87376
 This molecule is an asymmetric top.
 Rotational symmetry number  1.
 Warning -- assumption of classical behavior for rotation
           may cause significant error
 Rotational temperatures (Kelvin)      0.01600     0.00463     0.00436
 Rotational constants (GHZ):           0.33343     0.09640     0.09085
 Zero-point vibrational energy     692241.3 (Joules/Mol)
                                  165.44964 (Kcal/Mol)
 Warning -- explicit consideration of  35 degrees of freedom as
           vibrations may cause significant error
 Vibrational temperatures:     25.03    28.40    53.28    59.26    76.61
          (Kelvin)            106.94   126.58   177.38   228.17   231.70
                              251.82   257.74   258.22   274.78   352.11
                              357.62   395.08   397.27   428.43   431.52
                              434.67   538.33   571.76   594.59   595.23
                              618.70   620.17   639.65   660.97   693.41
                              708.87   758.38   798.05   826.52   873.35
                              896.21   903.69   904.24   987.31  1002.48
                             1008.69  1010.70  1029.32  1055.30  1063.81
                             1099.54  1100.68  1216.36  1222.51  1222.85
                             1293.95  1323.62  1331.13  1348.29  1348.67
                             1417.78  1418.43  1431.48  1431.62  1438.70
                             1459.90  1460.69  1498.47  1499.54  1535.21
                             1535.53  1577.54  1578.09  1596.40  1596.97
                             1652.13  1695.34  1695.43  1723.33  1724.08
                             1753.27  1797.73  1798.78  1874.38  1914.02
                             1914.67  1935.65  1936.38  2009.43  2117.78
                             2118.89  2125.09  2166.99  2167.42  2184.17
                             2214.91  2330.99  2334.15  2334.81  2335.41
                             2340.30  4536.95  4536.97  4558.64  4558.71
                             4573.76  4573.87  4596.58  4599.48  4604.05
                             4604.30  4639.91  4639.94

 Zero-point correction=                           0.263661 (Hartree/Particle)
 Thermal correction to Energy=                    0.285894
 Thermal correction to Enthalpy=                  0.286838
 Thermal correction to Gibbs Free Energy=         0.209241
 Sum of electronic and zero-point Energies=          -1940.897384
 Sum of electronic and thermal Energies=             -1940.875151
 Sum of electronic and thermal Enthalpies=           -1940.874207
 Sum of electronic and thermal Free Energies=        -1940.951803

                     E (Thermal)             CV                S
                      KCal/Mol        Cal/Mol-Kelvin    Cal/Mol-Kelvin
 Total                  179.401             85.657            163.315
 Electronic               0.000              0.000              1.377
 Translational            0.889              2.981             43.760
 Rotational               0.889              2.981             35.952
 Vibrational            177.623             79.696             82.226
 Vibration     1          0.593              1.986              6.911
 Vibration     2          0.593              1.986              6.661
 Vibration     3          0.594              1.982              5.412
 Vibration     4          0.594              1.981              5.201
 Vibration     5          0.596              1.976              4.693
 Vibration     6          0.599              1.966              4.035
 Vibration     7          0.601              1.958              3.705
 Vibration     8          0.610              1.930              3.048
 Vibration     9          0.621              1.893              2.567
 Vibration    10          0.622              1.890              2.538
 Vibration    11          0.627              1.873              2.381
 Vibration    12          0.629              1.868              2.337
 Vibration    13          0.629              1.868              2.334
 Vibration    14          0.634              1.852              2.218
 Vibration    15          0.660              1.771              1.768
 Vibration    16          0.662              1.765              1.741
 Vibration    17          0.677              1.720              1.567
 Vibration    18          0.678              1.718              1.558
 Vibration    19          0.691              1.678              1.429
 Vibration    20          0.692              1.674              1.417
 Vibration    21          0.694              1.670              1.405
 Vibration    22          0.745              1.525              1.063
 Vibration    23          0.764              1.476              0.972
 Vibration    24          0.777              1.441              0.915
 Vibration    25          0.777              1.440              0.914
 Vibration    26          0.791              1.405              0.859
 Vibration    27          0.792              1.403              0.855
 Vibration    28          0.804              1.373              0.812
 Vibration    29          0.817              1.340              0.768
 Vibration    30          0.838              1.290              0.705
 Vibration    31          0.848              1.266              0.677
 Vibration    32          0.882              1.190              0.594
 Vibration    33          0.910              1.129              0.535
 Vibration    34          0.931              1.086              0.496
 Vibration    35          0.966              1.017              0.438

 Optimization completed.
    -- Stationary point found.
 Normal termination of Gaussian 16 at Wed Jan 10 10:14:17 2024.
