 Q-Chem 5.4, Q-Chem, Inc., Pleasanton, CA (2021)
 Q-Chem 5.4.0 for Intel X86 EM64T Linux

User input:
--------------------------------------------------------------
$molecule
-2 1
C                 -2.1672860000     -5.4046350000      0.7034000000
C                 -0.9721400000     -5.5961940000     -0.0440370000
C                 -0.2220350000     -4.5671470000     -0.6179470000
C                 -0.6511890000     -3.1919550000     -0.5753430000
C                 -2.5669930000     -4.0244620000      0.7962280000
C                 -1.8577070000     -3.0058400000      0.1491040000
O                 -2.8935790000     -6.3341440000      1.2370410000
O                  0.0347850000     -2.2772330000     -1.1863060000
N                 -3.8221750000     -3.8365880000      1.4715310000
N                  0.9638130000     -4.7698400000     -1.3993440000
C                 -3.8374460000     -3.4150220000      2.8988510000
C                 -2.4761110000     -3.0136810000      3.4798260000
C                 -4.8641050000     -2.2857010000      3.1387990000
C                  2.1793930000     -5.1940460000     -0.6811050000
C                  2.9938160000     -4.0254340000     -0.1080060000
C                  3.0579390000     -6.1019560000     -1.5653020000
N                 -5.4653350000     -1.8534600000      2.0095310000
N                  2.4422890000     -6.4896290000     -2.7066420000
C                  2.9823010000     -7.4750680000     -3.6084760000
C                 -6.3297690000     -0.7024560000      1.9573210000
O                 -5.1143970000     -1.8499940000      4.2677030000
O                  4.1965520000     -6.4533290000     -1.2435500000
Cl                -0.4391990000     -7.2965300000     -0.2816350000
Cl                -2.4983110000     -1.3281540000      0.2042660000
H                 -4.1938750000     -4.7917600000      1.4619900000
H                  1.1172500000     -3.8282310000     -1.7866000000
H                 -4.2096960000     -4.2562390000      3.4993840000
H                 -2.6034970000     -2.7264730000      4.5264260000
H                 -2.0446620000     -2.1757520000      2.9295580000
H                 -1.7863840000     -3.8562330000      3.4091350000
H                  1.8693560000     -5.8410670000      0.1447060000
H                  2.3615490000     -3.4425000000      0.5641450000
H                  3.3281710000     -3.3588210000     -0.9096080000
H                  3.8732570000     -4.3923410000      0.4278100000
H                 -5.0621150000     -2.2814820000      1.1721620000
H                  1.4789640000     -6.1494950000     -2.7587130000
H                  4.0404620000     -7.6094610000     -3.3763900000
H                  2.8824550000     -7.1479080000     -4.6496810000
H                  2.4776560000     -8.4446780000     -3.5029830000
H                 -7.2360170000     -0.9170320000      1.3786460000
H                 -5.8258450000      0.1581670000      1.4986320000
H                 -6.6130520000     -0.4384040000      2.9779340000
$end
$rem
MAX_SCF_CYCLES=200
BASIS  =  6-311++G(d,p)
GUI  =  2
JOB_TYPE  =  SP
METHOD  =  B3LYP
SOLVENT_METHOD = PCM
$end
$pcm
theory = CPCM
$end
$solvent
dielectric 37.219
opticaldielectric 1.43
$end

--------------------------------------------------------------

             Standard Nuclear Orientation (Angstroms)
    I     Atom           X                Y                Z
 ----------------------------------------------------------------
    1      C      -2.1672860000    -5.4046350000     0.7034000000
    2      C      -0.9721400000    -5.5961940000    -0.0440370000
    3      C      -0.2220350000    -4.5671470000    -0.6179470000
    4      C      -0.6511890000    -3.1919550000    -0.5753430000
    5      C      -2.5669930000    -4.0244620000     0.7962280000
    6      C      -1.8577070000    -3.0058400000     0.1491040000
    7      O      -2.8935790000    -6.3341440000     1.2370410000
    8      O       0.0347850000    -2.2772330000    -1.1863060000
    9      N      -3.8221750000    -3.8365880000     1.4715310000
   10      N       0.9638130000    -4.7698400000    -1.3993440000
   11      C      -3.8374460000    -3.4150220000     2.8988510000
   12      C      -2.4761110000    -3.0136810000     3.4798260000
   13      C      -4.8641050000    -2.2857010000     3.1387990000
   14      C       2.1793930000    -5.1940460000    -0.6811050000
   15      C       2.9938160000    -4.0254340000    -0.1080060000
   16      C       3.0579390000    -6.1019560000    -1.5653020000
   17      N      -5.4653350000    -1.8534600000     2.0095310000
   18      N       2.4422890000    -6.4896290000    -2.7066420000
   19      C       2.9823010000    -7.4750680000    -3.6084760000
   20      C      -6.3297690000    -0.7024560000     1.9573210000
   21      O      -5.1143970000    -1.8499940000     4.2677030000
   22      O       4.1965520000    -6.4533290000    -1.2435500000
   23      Cl     -0.4391990000    -7.2965300000    -0.2816350000
   24      Cl     -2.4983110000    -1.3281540000     0.2042660000
   25      H      -4.1938750000    -4.7917600000     1.4619900000
   26      H       1.1172500000    -3.8282310000    -1.7866000000
   27      H      -4.2096960000    -4.2562390000     3.4993840000
   28      H      -2.6034970000    -2.7264730000     4.5264260000
   29      H      -2.0446620000    -2.1757520000     2.9295580000
   30      H      -1.7863840000    -3.8562330000     3.4091350000
   31      H       1.8693560000    -5.8410670000     0.1447060000
   32      H       2.3615490000    -3.4425000000     0.5641450000
   33      H       3.3281710000    -3.3588210000    -0.9096080000
   34      H       3.8732570000    -4.3923410000     0.4278100000
   35      H      -5.0621150000    -2.2814820000     1.1721620000
   36      H       1.4789640000    -6.1494950000    -2.7587130000
   37      H       4.0404620000    -7.6094610000    -3.3763900000
   38      H       2.8824550000    -7.1479080000    -4.6496810000
   39      H       2.4776560000    -8.4446780000    -3.5029830000
   40      H      -7.2360170000    -0.9170320000     1.3786460000
   41      H      -5.8258450000     0.1581670000     1.4986320000
   42      H      -6.6130520000    -0.4384040000     2.9779340000
 ----------------------------------------------------------------

    9   -1985.2930969694      4.38e-06  Convergence criterion met
 Total energy in the final basis set =    -1985.2930969694

                    Orbital Energies (a.u.)
 --------------------------------------------------------------

 Alpha MOs
 -- Occupied --
********-101.5308 -19.0869 -19.0854 -19.0349 -19.0341 -14.3249 -14.3231
-14.2964 -14.2941 -10.2632 -10.2609 -10.2022 -10.2019 -10.1922 -10.1920
-10.1903 -10.1899 -10.1897 -10.1896 -10.1768 -10.1729 -10.1532 -10.1524
 -9.4466  -9.4455  -7.2104  -7.2094  -7.2020  -7.2014  -7.2009  -7.2002
 -1.0336  -1.0316  -0.9610  -0.9546  -0.9212  -0.9191  -0.8959  -0.8914
 -0.8408  -0.8319  -0.7781  -0.7558  -0.7377  -0.7057  -0.7045  -0.6734
 -0.6580  -0.6280  -0.6129  -0.5656  -0.5621  -0.5534  -0.5431  -0.5163
 -0.5027  -0.4971  -0.4758  -0.4707  -0.4658  -0.4572  -0.4433  -0.4386
 -0.4355  -0.4260  -0.4239  -0.4125  -0.4115  -0.4036  -0.3911  -0.3869
 -0.3869  -0.3827  -0.3822  -0.3803  -0.3726  -0.3709  -0.3610  -0.3600
 -0.3522  -0.3470  -0.3396  -0.3348  -0.3218  -0.3094  -0.3001  -0.2973
 -0.2828  -0.2794  -0.2546  -0.2524  -0.2479  -0.2451  -0.2239  -0.2220
 -0.2170  -0.1946  -0.1322

          Ground-State Mulliken Net Atomic Charges

     Atom                 Charge (a.u.)
  ----------------------------------------
      1 C                    -0.674243
      2 C                     0.078455
      3 C                    -0.258752
      4 C                    -0.637589
      5 C                    -0.210505
      6 C                     0.235466
      7 O                    -0.646182
      8 O                    -0.645724
      9 N                    -0.134937
     10 N                     0.068404
     11 C                     0.106935
     12 C                    -0.557563
     13 C                    -0.153011
     14 C                     0.041583
     15 C                    -0.661031
     16 C                    -0.095197
     17 N                    -0.199676
     18 N                    -0.255222
     19 C                    -0.300196
     20 C                    -0.323888
     21 O                    -0.506509
     22 O                    -0.499584
     23 Cl                    0.296509
     24 Cl                    0.296602
     25 H                     0.277998
     26 H                     0.261598
     27 H                     0.220610
     28 H                     0.172242
     29 H                     0.123795
     30 H                     0.170859
     31 H                     0.167257
     32 H                     0.181070
     33 H                     0.177712
     34 H                     0.160236
     35 H                     0.339843
     36 H                     0.363215
     37 H                     0.170829
     38 H                     0.167267
     39 H                     0.172838
     40 H                     0.169122
     41 H                     0.175712
     42 H                     0.163617
  ----------------------------------------
  Sum of atomic charges =    -2.000034

                    Cartesian Multipole Moments
 -----------------------------------------------------------------
    Charge (ESU x 10^10)
                -9.6066
    Dipole Moment (Debye)
         X      10.6758      Y      40.9324      Z      -6.2410
       Tot      42.7596
    Quadrupole Moments (Debye-Ang)
        XX    -246.2845     XY     -36.5061     YY    -392.0294
        XZ      45.5494     YZ      26.9963     ZZ    -199.2854

 Total job time:  139.22s(wall), 823.96s(cpu)
        *  Thank you very much for using Q-Chem.  Have a nice day.  *
