 Q-Chem 5.4, Q-Chem, Inc., Pleasanton, CA (2021)
 Q-Chem 5.4.0 for Intel X86 EM64T Linux

User input:
--------------------------------------------------------------
$molecule
-1 2
C                 -1.3155720000      1.9803310000      0.5654440000
C                 -2.6103440000      1.3601730000      0.2525810000
C                 -2.6828540000      0.1061860000     -0.2936330000
C                 -1.5212640000     -0.7004430000     -0.6068970000
C                 -0.2395310000     -0.0957480000     -0.2988610000
C                 -0.1652210000      1.1542160000      0.2482300000
O                 -1.2318680000      3.1300830000      1.0674270000
O                 -1.6108500000     -1.8531710000     -1.1128310000
H                  0.6460910000     -0.6786360000     -0.5206360000
I                  1.7433410000      1.9996450000      0.6885520000
C                 -3.8358960000      2.2106420000      0.5503370000
C                 -4.0523310000      3.2583600000     -0.5608030000
C                 -5.1187050000      1.4049740000      0.7936600000
H                 -3.6404150000     -0.3519640000     -0.5202350000
H                 -3.5998710000      2.7685050000      1.4627130000
H                 -4.2771880000      2.7683660000     -1.5146160000
H                 -3.1559630000      3.8682220000     -0.6853770000
H                 -4.8888480000      3.9232620000     -0.3129370000
H                 -5.4520170000      0.8838130000     -0.1098250000
H                 -5.9301290000      2.0732010000      1.1029320000
H                 -4.9774460000      0.6551840000      1.5773360000
$end
$rem
MAX_SCF_CYCLES=200
BASIS  =  6-311++G(d,p)
GUI  =  2
JOB_TYPE  =  SP
METHOD  =  B3LYP
SOLVENT_METHOD = PCM
$end
$pcm
theory = CPCM
$end
$solvent
dielectric 37.219
opticaldielectric 1.43
$end

--------------------------------------------------------------

             Standard Nuclear Orientation (Angstroms)
    I     Atom           X                Y                Z
 ----------------------------------------------------------------
    1      C      -1.3155720000     1.9803310000     0.5654440000
    2      C      -2.6103440000     1.3601730000     0.2525810000
    3      C      -2.6828540000     0.1061860000    -0.2936330000
    4      C      -1.5212640000    -0.7004430000    -0.6068970000
    5      C      -0.2395310000    -0.0957480000    -0.2988610000
    6      C      -0.1652210000     1.1542160000     0.2482300000
    7      O      -1.2318680000     3.1300830000     1.0674270000
    8      O      -1.6108500000    -1.8531710000    -1.1128310000
    9      H       0.6460910000    -0.6786360000    -0.5206360000
   10      I       1.7433410000     1.9996450000     0.6885520000
   11      C      -3.8358960000     2.2106420000     0.5503370000
   12      C      -4.0523310000     3.2583600000    -0.5608030000
   13      C      -5.1187050000     1.4049740000     0.7936600000
   14      H      -3.6404150000    -0.3519640000    -0.5202350000
   15      H      -3.5998710000     2.7685050000     1.4627130000
   16      H      -4.2771880000     2.7683660000    -1.5146160000
   17      H      -3.1559630000     3.8682220000    -0.6853770000
   18      H      -4.8888480000     3.9232620000    -0.3129370000
   19      H      -5.4520170000     0.8838130000    -0.1098250000
   20      H      -5.9301290000     2.0732010000     1.1029320000
   21      H      -4.9774460000     0.6551840000     1.5773360000
 ----------------------------------------------------------------

    9   -7418.6210932926      6.01e-06  Convergence criterion met
 Total energy in the final basis set =    -7418.6210932926

                    Orbital Energies (a.u.)
 --------------------------------------------------------------

 Alpha MOs
 -- Occupied --
********-176.2895-165.6931-165.6913-165.6912 -35.7860 -31.2786 -31.2735
-31.2732 -22.9293 -22.9281 -22.9279 -22.9243 -22.9243 -19.0860 -19.0846
-10.2324 -10.2271 -10.2121 -10.1777 -10.1731 -10.1707 -10.1620 -10.1508
-10.1508  -6.3353  -4.7463  -4.7338  -4.7332  -2.0123  -2.0085  -2.0080
 -1.9972  -1.9970  -1.0119  -1.0055  -0.8381  -0.7980  -0.7395  -0.6931
 -0.6779  -0.6465  -0.6144  -0.5587  -0.5450  -0.4899  -0.4741  -0.4499
 -0.4341  -0.4217  -0.4197  -0.4029  -0.3946  -0.3902  -0.3820  -0.3736
 -0.3579  -0.3367  -0.3349  -0.3240  -0.3059  -0.2724  -0.2646  -0.2518
 -0.2425  -0.2413  -0.1690

 Beta MOs
 -- Occupied --
********-176.2895-165.6931-165.6913-165.6912 -35.7860 -31.2786 -31.2735
-31.2732 -22.9293 -22.9281 -22.9279 -22.9243 -22.9243 -19.0794 -19.0778
-10.2308 -10.2258 -10.2109 -10.1768 -10.1716 -10.1708 -10.1612 -10.1508
-10.1507  -6.3353  -4.7464  -4.7338  -4.7332  -2.0123  -2.0085  -2.0080
 -1.9972  -1.9970  -1.0002  -0.9934  -0.8327  -0.7960  -0.7374  -0.6839
 -0.6773  -0.6441  -0.6117  -0.5547  -0.5430  -0.4875  -0.4699  -0.4482
 -0.4325  -0.4140  -0.4101  -0.3985  -0.3889  -0.3856  -0.3730  -0.3599
 -0.3516  -0.3356  -0.3333  -0.3228  -0.2907  -0.2637  -0.2509  -0.2455
 -0.2369  -0.2360

          Ground-State Mulliken Net Atomic Charges

     Atom                 Charge (a.u.)    Spin (a.u.)
  --------------------------------------------------------
      1 C                    -1.946860       0.034389
      2 C                     1.400524       0.091760
      3 C                    -0.502478       0.017544
      4 C                    -0.376970       0.141436
      5 C                    -0.066771       0.116132
      6 C                     1.063316       0.111322
      7 O                    -0.403215       0.246509
      8 O                    -0.505667       0.239275
      9 H                     0.192533      -0.009401
     10 I                    -0.071518      -0.000440
     11 C                     0.207033       0.006364
     12 C                    -0.719854       0.011302
     13 C                    -0.582159      -0.001227
     14 H                     0.198538      -0.005295
     15 H                     0.192448       0.001960
     16 H                     0.149327      -0.000875
     17 H                     0.167302      -0.001920
     18 H                     0.145612       0.001770
     19 H                     0.147293      -0.000138
     20 H                     0.171545      -0.000405
     21 H                     0.140021      -0.000061
  --------------------------------------------------------
  Sum of atomic charges =    -1.000000

                    Cartesian Multipole Moments
 -----------------------------------------------------------------
    Charge (ESU x 10^10)
                -4.8032
    Dipole Moment (Debye)
         X       3.7777      Y      -3.3041      Z      -0.0815
       Tot       5.0195
    Quadrupole Moments (Debye-Ang)
        XX    -101.9123     XY      -4.2549     YY    -133.7743
        XZ      -3.0575     YZ     -14.1292     ZZ    -105.2394

 Total job time:  43.45s(wall), 219.53s(cpu)
        *  Thank you very much for using Q-Chem.  Have a nice day.  *
