 Q-Chem 5.4, Q-Chem, Inc., Pleasanton, CA (2021)
 Q-Chem 5.4.0 for Intel X86 EM64T Linux

User input:
--------------------------------------------------------------
$molecule
-2 1
C                  5.7558610000     -5.2813300000      1.2502050000
C                  6.7304960000     -5.1597080000      0.2846340000
C                  6.6120560000     -4.1344540000     -0.6891050000
C                  4.6363850000     -4.4154320000      1.3045180000
C                  4.5052270000     -3.3541210000      0.3044760000
C                  5.5378630000     -3.2533990000     -0.6896360000
C                  3.6652430000     -4.6365010000      2.3710160000
C                  2.5840790000     -3.7246060000      2.3442830000
C                  2.4472340000     -2.7016880000      1.3897670000
C                  3.3594160000     -2.4429130000      0.3346810000
O                  3.7965270000     -5.5843570000      3.2518850000
O                  3.1775190000     -1.4774270000     -0.5204550000
H                  5.7980360000     -6.0482400000      2.0183560000
C                  5.5096340000     -2.1948210000     -1.7768570000
H                  7.5834850000     -5.8380130000      0.2628700000
H                  7.3778820000     -4.0295830000     -1.4580160000
H                  1.8237800000     -3.8404920000      3.1191150000
H                  1.5821270000     -2.0382670000      1.4380060000
H                  5.4839940000     -1.1873400000     -1.3562540000
H                  4.6022390000     -2.2632710000     -2.3806830000
H                  6.3952180000     -2.3064510000     -2.4221150000
$end

$rem
BASIS  =  6-311++G(d,p)
GUI  =  2
JOB_TYPE  =  SP
METHOD  =  B3LYP
SCF_CONVERGENCE  = 8
SOLVENT_METHOD = sm12
$end

$smx
solvent dimethylformamide
charges CM5
$end

--------------------------------------------------------------

             Standard Nuclear Orientation (Angstroms)
    I     Atom           X                Y                Z
 ----------------------------------------------------------------
    1      C       5.7558610000    -5.2813300000     1.2502050000
    2      C       6.7304960000    -5.1597080000     0.2846340000
    3      C       6.6120560000    -4.1344540000    -0.6891050000
    4      C       4.6363850000    -4.4154320000     1.3045180000
    5      C       4.5052270000    -3.3541210000     0.3044760000
    6      C       5.5378630000    -3.2533990000    -0.6896360000
    7      C       3.6652430000    -4.6365010000     2.3710160000
    8      C       2.5840790000    -3.7246060000     2.3442830000
    9      C       2.4472340000    -2.7016880000     1.3897670000
   10      C       3.3594160000    -2.4429130000     0.3346810000
   11      O       3.7965270000    -5.5843570000     3.2518850000
   12      O       3.1775190000    -1.4774270000    -0.5204550000
   13      H       5.7980360000    -6.0482400000     2.0183560000
   14      C       5.5096340000    -2.1948210000    -1.7768570000
   15      H       7.5834850000    -5.8380130000     0.2628700000
   16      H       7.3778820000    -4.0295830000    -1.4580160000
   17      H       1.8237800000    -3.8404920000     3.1191150000
   18      H       1.5821270000    -2.0382670000     1.4380060000
   19      H       5.4839940000    -1.1873400000    -1.3562540000
   20      H       4.6022390000    -2.2632710000    -2.3806830000
   21      H       6.3952180000    -2.3064510000    -2.4221150000
 ----------------------------------------------------------------

   18    -574.5415052405      3.45e-09  Convergence criterion met
 Total energy in the final basis set =     -574.8404471500

                    Orbital Energies (a.u.)
 --------------------------------------------------------------

 Alpha MOs
 -- Occupied --
-19.0267 -19.0245 -10.1907 -10.1873 -10.1870 -10.1771 -10.1726 -10.1687
-10.1685 -10.1677 -10.1614 -10.1458 -10.1439  -0.9383  -0.9350  -0.8494
 -0.7856  -0.7703  -0.7248  -0.6879  -0.6570  -0.6043  -0.5982  -0.5350
 -0.4965  -0.4891  -0.4603  -0.4395  -0.4209  -0.4148  -0.4018  -0.3977
 -0.3815  -0.3785  -0.3640  -0.3563  -0.3347  -0.3346  -0.3236  -0.3222
 -0.2462  -0.2407  -0.2323  -0.2031  -0.1995  -0.1267

          Ground-State Mulliken Net Atomic Charges

     Atom                 Charge (a.u.)
  ----------------------------------------
      1 C                     0.746579
      2 C                     1.386028
      3 C                     1.672355
      4 C                    -1.400426
      5 C                    -2.038121
      6 C                    -0.189723
      7 C                    -1.481862
      8 C                    -0.789868
      9 C                    -0.806847
     10 C                    -1.697023
     11 O                    -0.369748
     12 O                    -0.298063
     13 H                     0.087228
     14 C                     1.750619
     15 H                     0.439899
     16 H                     0.309601
     17 H                     0.066523
     18 H                     0.072683
     19 H                     0.110787
     20 H                     0.110513
     21 H                     0.318865
  ----------------------------------------
  Sum of atomic charges =    -2.000000

                    Cartesian Multipole Moments
 -----------------------------------------------------------------
    Charge (ESU x 10^10)
                -9.6064
    Dipole Moment (Debye)
         X     -36.3727      Y      35.3189      Z     -12.1113
       Tot      52.1256
    Quadrupole Moments (Debye-Ang)
        XX    -239.4174     XY     141.7691     YY    -249.0731
        XZ     -43.6305     YZ      68.9114     ZZ    -132.0849

 Total job time:  406.19s(wall), 2546.84s(cpu)
        *  Thank you very much for using Q-Chem.  Have a nice day.  *
