 Gaussian 16, Revision A.03,
 Gaussian 16:  ES64L-G16RevA.03 25-Dec-2016

 ----------------------------------------------------------------------
 #P UB3LYP/6-311++G(d,p) nosym opt freq SCRF=(PCM,Solvent=n,n-DiMethylF
 ormamide)
 ----------------------------------------------------------------------

 -------
 Radical
 -------
 Symbolic Z-matrix:
 Charge = -1 Multiplicity = 2

 SCF Done:  E(UB3LYP) =  -2220.21172611     A.U. after   19 cycles
 SCF Done:  E(UB3LYP) =  -2220.21183599     A.U. after   23 cycles
 SCF Done:  E(UB3LYP) =  -2220.21186031     A.U. after   23 cycles
 Optimization completed.
    -- Stationary point found.
 Normal termination of Gaussian 16 at Sat Feb 10 10:13:08 2024.

 ----------------------------------------------------------------------
 #P Geom=AllCheck Guess=TCheck SCRF=Check GenChk UB3LYP/6-311++G(d,p) F
 req
 ----------------------------------------------------------------------

 Structure from the checkpoint file:  "029-rad.chk"
 -------
 Radical
 -------
 Charge = -1 Multiplicity = 2

                          Input orientation:
 ---------------------------------------------------------------------
 Center     Atomic      Atomic             Coordinates (Angstroms)
 Number     Number       Type             X           Y           Z
 ---------------------------------------------------------------------
      1         17           0       -2.550557    1.771562    0.702513
      2          6           0       -1.153685    0.762852    0.413074
      3          6           0       -1.212361   -0.599234    0.547860
      4         17           0       -2.688137   -1.408925    1.015931
      5          6           0       -0.062936   -1.463512    0.313926
      6          8           0       -0.116160   -2.706094    0.437312
      7          6           0        1.153675   -0.762854   -0.075583
      8          6           0        1.212356    0.599236   -0.210371
      9         17           0        2.688151    1.408947   -0.678274
     10          6           0        0.062906    1.463491    0.023429
     11          8           0        0.116175    2.706092   -0.099717
     12         17           0        2.550573   -1.771560   -0.364857
 ---------------------------------------------------------------------

 SCF Done:  E(UB3LYP) =  -2220.21186031     A.U. after    2 cycles

 Alpha  occ. eigenvalues -- -101.56338-101.56338-101.56338-101.56338 -19.10268
 Alpha  occ. eigenvalues --  -19.10268 -10.25905 -10.25903 -10.24929 -10.24927
 Alpha  occ. eigenvalues --  -10.24865 -10.24865  -9.47791  -9.47791  -9.47790
 Alpha  occ. eigenvalues --   -9.47789  -7.24254  -7.24254  -7.24254  -7.24254
 Alpha  occ. eigenvalues --   -7.23308  -7.23307  -7.23307  -7.23307  -7.23205
 Alpha  occ. eigenvalues --   -7.23205  -7.23205  -7.23205  -1.03549  -1.03187
 Alpha  occ. eigenvalues --   -0.91364  -0.90244  -0.85972  -0.85747  -0.80821
 Alpha  occ. eigenvalues --   -0.72490  -0.70160  -0.60259  -0.59788  -0.53757
 Alpha  occ. eigenvalues --   -0.49286  -0.46803  -0.45978  -0.45185  -0.43493
 Alpha  occ. eigenvalues --   -0.42431  -0.41663  -0.41211  -0.39470  -0.35640
 Alpha  occ. eigenvalues --   -0.34831  -0.34071  -0.33852  -0.33199  -0.31860
 Alpha  occ. eigenvalues --   -0.31195  -0.28815  -0.27434  -0.26747  -0.25477
 Alpha  occ. eigenvalues --   -0.18599
 Alpha virt. eigenvalues --   -0.03576  -0.02901   0.00158   0.00474   0.01305
 Alpha virt. eigenvalues --    0.01731   0.03469   0.03589   0.04072   0.04899
 Alpha virt. eigenvalues --    0.05471   0.05737   0.07041   0.07154   0.08507

  Beta  occ. eigenvalues -- -101.56333-101.56333-101.56333-101.56333 -19.09578
  Beta  occ. eigenvalues --  -19.09578 -10.25784 -10.25783 -10.24811 -10.24809
  Beta  occ. eigenvalues --  -10.24746 -10.24746  -9.47786  -9.47786  -9.47785
  Beta  occ. eigenvalues --   -9.47784  -7.24258  -7.24258  -7.24257  -7.24257
  Beta  occ. eigenvalues --   -7.23284  -7.23284  -7.23284  -7.23284  -7.23203
  Beta  occ. eigenvalues --   -7.23203  -7.23203  -7.23203  -1.02416  -1.02000
  Beta  occ. eigenvalues --   -0.90985  -0.90121  -0.85889  -0.85580  -0.80469
  Beta  occ. eigenvalues --   -0.72298  -0.69160  -0.59859  -0.59371  -0.53539
  Beta  occ. eigenvalues --   -0.48963  -0.46555  -0.45112  -0.44570  -0.42787
  Beta  occ. eigenvalues --   -0.41940  -0.41511  -0.39097  -0.38880  -0.34643
  Beta  occ. eigenvalues --   -0.34000  -0.33992  -0.33156  -0.32987  -0.31838
  Beta  occ. eigenvalues --   -0.31126  -0.26784  -0.26453  -0.26118  -0.24863
  Beta virt. eigenvalues --   -0.11585  -0.02764  -0.02036   0.00218   0.01357
  Beta virt. eigenvalues --    0.01824   0.03014   0.03507   0.03613   0.04209
  Beta virt. eigenvalues --    0.04959   0.05512   0.05801   0.07158   0.07159

 Mulliken charges and spin densities:
               1          2
     1  Cl   0.334327   0.006494
     2  C    0.235014   0.070435
     3  C    0.238327   0.070376
     4  Cl   0.334156   0.006493
     5  C   -1.282745   0.095545
     6  O   -0.358895   0.250646
     7  C    0.234830   0.070445
     8  C    0.238139   0.070388
     9  Cl   0.334154   0.006495
    10  C   -1.282742   0.095542
    11  O   -0.358895   0.250646
    12  Cl   0.334330   0.006495
 Sum of Mulliken charges =  -1.00000   1.00000

 Dipole moment (field-independent basis, Debye):
    X=              0.0000    Y=              0.0000    Z=             -0.8110  Tot=              0.8110
 Quadrupole moment (field-independent basis, Debye-Ang):
   XX=           -108.7283   YY=           -136.2316   ZZ=            -98.3987
   XY=             -0.8814   XZ=              3.2181   YZ=              3.6680

  Exact polarizability: 227.749  -1.306 279.342 -36.235 -15.939 104.102
 Approx polarizability: 232.484   0.989 332.118 -34.036 -19.983 117.493

                      1                      2                      3
                      A                      A                      A
 Frequencies --     65.6858                71.5100               108.1426
 Red. masses --     33.3442                18.6821                20.6621
 Frc consts  --      0.0848                 0.0563                 0.1424
 IR Inten    --      0.2173                 7.6451                 0.0000

                      4                      5                      6
                      A                      A                      A
 Frequencies --    184.2447               205.8370               209.1309
 Red. masses --     13.7816                34.5282                24.9244
 Frc consts  --      0.2756                 0.8619                 0.6423
 IR Inten    --      8.9844                 0.0000                 2.2882

                      7                      8                      9
                      A                      A                      A
 Frequencies --    218.4563               279.5775               314.3509
 Red. masses --     32.1637                23.2405                12.5391
 Frc consts  --      0.9044                 1.0703                 0.7300
 IR Inten    --      0.6727                 0.0000                 0.0000

                     10                     11                     12
                      A                      A                      A
 Frequencies --    328.9923               331.6211               364.0449
 Red. masses --     28.8277                19.7771                17.8695
 Frc consts  --      1.8384                 1.2814                 1.3953
 IR Inten    --      0.0000                 0.0000                 4.6960

                     13                     14                     15
                      A                      A                      A
 Frequencies --    392.3098               446.3025               500.2252
 Red. masses --     12.4988                22.2641                14.5835
 Frc consts  --      1.1334                 2.6129                 2.1500
 IR Inten    --      0.0000                 0.4165                 0.0000

                     16                     17                     18
                      A                      A                      A
 Frequencies --    551.0880               696.3980               710.7219
 Red. masses --     12.1106                14.8257                12.2170
 Frc consts  --      2.1670                 4.2362                 3.6359
 IR Inten    --      0.0002               281.7758                11.6055

                     19                     20                     21
                      A                      A                      A
 Frequencies --    721.6768               782.3517               824.9458
 Red. masses --     12.6432                12.0956                13.1402
 Frc consts  --      3.8797                 4.3620                 5.2687
 IR Inten    --      0.0000                 0.0000                 0.0000

                     22                     23                     24
                      A                      A                      A
 Frequencies --    900.9239              1004.1621              1132.8294
 Red. masses --     13.0849                12.7526                12.1767
 Frc consts  --      6.2574                 7.5763                 9.2068
 IR Inten    --    348.7725                 0.0000               425.0902

                     25                     26                     27
                      A                      A                      A
 Frequencies --   1139.4675              1329.0332              1470.0834
 Red. masses --     12.0399                12.0132                12.0421
 Frc consts  --      9.2104                12.5021                15.3333
 IR Inten    --    128.2207                 0.0000                 7.0833

                     28                     29                     30
                      A                      A                      A
 Frequencies --   1525.7228              1537.0876              1596.0155
 Red. masses --     13.0160                12.9187                12.2409
 Frc consts  --     17.8517                17.9832                18.3712
 IR Inten    --   1222.9577                 0.0002                 0.0000

 - Thermochemistry -
 -------------------
 Temperature   298.150 Kelvin.  Pressure   1.00000 Atm.
 Atom     1 has atomic number 17 and mass  34.96885

 Molecular mass:   243.86524 amu.
 Principal axes and moments of inertia in atomic units:
                           1         2         3
     Eigenvalues --  2390.300683939.312436329.61248
           X            0.96482   0.04298   0.25939
           Y           -0.06685   0.99423   0.08393
           Z           -0.25429  -0.09831   0.96212
 This molecule is an asymmetric top.
 Rotational symmetry number  1.
 Warning -- assumption of classical behavior for rotation
           may cause significant error
 Rotational temperatures (Kelvin)      0.03624     0.02199     0.01368
 Rotational constants (GHZ):           0.75503     0.45814     0.28513
 Zero-point vibrational energy     119285.3 (Joules/Mol)
                                   28.50986 (Kcal/Mol)
 Warning -- explicit consideration of  16 degrees of freedom as
           vibrations may cause significant error
 Vibrational temperatures:     94.51   102.89   155.59   265.09   296.15
          (Kelvin)            300.89   314.31   402.25   452.28   473.35
                              477.13   523.78   564.45   642.13   719.71
                              792.89  1001.96  1022.57  1038.33  1125.63
                             1186.91  1296.23  1444.77  1629.89  1639.44
                             1912.18  2115.12  2195.17  2211.53  2296.31

 Zero-point correction=                           0.045433 (Hartree/Particle)
 Thermal correction to Energy=                    0.056396
 Thermal correction to Enthalpy=                  0.057340
 Thermal correction to Gibbs Free Energy=         0.006271
 Sum of electronic and zero-point Energies=          -2220.166427
 Sum of electronic and thermal Energies=             -2220.155464
 Sum of electronic and thermal Enthalpies=           -2220.154520
 Sum of electronic and thermal Free Energies=        -2220.205589

                     E (Thermal)             CV                S
                      KCal/Mol        Cal/Mol-Kelvin    Cal/Mol-Kelvin
 Total                   35.389             38.053            107.484
 Electronic               0.000              0.000              1.377
 Translational            0.889              2.981             42.375
 Rotational               0.889              2.981             32.455
 Vibrational             33.612             32.091             31.276
 Vibration     1          0.597              1.971              4.279
 Vibration     2          0.598              1.968              4.111
 Vibration     3          0.606              1.943              3.302
 Vibration     4          0.631              1.861              2.285
 Vibration     5          0.640              1.832              2.080
 Vibration     6          0.642              1.827              2.051
 Vibration     7          0.646              1.813              1.972
 Vibration     8          0.680              1.711              1.536
 Vibration     9          0.702              1.646              1.339
 Vibration    10          0.712              1.618              1.265
 Vibration    11          0.714              1.612              1.252
 Vibration    12          0.738              1.546              1.105
 Vibration    13          0.760              1.487              0.991
 Vibration    14          0.806              1.369              0.807
 Vibration    15          0.856              1.250              0.658
 Vibration    16          0.906              1.137              0.542

 Optimization completed.
    -- Stationary point found.
 Normal termination of Gaussian 16 at Sat Feb 10 10:21:50 2024.
