 Gaussian 16, Revision A.03,
 Gaussian 16:  ES64L-G16RevA.03 25-Dec-2016

 ----------------------------------------------------------------
 #P UB3LYP/6-311++G(d,p) SCRF=(PCM,Solvent=n,n-DiMethylFormamide)
 ----------------------------------------------------------------

 ------------------
 Quinone PCM in DMF
 ------------------
 Symbolic Z-matrix:
 Charge =  0 Multiplicity = 1

                         Standard orientation:
 ---------------------------------------------------------------------
 Center     Atomic      Atomic             Coordinates (Angstroms)
 Number     Number       Type             X           Y           Z
 ---------------------------------------------------------------------
      1         35           0        2.848908   -1.720019   -0.000038
      2          6           0        1.281760   -0.673410    0.000013
      3          6           0        1.281045    0.673480   -0.000021
      4         35           0        2.847372    1.721221    0.000030
      5          6           0       -0.000724    1.458265   -0.000047
      6          8           0       -0.000614    2.664843   -0.000133
      7          6           0       -1.281664    0.673486    0.000003
      8          6           0       -1.281020   -0.673454    0.000039
      9         35           0       -2.847162   -1.720998   -0.000035
     10          6           0        0.000727   -1.458021    0.000090
     11          8           0        0.000470   -2.664618    0.000156
     12         35           0       -2.849107    1.719686    0.000024
 ---------------------------------------------------------------------

 SCF Done:  E(UB3LYP) =  -10675.7174046     A.U. after   13 cycles

 The electronic state is 1-A.
 Alpha  occ. eigenvalues -- -482.86349-482.86349-482.86349-482.86348 -62.51611
 Alpha  occ. eigenvalues --  -62.51611 -62.51610 -62.51610 -56.33670 -56.33670
 Alpha  occ. eigenvalues --  -56.33669 -56.33669 -56.33271 -56.33271 -56.33270
 Alpha  occ. eigenvalues --  -56.33270 -56.33216 -56.33216 -56.33215 -56.33215
 Alpha  occ. eigenvalues --  -19.16842 -19.16840 -10.32568 -10.32565 -10.28717
 Alpha  occ. eigenvalues --  -10.28715 -10.28641 -10.28640  -8.72580  -8.72580
 Alpha  occ. eigenvalues --   -8.72579  -8.72578  -6.55790  -6.55790  -6.55789
 Alpha  occ. eigenvalues --   -6.55789  -6.54455  -6.54454  -6.54453  -6.54453
 Alpha  occ. eigenvalues --   -6.54296  -6.54296  -6.54295  -6.54295  -2.66876
 Alpha  occ. eigenvalues --   -2.66875  -2.66874  -2.66874  -2.66519  -2.66518
 Alpha  occ. eigenvalues --   -2.66517  -2.66517  -2.66399  -2.66399  -2.66397
 Alpha  occ. eigenvalues --   -2.66397  -2.65335  -2.65334  -2.65334  -2.65333
 Alpha  occ. eigenvalues --   -2.65333  -2.65332  -2.65331  -2.65331  -1.10858
 Alpha  occ. eigenvalues --   -1.10666  -0.92172  -0.89231  -0.83367  -0.83338
 Alpha  occ. eigenvalues --   -0.80600  -0.75022  -0.71856  -0.63033  -0.62962
 Alpha  occ. eigenvalues --   -0.57514  -0.51648  -0.49863  -0.49025  -0.46190
 Alpha  occ. eigenvalues --   -0.45931  -0.45673  -0.45402  -0.42848  -0.40051
 Alpha  occ. eigenvalues --   -0.37649  -0.33902  -0.33704  -0.33227  -0.33087
 Alpha  occ. eigenvalues --   -0.32403  -0.32205  -0.30909  -0.29781  -0.29360
 Alpha  occ. eigenvalues --   -0.27700
 Alpha virt. eigenvalues --   -0.15952  -0.06825  -0.06102  -0.04617  -0.02812
 Alpha virt. eigenvalues --   -0.02256  -0.00488   0.00641   0.01462   0.02042
 Alpha virt. eigenvalues --    0.03322   0.03677   0.04354   0.04866   0.05165

  Beta  occ. eigenvalues -- -482.86349-482.86349-482.86349-482.86348 -62.51611
  Beta  occ. eigenvalues --  -62.51611 -62.51610 -62.51610 -56.33670 -56.33670
  Beta  occ. eigenvalues --  -56.33669 -56.33669 -56.33271 -56.33271 -56.33270
  Beta  occ. eigenvalues --  -56.33270 -56.33216 -56.33216 -56.33215 -56.33215
  Beta  occ. eigenvalues --  -19.16842 -19.16840 -10.32568 -10.32565 -10.28717
  Beta  occ. eigenvalues --  -10.28715 -10.28641 -10.28640  -8.72580  -8.72580
  Beta  occ. eigenvalues --   -8.72579  -8.72578  -6.55790  -6.55790  -6.55789
  Beta  occ. eigenvalues --   -6.55789  -6.54455  -6.54454  -6.54453  -6.54453
  Beta  occ. eigenvalues --   -6.54296  -6.54296  -6.54295  -6.54295  -2.66876
  Beta  occ. eigenvalues --   -2.66875  -2.66874  -2.66874  -2.66519  -2.66518
  Beta  occ. eigenvalues --   -2.66517  -2.66517  -2.66399  -2.66399  -2.66397
  Beta  occ. eigenvalues --   -2.66397  -2.65335  -2.65334  -2.65334  -2.65333
  Beta  occ. eigenvalues --   -2.65333  -2.65332  -2.65331  -2.65331  -1.10858
  Beta  occ. eigenvalues --   -1.10666  -0.92172  -0.89231  -0.83367  -0.83338
  Beta  occ. eigenvalues --   -0.80600  -0.75022  -0.71856  -0.63033  -0.62962
  Beta  occ. eigenvalues --   -0.57514  -0.51648  -0.49863  -0.49025  -0.46190
  Beta  occ. eigenvalues --   -0.45931  -0.45673  -0.45402  -0.42848  -0.40051
  Beta  occ. eigenvalues --   -0.37649  -0.33902  -0.33704  -0.33227  -0.33087
  Beta  occ. eigenvalues --   -0.32403  -0.32205  -0.30909  -0.29781  -0.29360
  Beta  occ. eigenvalues --   -0.27700
  Beta virt. eigenvalues --   -0.15952  -0.06825  -0.06102  -0.04617  -0.02812
  Beta virt. eigenvalues --   -0.02256  -0.00488   0.00641   0.01462   0.02042
  Beta virt. eigenvalues --    0.03322   0.03677   0.04354   0.04866   0.05165

 Mulliken charges and spin densities:
               1          2
     1  Br   0.003704  -0.000000
     2  C    0.311604   0.000000
     3  C    0.314822  -0.000000
     4  Br   0.003804  -0.000000
     5  C   -0.466978  -0.000000
     6  O   -0.166703  -0.000000
     7  C    0.311581   0.000000
     8  C    0.314478  -0.000000
     9  Br   0.003928  -0.000000
    10  C   -0.467182   0.000000
    11  O   -0.166695  -0.000000
    12  Br   0.003639  -0.000000
 Sum of Mulliken charges =  -0.00000   0.00000

 Dipole moment (field-independent basis, Debye):
    X=             -0.0007    Y=             -0.0011    Z=              0.0000  Tot=              0.0013
 Quadrupole moment (field-independent basis, Debye-Ang):
   XX=           -107.9089   YY=           -132.1478   ZZ=           -115.6495
   XY=              0.0089   XZ=              0.0001   YZ=              0.0014

 Normal termination of Gaussian 16 at Sun Jan 21 06:56:51 2024.
