 Gaussian 16, Revision A.03,
 Gaussian 16:  ES64L-G16RevA.03 25-Dec-2016

 --------------------------------------
 #P UB3LYP/6-311++G(d,p) nosym opt freq
 --------------------------------------

 --------
 Oxidized
 --------
 Symbolic Z-matrix:
 Charge =  0 Multiplicity = 1

 SCF Done:  E(UB3LYP) =  -10675.7083585     A.U. after   14 cycles
 Optimization completed.
    -- Stationary point found.
 Normal termination of Gaussian 16 at Sat Jan  6 05:39:03 2024.

 ----------------------------------------------------------------------
 #P Geom=AllCheck Guess=TCheck SCRF=Check GenChk UB3LYP/6-311++G(d,p) F
 req
 ----------------------------------------------------------------------

 Structure from the checkpoint file:  "030.chk"
 --------
 Oxidized
 --------
 Charge =  0 Multiplicity = 1

                          Input orientation:
 ---------------------------------------------------------------------
 Center     Atomic      Atomic             Coordinates (Angstroms)
 Number     Number       Type             X           Y           Z
 ---------------------------------------------------------------------
      1         35           0       -3.122513   -1.150890    0.015647
      2          6           0       -1.385886   -0.419181    0.007153
      3          6           0       -1.130725    0.903317    0.009044
      4         35           0       -2.470874    2.228086    0.020327
      5          6           0        0.276204    1.431828    0.002065
      6          8           0        0.504047    2.616698    0.003820
      7          6           0        1.385790    0.419199   -0.007154
      8          6           0        1.130689   -0.903362   -0.009048
      9         35           0        2.470694   -2.227903   -0.020307
     10          6           0       -0.276176   -1.431663   -0.002094
     11          8           0       -0.503879   -2.616579   -0.003830
     12         35           0        3.122629    1.150450   -0.015621
 ---------------------------------------------------------------------

 SCF Done:  E(UB3LYP) =  -10675.7083585     A.U. after    1 cycles

 Alpha  occ. eigenvalues -- -482.86758-482.86758-482.86757-482.86757 -62.52021
 Alpha  occ. eigenvalues --  -62.52021 -62.52020 -62.52020 -56.34082 -56.34082
 Alpha  occ. eigenvalues --  -56.34081 -56.34080 -56.33683 -56.33682 -56.33682
 Alpha  occ. eigenvalues --  -56.33681 -56.33623 -56.33623 -56.33622 -56.33622
 Alpha  occ. eigenvalues --  -19.17027 -19.17025 -10.32775 -10.32772 -10.29295
 Alpha  occ. eigenvalues --  -10.29293 -10.29219 -10.29218  -8.72991  -8.72991
 Alpha  occ. eigenvalues --   -8.72990  -8.72989  -6.56209  -6.56209  -6.56208
 Alpha  occ. eigenvalues --   -6.56208  -6.54871  -6.54870  -6.54870  -6.54869
 Alpha  occ. eigenvalues --   -6.54694  -6.54693  -6.54692  -6.54692  -2.67294
 Alpha  occ. eigenvalues --   -2.67294  -2.67293  -2.67292  -2.66941  -2.66940
 Alpha  occ. eigenvalues --   -2.66939  -2.66939  -2.66806  -2.66805  -2.66804
 Alpha  occ. eigenvalues --   -2.66804  -2.65740  -2.65739  -2.65738  -2.65738
 Alpha  occ. eigenvalues --   -2.65737  -2.65735  -2.65735  -2.65734  -1.11011
 Alpha  occ. eigenvalues --   -1.10806  -0.92763  -0.89779  -0.83809  -0.83781
 Alpha  occ. eigenvalues --   -0.81091  -0.75567  -0.72317  -0.63498  -0.63428
 Alpha  occ. eigenvalues --   -0.57935  -0.51756  -0.49715  -0.49595  -0.46748
 Alpha  occ. eigenvalues --   -0.46186  -0.46123  -0.45679  -0.43218  -0.40735
 Alpha  occ. eigenvalues --   -0.37997  -0.34198  -0.34162  -0.33644  -0.33363
 Alpha  occ. eigenvalues --   -0.32456  -0.32400  -0.31182  -0.30233  -0.29585
 Alpha  occ. eigenvalues --   -0.28262
 Alpha virt. eigenvalues --   -0.16384  -0.07452  -0.06839  -0.05262  -0.03254
 Alpha virt. eigenvalues --   -0.02915  -0.01140   0.00039   0.01047   0.02270
 Alpha virt. eigenvalues --    0.02753   0.03001   0.04351   0.04537   0.05023

  Beta  occ. eigenvalues -- -482.86758-482.86758-482.86757-482.86757 -62.52021
  Beta  occ. eigenvalues --  -62.52021 -62.52020 -62.52020 -56.34082 -56.34082
  Beta  occ. eigenvalues --  -56.34081 -56.34080 -56.33683 -56.33682 -56.33682
  Beta  occ. eigenvalues --  -56.33681 -56.33623 -56.33623 -56.33622 -56.33622
  Beta  occ. eigenvalues --  -19.17027 -19.17025 -10.32775 -10.32772 -10.29295
  Beta  occ. eigenvalues --  -10.29293 -10.29219 -10.29218  -8.72991  -8.72991
  Beta  occ. eigenvalues --   -8.72990  -8.72989  -6.56209  -6.56209  -6.56208
  Beta  occ. eigenvalues --   -6.56208  -6.54871  -6.54870  -6.54870  -6.54869
  Beta  occ. eigenvalues --   -6.54694  -6.54693  -6.54692  -6.54692  -2.67294
  Beta  occ. eigenvalues --   -2.67294  -2.67293  -2.67292  -2.66941  -2.66940
  Beta  occ. eigenvalues --   -2.66939  -2.66939  -2.66806  -2.66805  -2.66804
  Beta  occ. eigenvalues --   -2.66804  -2.65740  -2.65739  -2.65738  -2.65738
  Beta  occ. eigenvalues --   -2.65737  -2.65735  -2.65735  -2.65734  -1.11011
  Beta  occ. eigenvalues --   -1.10806  -0.92763  -0.89779  -0.83809  -0.83781
  Beta  occ. eigenvalues --   -0.81091  -0.75567  -0.72317  -0.63498  -0.63428
  Beta  occ. eigenvalues --   -0.57935  -0.51756  -0.49715  -0.49595  -0.46748
  Beta  occ. eigenvalues --   -0.46186  -0.46123  -0.45679  -0.43218  -0.40735
  Beta  occ. eigenvalues --   -0.37997  -0.34198  -0.34162  -0.33644  -0.33363
  Beta  occ. eigenvalues --   -0.32456  -0.32400  -0.31182  -0.30233  -0.29585
  Beta  occ. eigenvalues --   -0.28262
  Beta virt. eigenvalues --   -0.16384  -0.07452  -0.06839  -0.05262  -0.03254
  Beta virt. eigenvalues --   -0.02915  -0.01140   0.00039   0.01047   0.02270
  Beta virt. eigenvalues --    0.02753   0.03001   0.04351   0.04537   0.05023

 Mulliken charges and spin densities:
               1          2
     1  Br   0.010070   0.000000
     2  C    0.306755  -0.000000
     3  C    0.309614   0.000000
     4  Br   0.010188   0.000000
     5  C   -0.530861   0.000000
     6  O   -0.105565  -0.000000
     7  C    0.306816  -0.000000
     8  C    0.309282   0.000000
     9  Br   0.010299   0.000000
    10  C   -0.531049   0.000000
    11  O   -0.105554   0.000000
    12  Br   0.010006  -0.000000
 Sum of Mulliken charges =   0.00000  -0.00000

 Dipole moment (field-independent basis, Debye):
    X=              0.0004    Y=             -0.0009    Z=             -0.0000  Tot=              0.0010
 Quadrupole moment (field-independent basis, Debye-Ang):
   XX=           -109.1294   YY=           -127.9954   ZZ=           -115.7900
   XY=             -3.7766   XZ=             -0.0493   YZ=             -0.0099

  Exact polarizability: 192.456   1.920 202.115  -0.650   0.296  82.095
 Approx polarizability: 274.528  27.378 411.787  -0.771   0.555 132.599

                      1                      2                      3
                      A                      A                      A
 Frequencies --     32.1156                35.1312                62.2558
 Red. masses --     17.7775                72.3191                19.0029
 Frc consts  --      0.0108                 0.0526                 0.0434
 IR Inten    --      1.8703                 0.0260                 0.0000

                      4                      5                      6
                      A                      A                      A
 Frequencies --    125.3463               135.1061               136.6932
 Red. masses --     77.9146                40.7164                65.7775
 Frc consts  --      0.7213                 0.4379                 0.7241
 IR Inten    --      0.0000                 0.2613                 0.4272

                      7                      8                      9
                      A                      A                      A
 Frequencies --    162.0700               184.0852               210.7147
 Red. masses --     13.4124                55.7872                64.2065
 Frc consts  --      0.2076                 1.1138                 1.6797
 IR Inten    --      2.8343                 0.0000                 0.0000

                     10                     11                     12
                      A                      A                      A
 Frequencies --    277.7255               300.7553               348.1408
 Red. masses --     12.3117                16.5279                20.6511
 Frc consts  --      0.5595                 0.8808                 1.4747
 IR Inten    --      0.0000                 0.0000                 1.6078

                     13                     14                     15
                      A                      A                      A
 Frequencies --    350.1549               392.4773               474.3116
 Red. masses --     18.0824                12.3389                14.1414
 Frc consts  --      1.3062                 1.1198                 1.8744
 IR Inten    --      2.2285                 0.0000                 0.0000

                     16                     17                     18
                      A                      A                      A
 Frequencies --    517.7509               626.8389               700.8609
 Red. masses --     12.0852                13.7663                12.6875
 Frc consts  --      1.9087                 3.1870                 3.6719
 IR Inten    --      0.0000               147.4425                 0.0000

                     19                     20                     21
                      A                      A                      A
 Frequencies --    725.4756               745.6389               757.6943
 Red. masses --     12.2121                12.1688                12.6469
 Frc consts  --      3.7869                 3.9862                 4.2778
 IR Inten    --     14.7794                 0.0000                 0.0000

                     22                     23                     24
                      A                      A                      A
 Frequencies --    867.0034               911.4351              1051.2519
 Red. masses --     12.8124                12.4514                12.0599
 Frc consts  --      5.6744                 6.0942                 7.8525
 IR Inten    --     21.0399                 0.0002               404.1415

                     25                     26                     27
                      A                      A                      A
 Frequencies --   1182.1990              1196.7670              1575.1884
 Red. masses --     12.0699                12.0214                12.0108
 Frc consts  --      9.9388                10.1444                17.5584
 IR Inten    --    192.8461                 0.0164               273.4164

                     28                     29                     30
                      A                      A                      A
 Frequencies --   1610.3632              1746.6447              1748.7087
 Red. masses --     12.0035                13.3125                13.2754
 Frc consts  --     18.3402                23.9286                23.9184
 IR Inten    --      0.0012                 0.0860               372.6505

 - Thermochemistry -
 -------------------
 Temperature   298.150 Kelvin.  Pressure   1.00000 Atm.
 Atom     1 has atomic number 35 and mass  78.91834

 Molecular mass:   419.66317 amu.
 Principal axes and moments of inertia in atomic units:
                           1         2         3
     Eigenvalues --  4407.986889425.88993**********
           X            0.98197   0.18893   0.00594
           Y           -0.18892   0.98199  -0.00255
           Z           -0.00631   0.00138   0.99998
 This molecule is an asymmetric top.
 Rotational symmetry number  1.
 Warning -- assumption of classical behavior for rotation
           may cause significant error
 Rotational temperatures (Kelvin)      0.01965     0.00919     0.00626
 Rotational constants (GHZ):           0.40943     0.19147     0.13046
 Zero-point vibrational energy     114787.1 (Joules/Mol)
                                   27.43478 (Kcal/Mol)
 Warning -- explicit consideration of  16 degrees of freedom as
           vibrations may cause significant error
 Vibrational temperatures:     46.21    50.55    89.57   180.35   194.39
          (Kelvin)            196.67   233.18   264.86   303.17   399.59
                              432.72   500.90   503.79   564.69   682.43
                              744.93   901.88  1008.38  1043.80  1072.81
                             1090.15  1247.42  1311.35  1512.52  1700.92
                             1721.88  2266.34  2316.95  2513.03  2516.00

 Zero-point correction=                           0.043720 (Hartree/Particle)
 Thermal correction to Energy=                    0.055978
 Thermal correction to Enthalpy=                  0.056923
 Thermal correction to Gibbs Free Energy=         0.000152
 Sum of electronic and zero-point Energies=         -10675.664638
 Sum of electronic and thermal Energies=            -10675.652380
 Sum of electronic and thermal Enthalpies=          -10675.651436
 Sum of electronic and thermal Free Energies=       -10675.708206

                     E (Thermal)             CV                S
                      KCal/Mol        Cal/Mol-Kelvin    Cal/Mol-Kelvin
 Total                   35.127             39.783            119.483
 Electronic               0.000              0.000              0.000
 Translational            0.889              2.981             43.993
 Rotational               0.889              2.981             34.707
 Vibrational             33.349             33.821             40.782
 Vibration     1          0.594              1.983              5.694
 Vibration     2          0.594              1.982              5.516
 Vibration     3          0.597              1.972              4.384
 Vibration     4          0.610              1.928              3.016
 Vibration     5          0.613              1.918              2.872
 Vibration     6          0.614              1.917              2.850
 Vibration     7          0.622              1.889              2.525
 Vibration     8          0.631              1.862              2.287
 Vibration     9          0.643              1.824              2.037
 Vibration    10          0.679              1.715              1.548
 Vibration    11          0.693              1.672              1.413
 Vibration    12          0.726              1.579              1.175
 Vibration    13          0.727              1.575              1.165
 Vibration    14          0.760              1.486              0.991
 Vibration    15          0.831              1.307              0.726
 Vibration    16          0.873              1.211              0.615

 Optimization completed.
    -- Stationary point found.
 Normal termination of Gaussian 16 at Sat Jan  6 05:58:10 2024.
