 Q-Chem 5.4, Q-Chem, Inc., Pleasanton, CA (2021)
 Q-Chem 5.4.0 for Intel X86 EM64T Linux

User input:
--------------------------------------------------------------
$molecule
0 1
N                 -3.4464670000      1.5826470000      0.4247530000
C                 -2.8460190000      0.3611830000      0.2761890000
C                 -3.6746640000     -0.7881560000      0.2482380000
C                 -3.1552480000     -2.0465480000      0.1341960000
C                 -1.7587330000     -2.2723020000      0.0496500000
N                 -1.3241070000     -3.5626240000     -0.0950390000
C                 -0.8975440000     -1.1477090000      0.0833760000
C                  0.5551490000     -1.3415690000      0.0396620000
O                  1.0352250000     -2.5017410000     -0.0164930000
C                  1.4457060000     -0.1769970000      0.0616270000
C                  2.8497960000     -0.3643960000      0.0319260000
N                  3.4568940000     -1.5914320000      0.0547840000
C                  3.6767000000      0.7863910000      0.0140710000
C                  3.1532000000      2.0482280000      0.0217850000
C                  1.7549020000      2.2755070000      0.0602720000
N                  1.3136790000      3.5713530000      0.0329970000
C                  0.8960460000      1.1489630000      0.0881240000
C                 -0.5551900000      1.3415780000      0.1695590000
O                 -1.0353110000      2.5017370000      0.2259760000
C                 -1.4442790000      0.1757950000      0.1850150000
H                 -2.8561410000      2.3973570000      0.3098350000
H                 -4.4382080000      1.6500790000      0.2689460000
H                 -4.7495510000     -0.6548860000      0.3210690000
H                 -3.8220320000     -2.9027220000      0.1056910000
H                 -1.9687300000     -4.3092340000      0.1035700000
H                 -0.3262940000     -3.7180120000     -0.0196410000
H                  4.4333430000     -1.6462120000     -0.1817460000
H                  2.8573930000     -2.3984060000     -0.0670550000
H                  4.7536570000      0.6513380000     -0.0051320000
H                  3.8179170000      2.9061190000     -0.0030430000
H                  0.3251290000      3.7193040000      0.1952240000
H                  1.9737840000      4.3053660000      0.2276220000
$end

$rem
BASIS  =  6-311++G(d,p)
GUI  =  2
JOB_TYPE  =  SP
METHOD  =  B3LYP
SCF_CONVERGENCE  = 8
SOLVENT_METHOD = sm12
$end

$smx
solvent dimethylformamide
charges CM5
$end

--------------------------------------------------------------

             Standard Nuclear Orientation (Angstroms)
    I     Atom           X                Y                Z
 ----------------------------------------------------------------
    1      N      -3.4464670000     1.5826470000     0.4247530000
    2      C      -2.8460190000     0.3611830000     0.2761890000
    3      C      -3.6746640000    -0.7881560000     0.2482380000
    4      C      -3.1552480000    -2.0465480000     0.1341960000
    5      C      -1.7587330000    -2.2723020000     0.0496500000
    6      N      -1.3241070000    -3.5626240000    -0.0950390000
    7      C      -0.8975440000    -1.1477090000     0.0833760000
    8      C       0.5551490000    -1.3415690000     0.0396620000
    9      O       1.0352250000    -2.5017410000    -0.0164930000
   10      C       1.4457060000    -0.1769970000     0.0616270000
   11      C       2.8497960000    -0.3643960000     0.0319260000
   12      N       3.4568940000    -1.5914320000     0.0547840000
   13      C       3.6767000000     0.7863910000     0.0140710000
   14      C       3.1532000000     2.0482280000     0.0217850000
   15      C       1.7549020000     2.2755070000     0.0602720000
   16      N       1.3136790000     3.5713530000     0.0329970000
   17      C       0.8960460000     1.1489630000     0.0881240000
   18      C      -0.5551900000     1.3415780000     0.1695590000
   19      O      -1.0353110000     2.5017370000     0.2259760000
   20      C      -1.4442790000     0.1757950000     0.1850150000
   21      H      -2.8561410000     2.3973570000     0.3098350000
   22      H      -4.4382080000     1.6500790000     0.2689460000
   23      H      -4.7495510000    -0.6548860000     0.3210690000
   24      H      -3.8220320000    -2.9027220000     0.1056910000
   25      H      -1.9687300000    -4.3092340000     0.1035700000
   26      H      -0.3262940000    -3.7180120000    -0.0196410000
   27      H       4.4333430000    -1.6462120000    -0.1817460000
   28      H       2.8573930000    -2.3984060000    -0.0670550000
   29      H       4.7536570000     0.6513380000    -0.0051320000
   30      H       3.8179170000     2.9061190000    -0.0030430000
   31      H       0.3251290000     3.7193040000     0.1952240000
   32      H       1.9737840000     4.3053660000     0.2276220000
 ----------------------------------------------------------------

   14    -910.4752699706      3.26e-09  Convergence criterion met
 Total energy in the final basis set =     -910.5051234636

                    Orbital Energies (a.u.)
 --------------------------------------------------------------

 Alpha MOs
 -- Occupied --
-19.1030 -19.1030 -14.3199 -14.3198 -14.3198 -14.3198 -10.2583 -10.2583
-10.2310 -10.2310 -10.2310 -10.2310 -10.1892 -10.1892 -10.1887 -10.1887
-10.1886 -10.1885 -10.1883 -10.1883  -1.0367  -1.0348  -0.9363  -0.9307
 -0.9255  -0.9204  -0.8514  -0.8334  -0.7977  -0.7618  -0.7393  -0.7247
 -0.6754  -0.6557  -0.6546  -0.6046  -0.5830  -0.5804  -0.5599  -0.5407
 -0.5312  -0.5212  -0.5076  -0.5001  -0.4957  -0.4828  -0.4656  -0.4608
 -0.4545  -0.4451  -0.4313  -0.4279  -0.4152  -0.4112  -0.4079  -0.4037
 -0.3894  -0.3838  -0.3716  -0.3702  -0.3602  -0.3448  -0.2898  -0.2756
 -0.2707  -0.2670  -0.2652  -0.2577  -0.2052  -0.1821

          Ground-State Mulliken Net Atomic Charges

     Atom                 Charge (a.u.)
  ----------------------------------------
      1 N                    -0.307637
      2 C                    -0.178736
      3 C                     1.135048
      4 C                     1.130398
      5 C                    -0.179298
      6 N                    -0.307130
      7 C                    -0.453623
      8 C                    -2.073072
      9 O                    -0.315248
     10 C                    -0.460252
     11 C                    -0.176381
     12 N                    -0.307776
     13 C                     1.137535
     14 C                     1.133215
     15 C                    -0.176156
     16 N                    -0.307388
     17 C                    -0.454053
     18 C                    -2.074110
     19 O                    -0.315033
     20 C                    -0.461997
     21 H                     0.288726
     22 H                     0.395891
     23 H                     0.318400
     24 H                     0.318300
     25 H                     0.395563
     26 H                     0.288825
     27 H                     0.395758
     28 H                     0.288779
     29 H                     0.318518
     30 H                     0.318440
     31 H                     0.288689
     32 H                     0.395805
  ----------------------------------------
  Sum of atomic charges =     0.000000

                    Cartesian Multipole Moments
 -----------------------------------------------------------------
    Charge (ESU x 10^10)
                 0.0000
    Dipole Moment (Debye)
         X       0.0030      Y       0.0029      Z       0.0025
       Tot       0.0049
    Quadrupole Moments (Debye-Ang)
        XX     -75.3931     XY      11.4671     YY     -98.2064
        XZ      -1.5488     YZ       0.3956     ZZ    -124.4639

 Total job time:  870.14s(wall), 6599.21s(cpu)
        *  Thank you very much for using Q-Chem.  Have a nice day.  *
