 Q-Chem 5.4, Q-Chem, Inc., Pleasanton, CA (2021)
 Q-Chem 5.4.0 for Intel X86 EM64T Linux

User input:
--------------------------------------------------------------
$molecule
-1 2
C                 -2.2015320000     -0.3785190000      0.0027990000
C                 -0.7221910000     -0.0973960000      0.0000200000
C                 -0.2248010000      1.1815170000     -0.0385030000
C                  1.1908900000      1.4934880000     -0.0424130000
O                  1.6229150000      2.6835360000     -0.0782590000
C                  2.0715420000      0.3446540000     -0.0022160000
C                  1.5913690000     -0.9383690000      0.0364290000
C                  0.1780330000     -1.2467500000      0.0402130000
O                 -0.2581730000     -2.4358750000      0.0761130000
H                 -2.4913660000     -0.9456260000      0.8942690000
H                 -2.4838850000     -1.0019820000     -0.8527180000
H                 -2.7787730000      0.5503200000     -0.0295030000
H                 -0.9008830000      2.0337130000     -0.0684540000
H                  3.1396180000      0.5467350000     -0.0040510000
H                  2.2672390000     -1.7894450000      0.0662740000
$end
$rem
MAX_SCF_CYCLES=200
BASIS  =  6-311++G(d,p)
GUI  =  2
JOB_TYPE  =  SP
METHOD  =  B3LYP
SOLVENT_METHOD = COSMO
$end
$solvent
dielectric 37.219
opticaldielectric 1.43
$end

--------------------------------------------------------------

             Standard Nuclear Orientation (Angstroms)
    I     Atom           X                Y                Z
 ----------------------------------------------------------------
    1      C       1.9169854137     1.6591816779    -0.0000548478
    2      C       0.7628616464     0.6919764347     0.0000190301
    3      C      -0.5424645699     1.1169738000     0.0000792744
    4      C      -1.6801873569     0.2185813141     0.0000389994
    5      O      -2.8753119979     0.6378924944    -0.0000343898
    6      C      -1.3478826342    -1.1908713701    -0.0000363365
    7      C      -0.0502731842    -1.6317991185    -0.0000160521
    8      C       1.0831780806    -0.7329553974     0.0000462678
    9      O       2.2802365952    -1.1484474696     0.0000188966
   10      H       2.5587914898     1.5039708785    -0.8743130628
   11      H       2.5594434546     1.5032448948     0.8735984310
   12      H       1.5629989357     2.6944042959     0.0003739639
   13      H      -0.7745208895     2.1801632522     0.0001725463
   14      H      -2.1804625368    -1.8897541481    -0.0001261830
   15      H       0.1810483946    -2.6941134154    -0.0000397609
 ----------------------------------------------------------------

   10    -420.9703540588      7.29e-06  Convergence criterion met
 Total energy in the final basis set =     -420.9703540588
    4    -421.0600434959      8.82e-06  Convergence criterion met
 Total energy in the final basis set =     -421.0600434959

                    Orbital Energies (a.u.)
 --------------------------------------------------------------

 Alpha MOs
 -- Occupied --
-19.0818 -19.0811 -10.2213 -10.2199 -10.1740 -10.1637 -10.1628 -10.1591
-10.1558  -1.0019  -0.9996  -0.8253  -0.7635  -0.6976  -0.6649  -0.5909
 -0.5544  -0.4777  -0.4692  -0.4404  -0.4242  -0.4087  -0.4026  -0.3905
 -0.3879  -0.3715  -0.3644  -0.3514  -0.2840  -0.2525  -0.2481  -0.2417
 -0.1655

 Beta MOs
 -- Occupied --
-19.0750 -19.0742 -10.2198 -10.2182 -10.1729 -10.1626 -10.1615 -10.1583
-10.1558  -0.9899  -0.9873  -0.8193  -0.7607  -0.6925  -0.6572  -0.5867
 -0.5501  -0.4755  -0.4646  -0.4363  -0.4147  -0.4059  -0.3983  -0.3861
 -0.3742  -0.3617  -0.3491  -0.3446  -0.2521  -0.2439  -0.2416  -0.2356

          Ground-State Mulliken Net Atomic Charges

     Atom                 Charge (a.u.)    Spin (a.u.)
  --------------------------------------------------------
      1 C                    -0.458480       0.007439
      2 C                     1.263228       0.098588
      3 C                    -0.777380       0.014112
      4 C                    -0.321014       0.142093
      5 O                    -0.558741       0.231983
      6 C                     0.031334       0.094273
      7 C                     0.079702       0.085353
      8 C                    -0.803905       0.094339
      9 O                    -0.531627       0.244808
     10 H                     0.171371       0.004434
     11 H                     0.171318       0.004428
     12 H                     0.155522      -0.000465
     13 H                     0.173895      -0.006261
     14 H                     0.202368      -0.007439
     15 H                     0.202410      -0.007686
  --------------------------------------------------------
  Sum of atomic charges =    -1.000000

                    Cartesian Multipole Moments
 -----------------------------------------------------------------
    Charge (ESU x 10^10)
                -4.8032
    Dipole Moment (Debye)
         X       2.1571      Y       1.4213      Z      -0.0017
       Tot       2.5833
    Quadrupole Moments (Debye-Ang)
        XX     -94.4956     XY      14.8448     YY     -57.4312
        XZ       0.0001     YZ       0.0001     ZZ     -57.0097

 Total job time:  19.78s(wall), 134.54s(cpu)
        *  Thank you very much for using Q-Chem.  Have a nice day.  *
