 Q-Chem 5.4, Q-Chem, Inc., Pleasanton, CA (2021)
 Q-Chem 5.4.0 for Intel X86 EM64T Linux

User input:
--------------------------------------------------------------
$molecule
-2 1
C                 -3.2356780000      2.9975680000      0.0196060000
O                 -1.9182260000      2.5163310000      0.0138370000
C                 -1.7121940000      1.1549160000     -0.0380470000
C                 -2.7760820000      0.2792570000     -0.0378640000
C                 -2.5543890000     -1.1203970000     -0.0762360000
C                 -1.2735670000     -1.6259920000     -0.0270030000
O                 -1.0480660000     -2.9842910000     -0.0796470000
C                 -2.1519880000     -3.8479150000     -0.1328730000
C                 -0.1235890000     -0.7610900000      0.0539740000
C                  1.2122200000     -1.3134040000      0.2460000000
O                  1.4720830000     -2.5355310000      0.4725870000
C                  2.3085650000     -0.3488120000      0.1595880000
C                  3.6376390000     -0.8159370000      0.2907660000
C                  4.7221410000      0.0360810000      0.2078740000
C                  4.5083900000      1.4205010000     -0.0118840000
C                  3.2187180000      1.8979130000     -0.1452370000
C                  2.0936940000      1.0435580000     -0.0663520000
C                  0.7582790000      1.6245250000     -0.2044550000
O                  0.6386080000      2.8688510000     -0.4275070000
C                 -0.3495120000      0.6865630000     -0.0653400000
H                 -3.1590730000      4.0868610000      0.0749250000
H                 -3.8165860000      2.6403380000      0.8852140000
H                 -3.7865460000      2.7262390000     -0.8940910000
H                 -3.7978610000      0.6360760000     -0.0282110000
H                 -3.4154580000     -1.7742940000     -0.1258550000
H                 -2.7948520000     -3.7638000000      0.7568020000
H                 -1.7414780000     -4.8603320000     -0.1770860000
H                 -2.7804400000     -3.6829540000     -1.0229300000
H                  3.7609510000     -1.8808700000      0.4580710000
H                  5.7340800000     -0.3518180000      0.3093890000
H                  5.3551220000      2.1016720000     -0.0738400000
H                  3.0150940000      2.9501840000     -0.3141740000
$end
$rem
MAX_SCF_CYCLES=200
BASIS  =  6-311++G(d,p)
GUI  =  2
JOB_TYPE  =  SP
METHOD  =  B3LYP
SOLVENT_METHOD = COSMO
$end
$solvent
dielectric 37.219
opticaldielectric 1.43
$end

--------------------------------------------------------------

             Standard Nuclear Orientation (Angstroms)
    I     Atom           X                Y                Z
 ----------------------------------------------------------------
    1      C       2.9840931386    -3.4587718730     0.2254411950
    2      O       1.7581473968    -2.7800363990     0.1648004640
    3      C       1.7679285198    -1.4066210124     0.0542272199
    4      C       2.9550376845    -0.7070603972     0.0494136070
    5      C       2.9550278076     0.7071005007    -0.0495837219
    6      C       1.7678965580     1.4065593566    -0.0552311287
    7      O       1.7579812703     2.7798812902    -0.1669755637
    8      C       2.9838730950     3.4590789158    -0.2235708104
    9      C       0.4957394473     0.7344191609     0.0278711438
   10      C      -0.7414144848     1.4946146581     0.1615250923
   11      O      -0.8123521694     2.7508022163     0.3330637616
   12      C      -1.9726241374     0.7086119739     0.0827869759
   13      C      -3.2151239839     1.3810783145     0.1591694540
   14      C      -4.4171686656     0.7045043932     0.0798810170
   15      C      -4.4172041619    -0.7044361097    -0.0797700494
   16      C      -3.2151735233    -1.3810478725    -0.1590037179
   17      C      -1.9726625816    -0.7086132291    -0.0826982794
   18      C      -0.7414959868    -1.4947211931    -0.1613837330
   19      O      -0.8125399153    -2.7509607127    -0.3323678458
   20      C       0.4957599232    -0.7345197709    -0.0286501383
   21      H       2.7375259347    -4.5196887386     0.3210852007
   22      H       3.5952560215    -3.1590900599     1.0920526007
   23      H       3.5895896350    -3.3153612296    -0.6827022781
   24      H       3.9082962431    -1.2170452944     0.1009774424
   25      H       3.9083287682     1.2170529299    -0.1010517028
   26      H       3.5869373272     3.3145843018     0.6859927662
   27      H       2.7371718775     4.5200187967    -0.3184734436
   28      H       3.5975012469     3.1608643536    -1.0889574738
   29      H      -3.1744605967     2.4584330752     0.2813673078
   30      H      -5.3582020534     1.2483989255     0.1384162191
   31      H      -5.3582524051    -1.2483026103    -0.1382934680
   32      H      -3.1745165501    -2.4584105026    -0.2811244554
 ----------------------------------------------------------------

   17    -918.0034302989      2.59e-06  Convergence criterion met
 Total energy in the final basis set =     -918.0034302989
    6    -918.2867929662      3.06e-06  Convergence criterion met
 Total energy in the final basis set =     -918.2867929662

                    Orbital Energies (a.u.)
 --------------------------------------------------------------

 Alpha MOs
 -- Occupied --
-19.1295 -19.1294 -19.0185 -19.0184 -10.2065 -10.2065 -10.2028 -10.2028
-10.1793 -10.1793 -10.1501 -10.1497 -10.1459 -10.1459 -10.1443 -10.1440
-10.1405 -10.1401 -10.1362 -10.1357  -1.0477  -1.0470  -0.9477  -0.9448
 -0.8282  -0.8190  -0.7517  -0.7393  -0.7227  -0.7161  -0.6892  -0.6591
 -0.6358  -0.6028  -0.5909  -0.5547  -0.5355  -0.5165  -0.5064  -0.4896
 -0.4716  -0.4528  -0.4514  -0.4492  -0.4333  -0.4309  -0.4187  -0.4026
 -0.3994  -0.3859  -0.3848  -0.3770  -0.3742  -0.3602  -0.3517  -0.3500
 -0.3396  -0.3244  -0.3183  -0.3139  -0.3119  -0.3093  -0.3065  -0.2735
 -0.2307  -0.2279  -0.2180  -0.1978  -0.1904  -0.1893  -0.1029

          Ground-State Mulliken Net Atomic Charges

     Atom                 Charge (a.u.)
  ----------------------------------------
      1 C                    -0.313241
      2 O                    -0.167689
      3 C                    -0.163326
      4 C                    -0.457872
      5 C                    -0.463780
      6 C                    -0.165145
      7 O                    -0.168083
      8 C                    -0.313564
      9 C                     0.192366
     10 C                    -0.061273
     11 O                    -0.684113
     12 C                     0.116366
     13 C                     0.095247
     14 C                    -0.584146
     15 C                    -0.582818
     16 C                     0.093996
     17 C                     0.114409
     18 C                    -0.058109
     19 O                    -0.684503
     20 C                     0.194730
     21 H                     0.200854
     22 H                     0.147281
     23 H                     0.157278
     24 H                     0.192329
     25 H                     0.193067
     26 H                     0.157306
     27 H                     0.200769
     28 H                     0.147159
     29 H                     0.155121
     30 H                     0.177074
     31 H                     0.177180
     32 H                     0.155132
  ----------------------------------------
  Sum of atomic charges =    -2.000000

                    Cartesian Multipole Moments
 -----------------------------------------------------------------
    Charge (ESU x 10^10)
                -9.6064
    Dipole Moment (Debye)
         X       9.6946      Y       0.0007      Z       0.0020
       Tot       9.6946
    Quadrupole Moments (Debye-Ang)
        XX    -132.6317     XY      -0.0073     YY    -174.7617
        XZ       0.0142     YZ      -6.7938     ZZ    -130.0210

 Total job time:  136.80s(wall), 1047.56s(cpu)
        *  Thank you very much for using Q-Chem.  Have a nice day.  *
