 Gaussian 16, Revision A.03,
 Gaussian 16:  ES64L-G16RevA.03 25-Dec-2016

 ----------------------------------------------------------------
 #P UB3LYP/6-311++G(d,p) SCRF=(PCM,Solvent=n,n-DiMethylFormamide)
 ----------------------------------------------------------------

 ------------------
 Quinone PCM in DMF
 ------------------
 Symbolic Z-matrix:
 Charge =  0 Multiplicity = 1

                         Standard orientation:
 ---------------------------------------------------------------------
 Center     Atomic      Atomic             Coordinates (Angstroms)
 Number     Number       Type             X           Y           Z
 ---------------------------------------------------------------------
      1          6           0       -1.873020   -1.512774    0.066814
      2          6           0       -0.882541   -2.499468   -0.012548
      3          6           0        0.452570   -2.156876   -0.120982
      4          6           0       -1.507440   -0.150309    0.012680
      5          6           0       -0.134571    0.180423   -0.111459
      6          6           0        0.845775   -0.817152   -0.152116
      7          6           0       -2.528221    0.935476    0.106891
      8          6           0       -2.039411    2.338333    0.070127
      9          6           0       -0.751410    2.653535   -0.099142
     10          6           0        0.277003    1.612190   -0.281050
     11          8           0       -3.724707    0.733461    0.221062
     12          8           0        1.416271    1.918705   -0.591522
     13          8           0       -3.173935   -1.855926    0.186221
     14          1           0        1.205528   -2.933843   -0.180145
     15          1           0       -0.399815    3.677893   -0.153810
     16          6           0        2.324273   -0.549000   -0.238883
     17          8           0        3.006757   -0.869955   -1.179869
     18          8           0        2.798396   -0.034373    0.907174
     19          6           0        4.194548    0.323100    0.902618
     20          1           0       -1.173298   -3.545494    0.015697
     21          1           0       -2.814306    3.090015    0.173732
     22          1           0       -3.251331   -2.816989    0.202104
     23          1           0        4.401771    0.691220    1.904788
     24          1           0        4.371739    1.103215    0.161179
     25          1           0        4.812130   -0.546188    0.674217
 ---------------------------------------------------------------------

 SCF Done:  E(UB3LYP) =  -838.451080547     A.U. after   15 cycles

 The electronic state is 1-A.
 Alpha  occ. eigenvalues --  -19.18189 -19.18182 -19.14401 -19.13642 -19.13178
 Alpha  occ. eigenvalues --  -10.32495 -10.29249 -10.28949 -10.27881 -10.22745
 Alpha  occ. eigenvalues --  -10.22738 -10.22040 -10.21984 -10.21531 -10.21421
 Alpha  occ. eigenvalues --  -10.21379 -10.20785  -1.12629  -1.09989  -1.07765
 Alpha  occ. eigenvalues --   -1.06952  -1.04169  -0.90198  -0.84855  -0.80046
 Alpha  occ. eigenvalues --   -0.79040  -0.74077  -0.70833  -0.67503  -0.65986
 Alpha  occ. eigenvalues --   -0.62362  -0.59761  -0.56794  -0.55125  -0.53444
 Alpha  occ. eigenvalues --   -0.52115  -0.50526  -0.49860  -0.49663  -0.48568
 Alpha  occ. eigenvalues --   -0.46686  -0.46628  -0.45702  -0.44074  -0.43764
 Alpha  occ. eigenvalues --   -0.43547  -0.42124  -0.41875  -0.41170  -0.40091
 Alpha  occ. eigenvalues --   -0.39082  -0.37287  -0.37080  -0.32456  -0.31361
 Alpha  occ. eigenvalues --   -0.30676  -0.29408  -0.29187  -0.27862  -0.26144
 Alpha virt. eigenvalues --   -0.13183  -0.06142  -0.04500  -0.01286  -0.00649
 Alpha virt. eigenvalues --   -0.00030   0.00540   0.01497   0.02143   0.02588
 Alpha virt. eigenvalues --    0.02682   0.03092   0.04242   0.04778   0.05023

  Beta  occ. eigenvalues --  -19.18189 -19.18182 -19.14401 -19.13642 -19.13178
  Beta  occ. eigenvalues --  -10.32495 -10.29249 -10.28949 -10.27881 -10.22745
  Beta  occ. eigenvalues --  -10.22738 -10.22040 -10.21984 -10.21531 -10.21421
  Beta  occ. eigenvalues --  -10.21379 -10.20785  -1.12629  -1.09989  -1.07765
  Beta  occ. eigenvalues --   -1.06952  -1.04169  -0.90198  -0.84855  -0.80046
  Beta  occ. eigenvalues --   -0.79040  -0.74077  -0.70833  -0.67503  -0.65986
  Beta  occ. eigenvalues --   -0.62362  -0.59761  -0.56794  -0.55125  -0.53444
  Beta  occ. eigenvalues --   -0.52115  -0.50526  -0.49860  -0.49663  -0.48568
  Beta  occ. eigenvalues --   -0.46686  -0.46628  -0.45702  -0.44074  -0.43764
  Beta  occ. eigenvalues --   -0.43547  -0.42124  -0.41875  -0.41170  -0.40091
  Beta  occ. eigenvalues --   -0.39082  -0.37287  -0.37080  -0.32456  -0.31361
  Beta  occ. eigenvalues --   -0.30676  -0.29408  -0.29187  -0.27862  -0.26144
  Beta virt. eigenvalues --   -0.13183  -0.06142  -0.04500  -0.01286  -0.00649
  Beta virt. eigenvalues --   -0.00030   0.00540   0.01497   0.02143   0.02588
  Beta virt. eigenvalues --    0.02682   0.03092   0.04242   0.04778   0.05023

 Mulliken charges and spin densities:
               1          2
     1  C    0.166394   0.000000
     2  C    0.014546  -0.000000
     3  C   -0.313612  -0.000000
     4  C   -0.019546   0.000000
     5  C    0.696833  -0.000000
     6  C    0.689487   0.000000
     7  C   -0.364195  -0.000000
     8  C   -0.153053  -0.000000
     9  C   -0.150272   0.000000
    10  C   -0.610456   0.000000
    11  O   -0.287639  -0.000000
    12  O   -0.233841  -0.000000
    13  O   -0.203459   0.000000
    14  H    0.218018   0.000000
    15  H    0.238579   0.000000
    16  C   -0.493876   0.000000
    17  O   -0.239638   0.000000
    18  O    0.007841  -0.000000
    19  C   -0.248149   0.000000
    20  H    0.199845  -0.000000
    21  H    0.234957   0.000000
    22  H    0.312052   0.000000
    23  H    0.175746   0.000000
    24  H    0.188490  -0.000000
    25  H    0.174948   0.000000
 Sum of Mulliken charges =  -0.00000  -0.00000

 Dipole moment (field-independent basis, Debye):
    X=             -0.0600    Y=             -2.8202    Z=              2.6043  Tot=              3.8392
 Quadrupole moment (field-independent basis, Debye-Ang):
   XX=           -110.2252   YY=            -71.6723   ZZ=           -101.8458
   XY=              6.4150   XZ=             11.6316   YZ=             -0.6918

 Normal termination of Gaussian 16 at Sun Jan 21 08:03:10 2024.
