 Q-Chem 5.4, Q-Chem, Inc., Pleasanton, CA (2021)
 Q-Chem 5.4.0 for Intel X86 EM64T Linux

User input:
--------------------------------------------------------------
$molecule
-1 2
N                 -3.4375600000      1.5918770000      0.5957780000
C                 -2.8493550000      0.3475780000      0.3474420000
C                 -3.6699470000     -0.7769370000      0.2891700000
C                 -3.1462810000     -2.0510930000      0.0885550000
C                 -1.7742750000     -2.2659560000     -0.0239760000
N                 -1.3193230000     -3.5656990000     -0.2683530000
C                 -0.8862540000     -1.1441600000      0.0600280000
C                  0.5563070000     -1.3446670000      0.0392070000
O                  1.0466000000     -2.5296860000     -0.0182870000
C                  1.4360150000     -0.1846130000      0.0845740000
C                  2.8587470000     -0.3555370000      0.1068870000
N                  3.4611470000     -1.6119240000      0.2285420000
C                  3.6752730000      0.7724370000      0.0593560000
C                  3.1410350000      2.0555840000     -0.0181790000
C                  1.7649240000      2.2738830000     -0.0119820000
N                  1.2958840000      3.5854830000     -0.1366580000
C                  0.8831580000      1.1468550000      0.0667900000
C                 -0.5563200000      1.3447260000      0.1688710000
O                 -1.0466610000      2.5297790000      0.2255100000
C                 -1.4328530000      0.1819710000      0.2058660000
H                 -2.7945520000      2.3594490000      0.4008480000
H                 -4.3711950000      1.6888800000      0.2238420000
H                 -4.7428830000     -0.6476650000      0.4063280000
H                 -3.8166090000     -2.9036380000      0.0146260000
H                 -1.8933370000     -4.2879760000      0.1418660000
H                 -0.3143170000     -3.6493000000     -0.1146430000
H                  4.3630710000     -1.6823440000     -0.2198380000
H                  2.8030240000     -2.3666620000      0.0337930000
H                  4.7536890000      0.6384650000      0.0860220000
H                  3.8058730000      2.9127790000     -0.0877390000
H                  0.3056670000      3.6566680000      0.0979200000
H                  1.9013070000      4.2814430000      0.2738430000
$end

$rem
BASIS  =  6-311++G(d,p)
GUI  =  2
JOB_TYPE  =  SP
METHOD  =  B3LYP
SCF_CONVERGENCE  = 8
SOLVENT_METHOD = sm12
$end

$smx
solvent dimethylformamide
charges CM5
$end

--------------------------------------------------------------

             Standard Nuclear Orientation (Angstroms)
    I     Atom           X                Y                Z
 ----------------------------------------------------------------
    1      N      -3.4375600000     1.5918770000     0.5957780000
    2      C      -2.8493550000     0.3475780000     0.3474420000
    3      C      -3.6699470000    -0.7769370000     0.2891700000
    4      C      -3.1462810000    -2.0510930000     0.0885550000
    5      C      -1.7742750000    -2.2659560000    -0.0239760000
    6      N      -1.3193230000    -3.5656990000    -0.2683530000
    7      C      -0.8862540000    -1.1441600000     0.0600280000
    8      C       0.5563070000    -1.3446670000     0.0392070000
    9      O       1.0466000000    -2.5296860000    -0.0182870000
   10      C       1.4360150000    -0.1846130000     0.0845740000
   11      C       2.8587470000    -0.3555370000     0.1068870000
   12      N       3.4611470000    -1.6119240000     0.2285420000
   13      C       3.6752730000     0.7724370000     0.0593560000
   14      C       3.1410350000     2.0555840000    -0.0181790000
   15      C       1.7649240000     2.2738830000    -0.0119820000
   16      N       1.2958840000     3.5854830000    -0.1366580000
   17      C       0.8831580000     1.1468550000     0.0667900000
   18      C      -0.5563200000     1.3447260000     0.1688710000
   19      O      -1.0466610000     2.5297790000     0.2255100000
   20      C      -1.4328530000     0.1819710000     0.2058660000
   21      H      -2.7945520000     2.3594490000     0.4008480000
   22      H      -4.3711950000     1.6888800000     0.2238420000
   23      H      -4.7428830000    -0.6476650000     0.4063280000
   24      H      -3.8166090000    -2.9036380000     0.0146260000
   25      H      -1.8933370000    -4.2879760000     0.1418660000
   26      H      -0.3143170000    -3.6493000000    -0.1146430000
   27      H       4.3630710000    -1.6823440000    -0.2198380000
   28      H       2.8030240000    -2.3666620000     0.0337930000
   29      H       4.7536890000     0.6384650000     0.0860220000
   30      H       3.8058730000     2.9127790000    -0.0877390000
   31      H       0.3056670000     3.6566680000     0.0979200000
   32      H       1.9013070000     4.2814430000     0.2738430000
 ----------------------------------------------------------------

   16    -910.5225721643      8.52e-09  Convergence criterion met
 Total energy in the final basis set =     -910.6147789206

                    Orbital Energies (a.u.)
 --------------------------------------------------------------

 Alpha MOs
 -- Occupied --
-19.0776 -19.0776 -14.3025 -14.3025 -14.3024 -14.3024 -10.2314 -10.2313
-10.2120 -10.2120 -10.2120 -10.2119 -10.1775 -10.1775 -10.1772 -10.1771
-10.1714 -10.1714 -10.1709 -10.1708  -1.0062  -1.0040  -0.9171  -0.9106
 -0.9063  -0.9002  -0.8362  -0.8172  -0.7832  -0.7444  -0.7255  -0.7100
 -0.6665  -0.6400  -0.6378  -0.5839  -0.5627  -0.5618  -0.5389  -0.5189
 -0.5117  -0.4986  -0.4819  -0.4815  -0.4781  -0.4652  -0.4512  -0.4417
 -0.4374  -0.4289  -0.4126  -0.4084  -0.3954  -0.3923  -0.3899  -0.3842
 -0.3750  -0.3723  -0.3579  -0.3568  -0.3404  -0.3292  -0.2838  -0.2681
 -0.2630  -0.2525  -0.2485  -0.2379  -0.2061  -0.1867  -0.1324

 Beta MOs
 -- Occupied --
-19.0733 -19.0733 -14.3019 -14.3019 -14.3019 -14.3018 -10.2296 -10.2296
-10.2117 -10.2117 -10.2117 -10.2116 -10.1774 -10.1774 -10.1771 -10.1770
-10.1703 -10.1703 -10.1698 -10.1697  -0.9989  -0.9966  -0.9158  -0.9087
 -0.9051  -0.8987  -0.8340  -0.8155  -0.7795  -0.7429  -0.7221  -0.7080
 -0.6607  -0.6378  -0.6358  -0.5828  -0.5604  -0.5601  -0.5383  -0.5182
 -0.5108  -0.4972  -0.4810  -0.4804  -0.4754  -0.4643  -0.4500  -0.4405
 -0.4361  -0.4210  -0.4117  -0.4041  -0.3940  -0.3887  -0.3881  -0.3737
 -0.3712  -0.3697  -0.3560  -0.3452  -0.3369  -0.3192  -0.2745  -0.2629
 -0.2497  -0.2490  -0.2446  -0.2340  -0.1938  -0.1793

          Ground-State Mulliken Net Atomic Charges

     Atom                 Charge (a.u.)    Spin (a.u.)
  --------------------------------------------------------
      1 N                    -0.275071       0.023516
      2 C                    -0.384769       0.041614
      3 C                     1.235882       0.087276
      4 C                     1.227079       0.087345
      5 C                    -0.381904       0.041603
      6 N                    -0.275569       0.023566
      7 C                    -0.552289      -0.005809
      8 C                    -2.192038       0.074233
      9 O                    -0.293684       0.153389
     10 C                    -0.562492      -0.005969
     11 C                    -0.376468       0.041825
     12 N                    -0.276437       0.023595
     13 C                     1.244200       0.087040
     14 C                     1.234498       0.087308
     15 C                    -0.372630       0.041812
     16 N                    -0.275968       0.023640
     17 C                    -0.554797      -0.006328
     18 C                    -2.196389       0.074443
     19 O                    -0.292472       0.153413
     20 C                    -0.565369      -0.005766
     21 H                     0.295025      -0.002542
     22 H                     0.365798      -0.001252
     23 H                     0.310252      -0.006658
     24 H                     0.310317      -0.006669
     25 H                     0.365915      -0.001238
     26 H                     0.295393      -0.002540
     27 H                     0.365863      -0.001239
     28 H                     0.295373      -0.002539
     29 H                     0.310941      -0.006644
     30 H                     0.310571      -0.006631
     31 H                     0.295188      -0.002560
     32 H                     0.366053      -0.001234
  --------------------------------------------------------
  Sum of atomic charges =    -1.000000

                    Cartesian Multipole Moments
 -----------------------------------------------------------------
    Charge (ESU x 10^10)
                -4.8032
    Dipole Moment (Debye)
         X       0.0101      Y       0.0062      Z      -0.4981
       Tot       0.4983
    Quadrupole Moments (Debye-Ang)
        XX    -122.9960     XY       5.7761     YY    -134.5114
        XZ      -0.1344     YZ      -0.3389     ZZ    -131.0737

 Total job time:  1021.07s(wall), 7777.21s(cpu)
        *  Thank you very much for using Q-Chem.  Have a nice day.  *
