 Q-Chem 5.4, Q-Chem, Inc., Pleasanton, CA (2021)
 Q-Chem 5.4.0 for Intel X86 EM64T Linux

User input:
--------------------------------------------------------------
$molecule
-2 1
O                  3.3774340000      2.7276870000      1.0856770000
C                  3.0325240000      1.5449610000      0.7611040000
C                  4.0027210000      0.4863900000      0.5244950000
C                  5.3829330000      0.7704080000      0.6521740000
C                  6.3519320000     -0.1899390000      0.4375440000
C                  5.9642560000     -1.5080800000      0.0761230000
C                  4.6251940000     -1.8158260000     -0.0547420000
C                  3.6079350000     -0.8532600000      0.1604370000
C                  2.2166310000     -1.2446830000      0.0058750000
O                  1.8716330000     -2.4299380000     -0.3149110000
C                  1.2489350000     -0.1852470000      0.2408260000
C                 -0.1320620000     -0.4768290000      0.0918240000
C                 -1.1205730000      0.4685570000      0.3081940000
C                 -0.7177370000      1.7872860000      0.6849750000
C                  0.6170330000      2.0972370000      0.8181200000
C                  1.6436170000      1.1481750000      0.6022280000
N                 -2.5160230000      0.1832540000      0.2182740000
C                 -2.9365650000     -1.2062470000      0.1074020000
C                 -4.3724610000     -1.3813910000      0.6537070000
C                 -5.2325010000     -0.1211910000      0.4296150000
C                 -4.7450140000      0.6073530000     -0.8210630000
C                 -3.2946500000      1.0940200000     -0.6366780000
H                  5.6458970000      1.7867020000      0.9281710000
H                  7.4055570000      0.0596470000      0.5436480000
H                  6.7209580000     -2.2709310000     -0.0954400000
H                  4.2985540000     -2.8137650000     -0.3291470000
H                 -0.3623900000     -1.4917440000     -0.2072000000
H                 -1.4697570000      2.5428720000      0.8880450000
H                  0.9274790000      3.0957060000      1.1089010000
H                 -2.8780560000     -1.5722390000     -0.9352890000
H                 -2.2468550000     -1.8208690000      0.6842340000
H                 -4.3348720000     -1.6183080000      1.7222120000
H                 -4.8364700000     -2.2426320000      0.1548710000
H                 -6.2949960000     -0.3822920000      0.3494230000
H                 -5.1385570000      0.5487140000      1.2910560000
H                 -4.8077070000     -0.0753520000     -1.6774740000
H                 -5.3882400000      1.4588840000     -1.0683210000
H                 -3.3035280000      2.0847010000     -0.1740120000
H                 -2.8122090000      1.2082080000     -1.6249910000
$end
$rem
MAX_SCF_CYCLES=200
BASIS  =  6-311++G(d,p)
GUI  =  2
JOB_TYPE  =  SP
METHOD  =  B3LYP
SOLVENT_METHOD = PCM
$end
$pcm
theory = CPCM
$end
$solvent
dielectric 37.219
opticaldielectric 1.43
$end

--------------------------------------------------------------

             Standard Nuclear Orientation (Angstroms)
    I     Atom           X                Y                Z
 ----------------------------------------------------------------
    1      O       3.3774340000     2.7276870000     1.0856770000
    2      C       3.0325240000     1.5449610000     0.7611040000
    3      C       4.0027210000     0.4863900000     0.5244950000
    4      C       5.3829330000     0.7704080000     0.6521740000
    5      C       6.3519320000    -0.1899390000     0.4375440000
    6      C       5.9642560000    -1.5080800000     0.0761230000
    7      C       4.6251940000    -1.8158260000    -0.0547420000
    8      C       3.6079350000    -0.8532600000     0.1604370000
    9      C       2.2166310000    -1.2446830000     0.0058750000
   10      O       1.8716330000    -2.4299380000    -0.3149110000
   11      C       1.2489350000    -0.1852470000     0.2408260000
   12      C      -0.1320620000    -0.4768290000     0.0918240000
   13      C      -1.1205730000     0.4685570000     0.3081940000
   14      C      -0.7177370000     1.7872860000     0.6849750000
   15      C       0.6170330000     2.0972370000     0.8181200000
   16      C       1.6436170000     1.1481750000     0.6022280000
   17      N      -2.5160230000     0.1832540000     0.2182740000
   18      C      -2.9365650000    -1.2062470000     0.1074020000
   19      C      -4.3724610000    -1.3813910000     0.6537070000
   20      C      -5.2325010000    -0.1211910000     0.4296150000
   21      C      -4.7450140000     0.6073530000    -0.8210630000
   22      C      -3.2946500000     1.0940200000    -0.6366780000
   23      H       5.6458970000     1.7867020000     0.9281710000
   24      H       7.4055570000     0.0596470000     0.5436480000
   25      H       6.7209580000    -2.2709310000    -0.0954400000
   26      H       4.2985540000    -2.8137650000    -0.3291470000
   27      H      -0.3623900000    -1.4917440000    -0.2072000000
   28      H      -1.4697570000     2.5428720000     0.8880450000
   29      H       0.9274790000     3.0957060000     1.1089010000
   30      H      -2.8780560000    -1.5722390000    -0.9352890000
   31      H      -2.2468550000    -1.8208690000     0.6842340000
   32      H      -4.3348720000    -1.6183080000     1.7222120000
   33      H      -4.8364700000    -2.2426320000     0.1548710000
   34      H      -6.2949960000    -0.3822920000     0.3494230000
   35      H      -5.1385570000     0.5487140000     1.2910560000
   36      H      -4.8077070000    -0.0753520000    -1.6774740000
   37      H      -5.3882400000     1.4588840000    -1.0683210000
   38      H      -3.3035280000     2.0847010000    -0.1740120000
   39      H      -2.8122090000     1.2082080000    -1.6249910000
 ----------------------------------------------------------------

    9    -939.9557921675      9.23e-06  Convergence criterion met
 Total energy in the final basis set =     -939.9557921675

                    Orbital Energies (a.u.)
 --------------------------------------------------------------

 Alpha MOs
 -- Occupied --
-19.0234 -19.0196 -14.3035 -10.1850 -10.1841 -10.1817 -10.1747 -10.1696
-10.1578 -10.1558 -10.1554 -10.1470 -10.1469 -10.1457 -10.1456 -10.1447
-10.1437 -10.1366 -10.1334 -10.1329 -10.1324 -10.1313  -0.9469  -0.9420
 -0.9255  -0.8260  -0.8197  -0.7842  -0.7465  -0.7424  -0.7212  -0.7186
 -0.7034  -0.6442  -0.6322  -0.6176  -0.6005  -0.5801  -0.5585  -0.5305
 -0.5257  -0.5083  -0.5009  -0.4817  -0.4672  -0.4518  -0.4364  -0.4281
 -0.4221  -0.4148  -0.4040  -0.4008  -0.3978  -0.3925  -0.3810  -0.3763
 -0.3722  -0.3674  -0.3663  -0.3568  -0.3498  -0.3416  -0.3290  -0.3270
 -0.3225  -0.3181  -0.3082  -0.3073  -0.3023  -0.2977  -0.2470  -0.2318
 -0.2251  -0.2207  -0.2054  -0.1966  -0.1847  -0.1014

          Ground-State Mulliken Net Atomic Charges

     Atom                 Charge (a.u.)
  ----------------------------------------
      1 O                    -0.669748
      2 C                    -0.594976
      3 C                     0.107496
      4 C                     0.013091
      5 C                    -0.521740
      6 C                    -0.540047
      7 C                    -0.037456
      8 C                     0.367518
      9 C                    -0.595947
     10 O                    -0.687668
     11 C                     0.342589
     12 C                    -0.109538
     13 C                    -0.381027
     14 C                    -0.144050
     15 C                    -0.019403
     16 C                     0.087734
     17 N                     0.255632
     18 C                    -0.163903
     19 C                    -0.462499
     20 C                    -0.295007
     21 C                    -0.451514
     22 C                    -0.176267
     23 H                     0.142341
     24 H                     0.168396
     25 H                     0.170636
     26 H                     0.140316
     27 H                     0.141073
     28 H                     0.190231
     29 H                     0.157086
     30 H                     0.154358
     31 H                     0.154579
     32 H                     0.156473
     33 H                     0.147088
     34 H                     0.183811
     35 H                     0.146260
     36 H                     0.157694
     37 H                     0.179767
     38 H                     0.137608
     39 H                     0.148990
  ----------------------------------------
  Sum of atomic charges =    -2.000021

                    Cartesian Multipole Moments
 -----------------------------------------------------------------
    Charge (ESU x 10^10)
                -9.6065
    Dipole Moment (Debye)
         X     -27.0435      Y      -1.1540      Z      -4.2715
       Tot      27.4031
    Quadrupole Moments (Debye-Ang)
        XX    -222.9793     XY     -12.3447     YY    -185.8269
        XZ     -10.2679     YZ     -12.6685     ZZ    -148.8336

 Total job time:  129.45s(wall), 746.74s(cpu)
        *  Thank you very much for using Q-Chem.  Have a nice day.  *
