 Gaussian 16, Revision A.03,
 Gaussian 16:  ES64L-G16RevA.03 25-Dec-2016

 ----------------------------------------------------------------
 #P UB3LYP/6-311++G(d,p) SCRF=(PCM,Solvent=n,n-DiMethylFormamide)
 ----------------------------------------------------------------

 ------------------
 Radical PCM in DMF
 ------------------
 Symbolic Z-matrix:
 Charge = -1 Multiplicity = 2

                         Standard orientation:
 ---------------------------------------------------------------------
 Center     Atomic      Atomic             Coordinates (Angstroms)
 Number     Number       Type             X           Y           Z
 ---------------------------------------------------------------------
      1          6           0       12.488735    1.256480    1.277159
      2          6           0       13.016507    2.373787    0.657112
      3          6           0       12.373738    2.925177   -0.469771
      4          6           0       11.306499    0.652919    0.796327
      5          6           0       10.655263    1.208914   -0.342157
      6          6           0       11.212276    2.345361   -0.954090
      7          6           0       10.754734   -0.517023    1.446145
      8          6           0        9.542299   -1.062889    0.881180
      9          6           0        8.890950   -0.555113   -0.223059
     10          6           0        9.413942    0.619148   -0.887619
     11          8           0       11.254011   -1.093868    2.467711
     12          8           0        8.844304    1.123411   -1.890656
     13          8           0        9.079390   -2.161140    1.546795
     14          6           0        7.626706   -1.182314   -0.751152
     15          6           0        6.346892   -0.525206   -0.199335
     16          6           0        5.061970   -1.142115   -0.762373
     17          6           0        3.781410   -0.496441   -0.220748
     18          6           0        2.492368   -1.109270   -0.780636
     19          6           0        1.214657   -0.458634   -0.238115
     20          6           0       -0.075909   -1.069100   -0.796549
     21          6           0       -1.349546   -0.412758   -0.250917
     22          6           0       -2.640033   -1.027053   -0.809968
     23          6           0       -3.895130   -0.355816   -0.251253
     24         16           0       -5.414184   -1.124915   -0.944899
     25          6           0       -6.691233   -0.116669   -0.092706
     26          6           0       -8.094994   -0.562887   -0.502847
     27          6           0       -9.198170    0.251136    0.185905
     28          6           0      -10.612265   -0.184856   -0.214744
     29          6           0      -11.719918    0.623250    0.470537
     30          6           0      -13.134481    0.187983    0.071332
     31          6           0      -14.242704    0.995143    0.756993
     32          6           0      -15.657332    0.560047    0.358543
     33          6           0      -16.766434    1.366346    1.043872
     34          6           0      -18.175956    0.924164    0.639605
     35          1           0       12.964905    0.814228    2.145030
     36          1           0       13.926918    2.827757    1.037926
     37          1           0       12.788991    3.802791   -0.956280
     38          1           0       10.696566    2.748755   -1.818244
     39          1           0        9.753329   -2.266764    2.254528
     40          1           0        7.616247   -2.249132   -0.505064
     41          1           0        7.624352   -1.080387   -1.841187
     42          1           0        6.376302    0.543385   -0.437549
     43          1           0        6.344737   -0.609500    0.894095
     44          1           0        5.046195   -2.217637   -0.538070
     45          1           0        5.072776   -1.058833   -1.857352
     46          1           0        3.797996    0.577922   -0.445825
     47          1           0        3.772715   -0.576265    0.874402
     48          1           0        2.474634   -2.183763   -0.554670
     49          1           0        2.500824   -1.030223   -1.875777
     50          1           0        1.233281    0.615562   -0.464207
     51          1           0        1.206820   -0.537110    0.857017
     52          1           0       -0.096809   -2.142829   -0.569213
     53          1           0       -0.069555   -0.990695   -1.891411
     54          1           0       -1.329282    0.660369   -0.480332
     55          1           0       -1.355201   -0.490752    0.843890
     56          1           0       -2.666460   -2.097448   -0.576703
     57          1           0       -2.640581   -0.945411   -1.902741
     58          1           0       -3.900709    0.709150   -0.501481
     59          1           0       -3.925001   -0.451428    0.838149
     60          1           0       -6.535776    0.935213   -0.350833
     61          1           0       -6.558219   -0.225129    0.987948
     62          1           0       -8.221185   -1.624915   -0.263751
     63          1           0       -8.199712   -0.473832   -1.590085
     64          1           0       -9.066913    1.314724   -0.050868
     65          1           0       -9.087890    0.164657    1.274429
     66          1           0      -10.742271   -1.249070    0.020279
     67          1           0      -10.721976   -0.098909   -1.303439
     68          1           0      -11.589398    1.687596    0.235493
     69          1           0      -11.609189    0.537583    1.559355
     70          1           0      -13.264665   -0.876516    0.305820
     71          1           0      -13.245351    0.273973   -1.017428
     72          1           0      -14.112580    2.059678    0.522350
     73          1           0      -14.131527    0.909281    1.845797
     74          1           0      -15.788482   -0.504550    0.593010
     75          1           0      -15.769715    0.646027   -0.730270
     76          1           0      -16.636345    2.429926    0.809184
     77          1           0      -16.654949    1.280222    2.131697
     78          1           0      -18.330099    1.031892   -0.438852
     79          1           0      -18.942657    1.518134    1.145228
     80          1           0      -18.348842   -0.126567    0.893589
 ---------------------------------------------------------------------

 SCF Done:  E(UB3LYP) =  -1795.37548715     A.U. after   20 cycles

 The electronic state is 2-A.
 Alpha  occ. eigenvalues --  -88.83656 -19.14250 -19.08511 -19.07303 -10.22211
 Alpha  occ. eigenvalues --  -10.22032 -10.21980 -10.19488 -10.19487 -10.17399
 Alpha  occ. eigenvalues --  -10.17253 -10.17178 -10.17141 -10.17061 -10.17023
 Alpha  occ. eigenvalues --  -10.17008 -10.16911 -10.16430 -10.16395 -10.16137
 Alpha  occ. eigenvalues --  -10.16120 -10.16102 -10.16050 -10.15970 -10.15915
 Alpha  occ. eigenvalues --  -10.15892 -10.15889 -10.15871 -10.15803 -10.15728
 Alpha  occ. eigenvalues --  -10.15725 -10.15650 -10.15588 -10.15483  -7.92285
 Alpha  occ. eigenvalues --   -5.88669  -5.88328  -5.87659  -1.06241  -0.99845
 Alpha  occ. eigenvalues --   -0.99492  -0.85794  -0.82443  -0.81489  -0.81206
 Alpha  occ. eigenvalues --   -0.80547  -0.79733  -0.78534  -0.77433  -0.75977
 Alpha  occ. eigenvalues --   -0.75058  -0.74629  -0.73088  -0.71324  -0.69499
 Alpha  occ. eigenvalues --   -0.67755  -0.66377  -0.64636  -0.62789  -0.61638
 Alpha  occ. eigenvalues --   -0.60614  -0.59200  -0.58270  -0.58161  -0.57867
 Alpha  occ. eigenvalues --   -0.57389  -0.57245  -0.57158  -0.57006  -0.56667
 Alpha  occ. eigenvalues --   -0.53604  -0.50363  -0.48905  -0.48672  -0.48338
 Alpha  occ. eigenvalues --   -0.47643  -0.47281  -0.46106  -0.45487  -0.45242
 Alpha  occ. eigenvalues --   -0.44759  -0.44141  -0.43623  -0.43319  -0.42834
 Alpha  occ. eigenvalues --   -0.42683  -0.42652  -0.42372  -0.42092  -0.41713
 Alpha  occ. eigenvalues --   -0.41433  -0.40576  -0.40279  -0.39931  -0.39544
 Alpha  occ. eigenvalues --   -0.39449  -0.38725  -0.38641  -0.38361  -0.37714
 Alpha  occ. eigenvalues --   -0.37357  -0.36811  -0.36615  -0.36352  -0.35890
 Alpha  occ. eigenvalues --   -0.35474  -0.34958  -0.34454  -0.34324  -0.34189
 Alpha  occ. eigenvalues --   -0.34139  -0.33738  -0.33613  -0.33164  -0.32998
 Alpha  occ. eigenvalues --   -0.32783  -0.32665  -0.32523  -0.32314  -0.32121
 Alpha  occ. eigenvalues --   -0.32103  -0.31943  -0.31936  -0.31691  -0.31234
 Alpha  occ. eigenvalues --   -0.30276  -0.29476  -0.26646  -0.25893  -0.25733
 Alpha  occ. eigenvalues --   -0.23825  -0.22691  -0.22672  -0.15005
 Alpha virt. eigenvalues --   -0.03230  -0.00782  -0.00573  -0.00419  -0.00218
 Alpha virt. eigenvalues --    0.00126   0.00446   0.00590   0.00808   0.00844
 Alpha virt. eigenvalues --    0.00981   0.01171   0.01324   0.01517   0.01679

  Beta  occ. eigenvalues --  -88.83656 -19.14204 -19.07883 -19.06770 -10.22078
  Beta  occ. eigenvalues --  -10.21930 -10.21696 -10.19488 -10.19487 -10.17383
  Beta  occ. eigenvalues --  -10.17248 -10.17069 -10.17052 -10.17023 -10.17010
  Beta  occ. eigenvalues --  -10.17008 -10.16936 -10.16430 -10.16395 -10.16120
  Beta  occ. eigenvalues --  -10.16102 -10.16057 -10.16050 -10.15970 -10.15915
  Beta  occ. eigenvalues --  -10.15892 -10.15889 -10.15871 -10.15802 -10.15732
  Beta  occ. eigenvalues --  -10.15728 -10.15649 -10.15579 -10.15483  -7.92285
  Beta  occ. eigenvalues --   -5.88669  -5.88328  -5.87659  -1.06027  -0.98916
  Beta  occ. eigenvalues --   -0.98429  -0.85559  -0.82442  -0.81439  -0.81078
  Beta  occ. eigenvalues --   -0.80482  -0.79660  -0.78477  -0.77363  -0.75898
  Beta  occ. eigenvalues --   -0.74842  -0.74574  -0.73040  -0.71275  -0.69396
  Beta  occ. eigenvalues --   -0.67467  -0.65923  -0.64511  -0.62731  -0.61493
  Beta  occ. eigenvalues --   -0.60514  -0.59105  -0.58269  -0.58143  -0.57816
  Beta  occ. eigenvalues --   -0.57388  -0.57220  -0.57152  -0.56952  -0.56472
  Beta  occ. eigenvalues --   -0.53431  -0.50135  -0.48903  -0.48661  -0.48129
  Beta  occ. eigenvalues --   -0.47622  -0.47214  -0.45994  -0.45474  -0.45152
  Beta  occ. eigenvalues --   -0.44725  -0.44129  -0.43314  -0.42960  -0.42809
  Beta  occ. eigenvalues --   -0.42579  -0.42464  -0.42341  -0.41908  -0.41490
  Beta  occ. eigenvalues --   -0.41011  -0.40416  -0.40137  -0.39829  -0.39488
  Beta  occ. eigenvalues --   -0.39293  -0.38601  -0.38305  -0.37714  -0.37558
  Beta  occ. eigenvalues --   -0.37169  -0.36615  -0.36562  -0.36082  -0.35766
  Beta  occ. eigenvalues --   -0.34964  -0.34682  -0.34424  -0.34200  -0.34035
  Beta  occ. eigenvalues --   -0.33713  -0.33518  -0.33121  -0.32949  -0.32799
  Beta  occ. eigenvalues --   -0.32754  -0.32619  -0.32427  -0.32314  -0.32121
  Beta  occ. eigenvalues --   -0.32089  -0.31943  -0.31914  -0.31645  -0.31225
  Beta  occ. eigenvalues --   -0.30242  -0.29457  -0.25342  -0.25027  -0.24681
  Beta  occ. eigenvalues --   -0.23322  -0.22691  -0.21776
  Beta virt. eigenvalues --   -0.08475  -0.02476  -0.00581  -0.00434  -0.00214
  Beta virt. eigenvalues --    0.00123   0.00318   0.00461   0.00619   0.00811
  Beta virt. eigenvalues --    0.00849   0.00987   0.01173   0.01329   0.01524

 Mulliken charges and spin densities:
               1          2
     1  C    0.045950   0.074092
     2  C   -0.379237  -0.001090
     3  C   -0.445739   0.072712
     4  C    0.473769  -0.002656
     5  C   -0.085413   0.061888
     6  C    0.091413   0.002555
     7  C   -0.911170   0.166682
     8  C   -0.612031   0.057524
     9  C    1.985454   0.054879
    10  C   -0.739104   0.074354
    11  O   -0.524651   0.229573
    12  O   -0.454446   0.198070
    13  O   -0.284463   0.015952
    14  C   -0.363968   0.012052
    15  C   -0.723933  -0.002017
    16  C   -0.279200   0.001411
    17  C   -0.075554  -0.003735
    18  C   -0.105268  -0.001094
    19  C   -0.255213  -0.000052
    20  C   -0.117747   0.000307
    21  C   -0.310378  -0.000018
    22  C   -0.238835   0.000012
    23  C   -0.762907   0.000012
    24  S   -0.413264   0.000003
    25  C   -0.730677   0.000008
    26  C    0.002443  -0.000005
    27  C    0.026624  -0.000004
    28  C    0.024297  -0.000001
    29  C    0.032228   0.000001
    30  C    0.002788  -0.000000
    31  C   -0.262297   0.000000
    32  C   -0.453512  -0.000000
    33  C   -0.273239  -0.000000
    34  C   -0.689451  -0.000000
    35  H    0.166332  -0.004079
    36  H    0.182702  -0.000641
    37  H    0.178327  -0.005189
    38  H    0.166805  -0.000284
    39  H    0.290117  -0.003706
    40  H    0.216047  -0.000564
    41  H    0.199769   0.002578
    42  H    0.177511  -0.001691
    43  H    0.166291   0.002120
    44  H    0.111711  -0.000390
    45  H    0.115089   0.000519
    46  H    0.124440  -0.000039
    47  H    0.124566  -0.000035
    48  H    0.131441  -0.000008
    49  H    0.132037   0.000002
    50  H    0.130127   0.000004
    51  H    0.130200  -0.000005
    52  H    0.132599  -0.000011
    53  H    0.132416   0.000005
    54  H    0.139212  -0.000001
    55  H    0.138708   0.000001
    56  H    0.128760   0.000003
    57  H    0.129331  -0.000002
    58  H    0.181939  -0.000001
    59  H    0.181980   0.000001
    60  H    0.192007   0.000000
    61  H    0.192028  -0.000000
    62  H    0.132887  -0.000000
    63  H    0.133242  -0.000000
    64  H    0.137881  -0.000000
    65  H    0.137777   0.000000
    66  H    0.132619   0.000000
    67  H    0.132781   0.000000
    68  H    0.128764  -0.000000
    69  H    0.128684  -0.000000
    70  H    0.128195  -0.000000
    71  H    0.128278  -0.000000
    72  H    0.127722  -0.000000
    73  H    0.127690   0.000000
    74  H    0.124040   0.000000
    75  H    0.124121   0.000000
    76  H    0.131059   0.000000
    77  H    0.131064  -0.000000
    78  H    0.139939  -0.000000
    79  H    0.147561   0.000000
    80  H    0.139935  -0.000000
 Sum of Mulliken charges =  -1.00000   1.00000

 Dipole moment (field-independent basis, Debye):
    X=            -47.1101    Y=              2.1198    Z=              0.5928  Tot=             47.1615
 Quadrupole moment (field-independent basis, Debye-Ang):
   XX=           -700.9087   YY=           -236.5940   ZZ=           -249.1709
   XY=             -2.1852   XZ=            -28.7264   YZ=              5.6049

 Normal termination of Gaussian 16 at Thu Jan 25 06:02:50 2024.
