 Gaussian 16, Revision A.03,
 Gaussian 16:  ES64L-G16RevA.03 25-Dec-2016

 ----------------------------------------------------------------------
 #P UB3LYP/6-311++G(d,p) nosym opt freq SCRF=(PCM,Solvent=n,n-DiMethylF
 ormamide)
 ----------------------------------------------------------------------

 --------
 Oxidized
 --------
 Symbolic Z-matrix:
 Charge =  0 Multiplicity = 1

 SCF Done:  E(UB3LYP) =  -690.145772188     A.U. after   14 cycles
 SCF Done:  E(UB3LYP) =  -690.146002834     A.U. after   15 cycles
 SCF Done:  E(UB3LYP) =  -690.145600627     A.U. after   14 cycles
 SCF Done:  E(UB3LYP) =  -690.146329785     A.U. after   15 cycles
 SCF Done:  E(UB3LYP) =  -690.146335912     A.U. after   11 cycles
 SCF Done:  E(UB3LYP) =  -690.146332246     A.U. after   11 cycles
 SCF Done:  E(UB3LYP) =  -690.146335693     A.U. after   11 cycles
 SCF Done:  E(UB3LYP) =  -690.146336748     A.U. after   10 cycles
 SCF Done:  E(UB3LYP) =  -690.146337273     A.U. after   10 cycles
 SCF Done:  E(UB3LYP) =  -690.146337352     A.U. after    9 cycles
 SCF Done:  E(UB3LYP) =  -690.146337375     A.U. after    9 cycles
 Optimization completed.
    -- Stationary point found.
 Normal termination of Gaussian 16 at Sun Feb 11 15:55:17 2024.

 ----------------------------------------------------------------------
 #P Geom=AllCheck Guess=TCheck SCRF=Check GenChk UB3LYP/6-311++G(d,p) F
 req
 ----------------------------------------------------------------------

 Structure from the checkpoint file:  "346.chk"
 --------
 Oxidized
 --------
 Charge =  0 Multiplicity = 1

                          Input orientation:
 ---------------------------------------------------------------------
 Center     Atomic      Atomic             Coordinates (Angstroms)
 Number     Number       Type             X           Y           Z
 ---------------------------------------------------------------------
      1          8           0       -0.174328    0.287358    2.374698
      2          6           0       -0.495481    0.472171    1.211027
      3          6           0       -1.788638    0.043299    0.634345
      4          6           0       -2.733681   -0.573559    1.470317
      5          6           0       -3.944857   -1.009916    0.950665
      6          6           0       -4.222732   -0.840237   -0.409074
      7          6           0       -3.287718   -0.233100   -1.247228
      8          6           0       -2.073990    0.209952   -0.729272
      9          6           0        0.487482    1.290243    0.347529
     10          8           0        0.161776    2.439034    0.091426
     11          6           0        1.785403    0.695081   -0.039672
     12          6           0        2.728705    1.496209   -0.703621
     13          6           0        3.944219    0.956962   -1.102511
     14          6           0        4.228233   -0.388180   -0.847900
     15          6           0        3.295060   -1.192011   -0.193374
     16          6           0        2.076985   -0.654035    0.212354
     17          1           0       -2.503050   -0.701329    2.520797
     18          1           0       -4.673796   -1.482462    1.598404
     19          1           0       -5.168354   -1.182647   -0.813622
     20          1           0       -3.504431   -0.103726   -2.300814
     21          1           0       -1.355669    0.684499   -1.386536
     22          1           0        2.493186    2.535474   -0.897179
     23          1           0        4.671771    1.577990   -1.611647
     24          1           0        5.177175   -0.808211   -1.161237
     25          1           0        3.516575   -2.234421    0.001759
     26          1           0        1.360157   -1.284434    0.724149
 ---------------------------------------------------------------------

 SCF Done:  E(UB3LYP) =  -690.146337375     A.U. after    1 cycles

 Alpha  occ. eigenvalues --  -19.14331 -19.14329 -10.28867 -10.28846 -10.20608
 Alpha  occ. eigenvalues --  -10.20608 -10.20174 -10.20173 -10.19825 -10.19823
 Alpha  occ. eigenvalues --  -10.19785 -10.19784 -10.19326 -10.19324 -10.19314
 Alpha  occ. eigenvalues --  -10.19313  -1.08502  -1.06374  -0.88219  -0.88162
 Alpha  occ. eigenvalues --   -0.79204  -0.78293  -0.77043  -0.76985  -0.69914
 Alpha  occ. eigenvalues --   -0.65354  -0.63236  -0.62609  -0.60489  -0.56793
 Alpha  occ. eigenvalues --   -0.54805  -0.51639  -0.50118  -0.48381  -0.48055
 Alpha  occ. eigenvalues --   -0.46942  -0.46211  -0.46062  -0.44863  -0.44439
 Alpha  occ. eigenvalues --   -0.44408  -0.42427  -0.41842  -0.38531  -0.38044
 Alpha  occ. eigenvalues --   -0.37827  -0.37823  -0.36550  -0.36445  -0.32955
 Alpha  occ. eigenvalues --   -0.28559  -0.27799  -0.27740  -0.27726  -0.26039
 Alpha virt. eigenvalues --   -0.09700  -0.08188  -0.03336  -0.03085  -0.00813
 Alpha virt. eigenvalues --    0.00030   0.00202   0.01011   0.01638   0.01743
 Alpha virt. eigenvalues --    0.02061   0.03111   0.03395   0.03656   0.04491

  Beta  occ. eigenvalues --  -19.14331 -19.14329 -10.28867 -10.28846 -10.20608
  Beta  occ. eigenvalues --  -10.20608 -10.20174 -10.20173 -10.19825 -10.19823
  Beta  occ. eigenvalues --  -10.19785 -10.19784 -10.19326 -10.19324 -10.19314
  Beta  occ. eigenvalues --  -10.19313  -1.08502  -1.06374  -0.88219  -0.88162
  Beta  occ. eigenvalues --   -0.79204  -0.78293  -0.77043  -0.76985  -0.69914
  Beta  occ. eigenvalues --   -0.65354  -0.63236  -0.62609  -0.60489  -0.56793
  Beta  occ. eigenvalues --   -0.54805  -0.51639  -0.50118  -0.48381  -0.48055
  Beta  occ. eigenvalues --   -0.46942  -0.46211  -0.46062  -0.44863  -0.44439
  Beta  occ. eigenvalues --   -0.44408  -0.42427  -0.41842  -0.38531  -0.38044
  Beta  occ. eigenvalues --   -0.37827  -0.37823  -0.36550  -0.36445  -0.32955
  Beta  occ. eigenvalues --   -0.28559  -0.27799  -0.27740  -0.27726  -0.26039
  Beta virt. eigenvalues --   -0.09700  -0.08188  -0.03336  -0.03085  -0.00813
  Beta virt. eigenvalues --    0.00030   0.00202   0.01011   0.01638   0.01743
  Beta virt. eigenvalues --    0.02061   0.03111   0.03395   0.03656   0.04491

 Mulliken charges and spin densities:
               1          2
     1  O   -0.259636  -0.000000
     2  C   -0.124446   0.000000
     3  C    1.043718  -0.000000
     4  C    0.381475  -0.000000
     5  C   -0.520564  -0.000000
     6  C   -0.285670   0.000000
     7  C   -0.432108   0.000000
     8  C   -0.817571   0.000000
     9  C   -0.126996  -0.000000
    10  O   -0.259814   0.000000
    11  C    1.045076   0.000000
    12  C    0.379319   0.000000
    13  C   -0.521154   0.000000
    14  C   -0.285564  -0.000000
    15  C   -0.432819  -0.000000
    16  C   -0.815080   0.000000
    17  H    0.212671   0.000000
    18  H    0.208628   0.000000
    19  H    0.191810  -0.000000
    20  H    0.219946   0.000000
    21  H    0.182779   0.000000
    22  H    0.212644   0.000000
    23  H    0.208633   0.000000
    24  H    0.191811  -0.000000
    25  H    0.219971   0.000000
    26  H    0.182943   0.000000
 Sum of Mulliken charges =  -0.00000   0.00000

 Dipole moment (field-independent basis, Debye):
    X=              0.0183    Y=             -4.0543    Z=             -3.8164  Tot=              5.5680
 Quadrupole moment (field-independent basis, Debye-Ang):
   XX=            -63.3611   YY=            -97.5148   ZZ=            -96.5629
   XY=              4.1403   XZ=             -4.2205   YZ=             -4.6178

  Exact polarizability: 290.672  11.045 200.039 -11.269 -17.784 202.215
 Approx polarizability: 316.915   7.460 246.624  -7.551 -26.584 249.905

                      1                      2                      3
                      A                      A                      A
 Frequencies --     21.7667                35.2623                37.6312
 Red. masses --      6.5984                 3.8272                 4.0775
 Frc consts  --      0.0018                 0.0028                 0.0034
 IR Inten    --      4.2443                 0.5077                 1.1422

                      4                      5                      6
                      A                      A                      A
 Frequencies --    121.9319               137.8410               150.1120
 Red. masses --      7.7024                 8.9029                 5.0942
 Frc consts  --      0.0675                 0.0997                 0.0676
 IR Inten    --      1.6682                 4.3421                 0.2946

                      7                      8                      9
                      A                      A                      A
 Frequencies --    156.6414               264.5888               271.0936
 Red. masses --      4.7732                 5.2036                 7.5443
 Frc consts  --      0.0690                 0.2146                 0.3267
 IR Inten    --      0.1707                 0.4014                51.4616

                     10                     11                     12
                      A                      A                      A
 Frequencies --    329.3867               407.8125               408.0825
 Red. masses --     10.5406                 2.9126                 2.8702
 Frc consts  --      0.6738                 0.2854                 0.2816
 IR Inten    --      9.2949                 0.0252                 0.0760

                     13                     14                     15
                      A                      A                      A
 Frequencies --    427.7042               428.0572               464.5832
 Red. masses --      5.0479                 5.2111                 4.6778
 Frc consts  --      0.5441                 0.5626                 0.5949
 IR Inten    --      0.0415                 0.3552                 9.2539

                     16                     17                     18
                      A                      A                      A
 Frequencies --    476.4821               628.0376               628.2471
 Red. masses --      4.7789                 6.4349                 6.4434
 Frc consts  --      0.6392                 1.4954                 1.4984
 IR Inten    --      9.7058                 3.6670                 0.3471

                     19                     20                     21
                      A                      A                      A
 Frequencies --    652.1495               695.2941               695.6739
 Red. masses --      7.7658                 2.0421                 2.0780
 Frc consts  --      1.9459                 0.5817                 0.5925
 IR Inten    --    178.6943                42.3922                46.4942

                     22                     23                     24
                      A                      A                      A
 Frequencies --    710.3112               731.2785               731.7571
 Red. masses --      3.7947                 2.9617                 2.1103
 Frc consts  --      1.1280                 0.9332                 0.6658
 IR Inten    --     42.7494                78.2182                81.9546

                     25                     26                     27
                      A                      A                      A
 Frequencies --    809.0014               811.7994               859.8552
 Red. masses --      3.5560                 2.9524                 1.2557
 Frc consts  --      1.3712                 1.1464                 0.5470
 IR Inten    --     59.0039                 9.2189                 0.2396

                     28                     29                     30
                      A                      A                      A
 Frequencies --    860.1836               887.8228               958.9500
 Red. masses --      1.2550                 4.9900                 1.4063
 Frc consts  --      0.5471                 2.3174                 0.7619
 IR Inten    --      0.1685               129.2122                 1.7730

                     31                     32                     33
                      A                      A                      A
 Frequencies --    962.6250              1004.1055              1004.3508
 Red. masses --      1.5002                 1.3831                 1.3840
 Frc consts  --      0.8191                 0.8216                 0.8225
 IR Inten    --      5.4056                 0.2986                 0.1960

                     34                     35                     36
                      A                      A                      A
 Frequencies --   1013.1074              1013.5225              1022.9343
 Red. masses --      6.1373                 6.1737                 1.3204
 Frc consts  --      3.7114                 3.7365                 0.8140
 IR Inten    --      0.8869                 8.8951                 0.0620

                     37                     38                     39
                      A                      A                      A
 Frequencies --   1023.0220              1037.1414              1043.2731
 Red. masses --      1.3200                 3.4793                 2.1378
 Frc consts  --      0.8140                 2.2051                 1.3709
 IR Inten    --      0.0564                 2.6034                10.6321

                     40                     41                     42
                      A                      A                      A
 Frequencies --   1061.8789              1105.1213              1105.9953
 Red. masses --      2.6979                 1.5590                 1.5815
 Frc consts  --      1.7924                 1.1218                 1.1398
 IR Inten    --      3.5776                17.0855                 0.7219

                     43                     44                     45
                      A                      A                      A
 Frequencies --   1179.7128              1181.2663              1189.6423
 Red. masses --      1.1471                 1.1089                 1.2406
 Frc consts  --      0.9406                 0.9117                 1.0345
 IR Inten    --     48.8704                 2.1618               162.9573

                     46                     47                     48
                      A                      A                      A
 Frequencies --   1198.2022              1226.9842              1308.5273
 Red. masses --      1.1485                 3.0709                 4.2995
 Frc consts  --      0.9715                 2.7240                 4.3375
 IR Inten    --      6.2648               332.2635                66.8218

                     49                     50                     51
                      A                      A                      A
 Frequencies --   1336.4749              1343.4110              1354.2388
 Red. masses --      3.0391                 4.0301                 1.8520
 Frc consts  --      3.1983                 4.2854                 2.0011
 IR Inten    --     20.7086                47.6553                14.5648

                     52                     53                     54
                      A                      A                      A
 Frequencies --   1354.6710              1476.2131              1477.1283
 Red. masses --      1.7682                 2.1939                 2.2305
 Frc consts  --      1.9118                 2.8169                 2.8674
 IR Inten    --      2.2386                57.3787                 2.2396

                     55                     56                     57
                      A                      A                      A
 Frequencies --   1518.5383              1519.1893              1612.7363
 Red. masses --      2.1313                 2.1905                 5.3460
 Frc consts  --      2.8956                 2.9786                 8.1923
 IR Inten    --      5.3855                 4.1973                31.0340

                     58                     59                     60
                      A                      A                      A
 Frequencies --   1612.9059              1629.6791              1630.3024
 Red. masses --      5.3806                 5.5329                 5.4602
 Frc consts  --      8.2471                 8.6578                 8.5505
 IR Inten    --     55.9410                84.2606               196.9645

                     61                     62                     63
                      A                      A                      A
 Frequencies --   1696.1844              1702.8367              3173.7402
 Red. masses --     12.4555                12.1251                 1.0867
 Frc consts  --     21.1134                20.7149                 6.4489
 IR Inten    --    598.7532               344.0863                 0.3825

                     64                     65                     66
                      A                      A                      A
 Frequencies --   3173.7535              3183.1050              3183.1674
 Red. masses --      1.0867                 1.0886                 1.0886
 Frc consts  --      6.4489                 6.4987                 6.4991
 IR Inten    --      0.3254                 5.0405                 6.0530

                     67                     68                     69
                      A                      A                      A
 Frequencies --   3189.3934              3189.5014              3197.7837
 Red. masses --      1.0919                 1.0920                 1.0941
 Frc consts  --      6.5443                 6.5449                 6.5920
 IR Inten    --     15.8676                12.4555                15.7198

                     70                     71                     72
                      A                      A                      A
 Frequencies --   3197.8835              3201.0397              3201.1950
 Red. masses --      1.0941                 1.0974                 1.0974
 Frc consts  --      6.5924                 6.6253                 6.6259
 IR Inten    --     16.8531                19.6977                 4.0879

 - Thermochemistry -
 -------------------
 Temperature   298.150 Kelvin.  Pressure   1.00000 Atm.
 Atom     1 has atomic number  8 and mass  15.99491

 Molecular mass:   210.06808 amu.
 Principal axes and moments of inertia in atomic units:
                           1         2         3
     Eigenvalues --  1465.773966453.918766487.00719
           X            0.98561   0.16898  -0.00457
           Y            0.11825  -0.66993   0.73295
           Z           -0.12079   0.72294   0.68027
 This molecule is an asymmetric top.
 Rotational symmetry number  1.
 Warning -- assumption of classical behavior for rotation
           may cause significant error
 Rotational temperatures (Kelvin)      0.05909     0.01342     0.01335
 Rotational constants (GHZ):           1.23125     0.27963     0.27821
 Zero-point vibrational energy     524178.6 (Joules/Mol)
                                  125.28170 (Kcal/Mol)
 Warning -- explicit consideration of  16 degrees of freedom as
           vibrations may cause significant error
 Vibrational temperatures:     31.32    50.73    54.14   175.43   198.32
          (Kelvin)            215.98   225.37   380.68   390.04   473.91
                              586.75   587.14   615.37   615.88   668.43
                              685.55   903.61   903.91   938.30  1000.37
                             1000.92  1021.98  1052.15  1052.84  1163.97
                             1168.00  1237.14  1237.61  1277.38  1379.72
                             1385.00  1444.68  1445.04  1457.64  1458.23
                             1471.77  1471.90  1492.22  1501.04  1527.81
                             1590.02  1591.28  1697.34  1699.58  1711.63
                             1723.95  1765.36  1882.68  1922.89  1932.87
                             1948.45  1949.07  2123.94  2125.26  2184.84
                             2185.77  2320.37  2320.61  2344.74  2345.64
                             2440.43  2450.00  4566.30  4566.32  4579.78
                             4579.87  4588.83  4588.98  4600.90  4601.04
                             4605.58  4605.81

 Zero-point correction=                           0.199649 (Hartree/Particle)
 Thermal correction to Energy=                    0.212611
 Thermal correction to Enthalpy=                  0.213555
 Thermal correction to Gibbs Free Energy=         0.157721
 Sum of electronic and zero-point Energies=           -689.946688
 Sum of electronic and thermal Energies=              -689.933727
 Sum of electronic and thermal Enthalpies=            -689.932782
 Sum of electronic and thermal Free Energies=         -689.988617

                     E (Thermal)             CV                S
                      KCal/Mol        Cal/Mol-Kelvin    Cal/Mol-Kelvin
 Total                  133.415             49.605            117.513
 Electronic               0.000              0.000              0.000
 Translational            0.889              2.981             41.931
 Rotational               0.889              2.981             32.484
 Vibrational            131.638             43.643             43.098
 Vibration     1          0.593              1.985              6.466
 Vibration     2          0.594              1.982              5.509
 Vibration     3          0.594              1.982              5.380
 Vibration     4          0.609              1.931              3.070
 Vibration     5          0.614              1.916              2.834
 Vibration     6          0.618              1.903              2.671
 Vibration     7          0.620              1.895              2.590
 Vibration     8          0.671              1.738              1.631
 Vibration     9          0.675              1.726              1.589
 Vibration    10          0.712              1.617              1.263
 Vibration    11          0.772              1.453              0.934
 Vibration    12          0.773              1.453              0.933
 Vibration    13          0.789              1.410              0.866
 Vibration    14          0.790              1.409              0.865
 Vibration    15          0.822              1.329              0.753
 Vibration    16          0.833              1.302              0.720

 Optimization completed.
    -- Stationary point found.
 Normal termination of Gaussian 16 at Sun Feb 11 16:54:07 2024.
