 Gaussian 16, Revision A.03,
 Gaussian 16:  ES64L-G16RevA.03 25-Dec-2016

 ----------------------------------------------------------------------
 #P UB3LYP/6-311++G(d,p) nosym opt freq SCRF=(PCM,Solvent=n,n-DiMethylF
 ormamide)
 ----------------------------------------------------------------------

 -------
 Reduced
 -------
 Symbolic Z-matrix:
 Charge = -2 Multiplicity = 1

 SCF Done:  E(UB3LYP) =  -653.165024888     A.U. after   23 cycles
 SCF Done:  E(UB3LYP) =  -653.168979228     A.U. after   18 cycles
 SCF Done:  E(UB3LYP) =  -653.169154752     A.U. after   18 cycles
 SCF Done:  E(UB3LYP) =  -653.169650208     A.U. after   18 cycles
 SCF Done:  E(UB3LYP) =  -653.170010144     A.U. after   17 cycles
 SCF Done:  E(UB3LYP) =  -653.170149765     A.U. after   17 cycles
 SCF Done:  E(UB3LYP) =  -653.169933223     A.U. after   18 cycles
 SCF Done:  E(UB3LYP) =  -653.170184350     A.U. after   16 cycles
 SCF Done:  E(UB3LYP) =  -653.170141672     A.U. after   24 cycles
 SCF Done:  E(UB3LYP) =  -653.170301063     A.U. after   18 cycles
 SCF Done:  E(UB3LYP) =  -653.170284462     A.U. after   16 cycles
 SCF Done:  E(UB3LYP) =  -653.170320426     A.U. after   16 cycles
 SCF Done:  E(UB3LYP) =  -653.170325977     A.U. after   15 cycles
 SCF Done:  E(UB3LYP) =  -653.170326308     A.U. after   14 cycles
 SCF Done:  E(UB3LYP) =  -653.170327713     A.U. after   17 cycles
 SCF Done:  E(UB3LYP) =  -653.170329341     A.U. after   16 cycles
 SCF Done:  E(UB3LYP) =  -653.170329797     A.U. after   14 cycles
 SCF Done:  E(UB3LYP) =  -653.170330184     A.U. after   13 cycles
 SCF Done:  E(UB3LYP) =  -653.170330366     A.U. after   14 cycles
 Optimization completed.
    -- Stationary point found.
 Normal termination of Gaussian 16 at Sun Feb 11 17:44:14 2024.

 ----------------------------------------------------------------------
 #P Geom=AllCheck Guess=TCheck SCRF=Check GenChk UB3LYP/6-311++G(d,p) F
 req
 ----------------------------------------------------------------------

 Structure from the checkpoint file:  "344-an.chk"
 -------
 Reduced
 -------
 Charge = -2 Multiplicity = 1

                          Input orientation:
 ---------------------------------------------------------------------
 Center     Atomic      Atomic             Coordinates (Angstroms)
 Number     Number       Type             X           Y           Z
 ---------------------------------------------------------------------
      1          8           0       -0.002691   -2.553225   -0.579219
      2          6           0        0.037494   -1.259475   -0.304514
      3          6           0        1.290573   -0.638642   -0.109208
      4          6           0        2.459694   -1.518068   -0.205470
      5          6           0        3.752523   -1.101938   -0.030101
      6          6           0        4.061357    0.263164    0.256524
      7          6           0        2.988198    1.142237    0.342546
      8          6           0        1.635357    0.772743    0.176846
      9          6           0        0.686666    1.830651    0.265984
     10          6           0       -0.677452    1.838907    0.173164
     11          6           0       -1.649715    0.754337    0.028046
     12          6           0       -3.002155    1.133542    0.095966
     13          6           0       -4.071085    0.218299   -0.027794
     14          6           0       -3.772372   -1.113225   -0.220017
     15          6           0       -2.418706   -1.517759   -0.291691
     16          6           0       -1.330136   -0.630419   -0.177465
     17          1           0        2.254124   -2.557978   -0.420643
     18          1           0        4.558222   -1.829309   -0.112688
     19          1           0        5.083176    0.599366    0.392252
     20          1           0        3.185798    2.193935    0.545463
     21          1           0        1.132779    2.812173    0.429384
     22          1           0       -1.142004    2.817969    0.275776
     23          1           0       -3.228167    2.185811    0.246661
     24          1           0       -5.097691    0.567778    0.026218
     25          1           0       -4.561085   -1.853287   -0.323076
     26          1           0       -2.172699   -2.557584   -0.452944
 ---------------------------------------------------------------------

 SCF Done:  E(UB3LYP) =  -653.170330366     A.U. after    1 cycles

 Alpha  occ. eigenvalues --  -19.00083 -10.15967 -10.15634 -10.15021 -10.14309
 Alpha  occ. eigenvalues --  -10.14297 -10.14139 -10.13935 -10.13646 -10.13451
 Alpha  occ. eigenvalues --  -10.13123 -10.12986 -10.12500 -10.12404 -10.12068
 Alpha  occ. eigenvalues --  -10.11866  -0.90867  -0.82383  -0.80795  -0.76211
 Alpha  occ. eigenvalues --   -0.72374  -0.71423  -0.70189  -0.67851  -0.60911
 Alpha  occ. eigenvalues --   -0.60022  -0.56222  -0.55091  -0.52114  -0.51288
 Alpha  occ. eigenvalues --   -0.46580  -0.45494  -0.44057  -0.42591  -0.41083
 Alpha  occ. eigenvalues --   -0.39814  -0.38179  -0.37934  -0.37064  -0.36216
 Alpha  occ. eigenvalues --   -0.35214  -0.34373  -0.33343  -0.31972  -0.31061
 Alpha  occ. eigenvalues --   -0.29859  -0.29828  -0.28180  -0.28156  -0.23745
 Alpha  occ. eigenvalues --   -0.21917  -0.20408  -0.18192  -0.17883  -0.07512
 Alpha virt. eigenvalues --   -0.02939  -0.00011   0.00734   0.01192   0.01285
 Alpha virt. eigenvalues --    0.02323   0.02549   0.02682   0.04223   0.04362
 Alpha virt. eigenvalues --    0.05218   0.05338   0.06068   0.06663   0.06770

  Beta  occ. eigenvalues --  -19.00083 -10.15967 -10.15634 -10.15021 -10.14309
  Beta  occ. eigenvalues --  -10.14297 -10.14139 -10.13935 -10.13646 -10.13451
  Beta  occ. eigenvalues --  -10.13123 -10.12986 -10.12500 -10.12404 -10.12068
  Beta  occ. eigenvalues --  -10.11866  -0.90867  -0.82383  -0.80795  -0.76211
  Beta  occ. eigenvalues --   -0.72374  -0.71423  -0.70189  -0.67851  -0.60911
  Beta  occ. eigenvalues --   -0.60022  -0.56222  -0.55091  -0.52114  -0.51288
  Beta  occ. eigenvalues --   -0.46580  -0.45494  -0.44057  -0.42591  -0.41083
  Beta  occ. eigenvalues --   -0.39814  -0.38179  -0.37934  -0.37064  -0.36216
  Beta  occ. eigenvalues --   -0.35214  -0.34373  -0.33343  -0.31972  -0.31061
  Beta  occ. eigenvalues --   -0.29859  -0.29828  -0.28180  -0.28156  -0.23745
  Beta  occ. eigenvalues --   -0.21917  -0.20408  -0.18192  -0.17883  -0.07512
  Beta virt. eigenvalues --   -0.02939  -0.00011   0.00734   0.01192   0.01285
  Beta virt. eigenvalues --    0.02323   0.02549   0.02682   0.04223   0.04362
  Beta virt. eigenvalues --    0.05218   0.05338   0.06068   0.06663   0.06770

 Mulliken charges and spin densities:
               1          2
     1  O   -0.669188   0.000002
     2  C   -0.212026   0.000003
     3  C    0.603097  -0.000003
     4  C   -0.120205   0.000003
     5  C   -0.500845  -0.000002
     6  C   -0.582137   0.000001
     7  C   -0.216767   0.000000
     8  C   -0.334982  -0.000001
     9  C   -0.223889   0.000000
    10  C   -0.459211  -0.000003
    11  C    0.030474   0.000001
    12  C   -0.273159  -0.000002
    13  C   -0.421766   0.000002
    14  C   -0.587364  -0.000002
    15  C   -0.011545   0.000002
    16  C    0.653495  -0.000001
    17  H    0.138441  -0.000000
    18  H    0.138838   0.000000
    19  H    0.129302  -0.000000
    20  H    0.106623  -0.000000
    21  H    0.120902   0.000000
    22  H    0.117494   0.000000
    23  H    0.118721   0.000000
    24  H    0.147810  -0.000000
    25  H    0.145549   0.000000
    26  H    0.162340  -0.000000
 Sum of Mulliken charges =  -2.00000   0.00000

 Dipole moment (field-independent basis, Debye):
    X=             -2.7514    Y=              9.0375    Z=              2.0376  Tot=              9.6643
 Quadrupole moment (field-independent basis, Debye-Ang):
   XX=           -145.7731   YY=           -131.1245   ZZ=           -113.0168
   XY=              0.4257   XZ=             -1.1789   YZ=             -4.6361

  Exact polarizability: 836.813  11.300 403.492  24.044  34.637 190.332
 Approx polarizability: 945.551  17.908 440.328  28.905  40.723 201.463

                      1                      2                      3
                      A                      A                      A
 Frequencies --     47.9250                99.0670               159.3286
 Red. masses --      5.2958                 4.0053                 5.3363
 Frc consts  --      0.0072                 0.0232                 0.0798
 IR Inten    --      4.0411                11.0368                12.8173

                      4                      5                      6
                      A                      A                      A
 Frequencies --    184.5935               221.9387               245.1154
 Red. masses --      4.5677                 4.5998                 4.9419
 Frc consts  --      0.0917                 0.1335                 0.1749
 IR Inten    --      7.4738                 4.4814               253.5537

                      7                      8                      9
                      A                      A                      A
 Frequencies --    303.8901               318.5183               326.6233
 Red. masses --      6.9635                 4.4476                 5.5309
 Frc consts  --      0.3789                 0.2659                 0.3476
 IR Inten    --    531.2689                87.7740                 5.1628

                     10                     11                     12
                      A                      A                      A
 Frequencies --    406.0976               421.1196               448.4523
 Red. masses --      8.1718                 4.6016                 5.5413
 Frc consts  --      0.7940                 0.4808                 0.6566
 IR Inten    --    579.7610                75.0621              1255.4991

                     13                     14                     15
                      A                      A                      A
 Frequencies --    461.7098               505.2109               525.4921
 Red. masses --      3.5098                 4.3238                 5.8090
 Frc consts  --      0.4408                 0.6502                 0.9451
 IR Inten    --    222.2549                97.3318               734.4583

                     16                     17                     18
                      A                      A                      A
 Frequencies --    546.6852               572.3243               584.3684
 Red. masses --      5.7501                 4.1517                 6.4253
 Frc consts  --      1.0125                 0.8012                 1.2928
 IR Inten    --     78.5105                 6.7689               222.7339

                     19                     20                     21
                      A                      A                      A
 Frequencies --    602.7908               630.4271               643.1728
 Red. masses --      3.4071                 6.0760                 1.3897
 Frc consts  --      0.7294                 1.4228                 0.3387
 IR Inten    --    122.3708               223.4136                56.9032

                     22                     23                     24
                      A                      A                      A
 Frequencies --    686.0785               699.7361               725.7802
 Red. masses --      5.0544                 2.1125                 1.8889
 Frc consts  --      1.4017                 0.6094                 0.5862
 IR Inten    --    665.8650                64.0647                33.0786

                     25                     26                     27
                      A                      A                      A
 Frequencies --    733.3998               742.1369               758.8242
 Red. masses --      4.2576                 2.2231                 2.0644
 Frc consts  --      1.3493                 0.7214                 0.7004
 IR Inten    --     44.9662                69.2894                89.8233

                     28                     29                     30
                      A                      A                      A
 Frequencies --    783.9016               834.4880               836.0995
 Red. masses --      1.4868                 1.8731                 3.0827
 Frc consts  --      0.5383                 0.7685                 1.2697
 IR Inten    --     62.2931               117.8506               309.4068

                     31                     32                     33
                      A                      A                      A
 Frequencies --    866.4997               887.4430               897.6252
 Red. masses --      5.7689                 1.3360                 1.2769
 Frc consts  --      2.5520                 0.6199                 0.6062
 IR Inten    --    951.4646                29.7143                 5.9834

                     34                     35                     36
                      A                      A                      A
 Frequencies --    929.9530               936.0547               938.4596
 Red. masses --      1.2880                 1.2875                 4.6418
 Frc consts  --      0.6563                 0.6646                 2.4086
 IR Inten    --      0.6095                20.1596               425.7583

                     37                     38                     39
                      A                      A                      A
 Frequencies --    966.4932              1014.1418              1048.5697
 Red. masses --      1.2283                 2.4181                 2.9970
 Frc consts  --      0.6760                 1.4653                 1.9415
 IR Inten    --      5.2258               173.6619               483.0277

                     40                     41                     42
                      A                      A                      A
 Frequencies --   1077.3008              1107.0344              1135.8394
 Red. masses --      2.3841                 2.2545                 2.3740
 Frc consts  --      1.6302                 1.6279                 1.8045
 IR Inten    --    113.7921               146.1878                86.2968

                     43                     44                     45
                      A                      A                      A
 Frequencies --   1147.3111              1152.3153              1157.6774
 Red. masses --      1.8084                 1.3860                 1.2257
 Frc consts  --      1.4025                 1.0843                 0.9678
 IR Inten    --      6.9123                54.8418               120.3914

                     46                     47                     48
                      A                      A                      A
 Frequencies --   1188.7767              1246.0706              1257.2837
 Red. masses --      1.7657                 1.6907                 1.9106
 Frc consts  --      1.4702                 1.5466                 1.7795
 IR Inten    --    262.2443               104.9592               441.1727

                     49                     50                     51
                      A                      A                      A
 Frequencies --   1282.7276              1314.3701              1369.6502
 Red. masses --      1.6963                 7.1906                 2.5954
 Frc consts  --      1.6444                 7.3190                 2.8687
 IR Inten    --    113.8785               455.7374                32.1813

                     52                     53                     54
                      A                      A                      A
 Frequencies --   1380.6632              1393.4158              1429.9187
 Red. masses --      2.3926                 2.2020                 1.8335
 Frc consts  --      2.6872                 2.5190                 2.2088
 IR Inten    --     87.4985                42.5018                28.4628

                     55                     56                     57
                      A                      A                      A
 Frequencies --   1453.0856              1466.3311              1486.2877
 Red. masses --      4.2901                 1.9733                 2.9027
 Frc consts  --      5.3370                 2.4998                 3.7779
 IR Inten    --   1240.9361               198.8599               312.2026

                     58                     59                     60
                      A                      A                      A
 Frequencies --   1494.7231              1529.1037              1580.2275
 Red. masses --      2.2369                 4.3684                 5.1065
 Frc consts  --      2.9445                 6.0179                 7.5131
 IR Inten    --    176.1400                32.0010               292.4604

                     61                     62                     63
                      A                      A                      A
 Frequencies --   1596.9738              1611.8987              3082.4119
 Red. masses --      5.5548                 5.7921                 1.0830
 Frc consts  --      8.3467                 8.8666                 6.0628
 IR Inten    --   1353.6085                91.7838                23.0767

                     64                     65                     66
                      A                      A                      A
 Frequencies --   3105.8714              3112.1176              3113.5079
 Red. masses --      1.0862                 1.0868                 1.0885
 Frc consts  --      6.1735                 6.2017                 6.2170
 IR Inten    --     63.5077               126.2877               138.0406

                     67                     68                     69
                      A                      A                      A
 Frequencies --   3127.8770              3136.7278              3159.4568
 Red. masses --      1.0834                 1.0877                 1.0961
 Frc consts  --      6.2451                 6.3054                 6.4465
 IR Inten    --      9.5443               118.3179               151.4430

                     70                     71                     72
                      A                      A                      A
 Frequencies --   3165.6664              3195.0547              3201.6927
 Red. masses --      1.0925                 1.0887                 1.0882
 Frc consts  --      6.4507                 6.5482                 6.5725
 IR Inten    --     63.0011                29.2743                 3.7958

 - Thermochemistry -
 -------------------
 Temperature   298.150 Kelvin.  Pressure   1.00000 Atm.
 Atom     1 has atomic number  8 and mass  15.99491

 Molecular mass:   206.07317 amu.
 Principal axes and moments of inertia in atomic units:
                           1         2         3
     Eigenvalues --  1419.342144790.958926202.83331
           X            0.99947  -0.01009  -0.03092
           Y            0.00466   0.98531  -0.17070
           Z            0.03219   0.17046   0.98484
 This molecule is an asymmetric top.
 Rotational symmetry number  1.
 Warning -- assumption of classical behavior for rotation
           may cause significant error
 Rotational temperatures (Kelvin)      0.06102     0.01808     0.01396
 Rotational constants (GHZ):           1.27153     0.37670     0.29095
 Zero-point vibrational energy     513197.4 (Joules/Mol)
                                  122.65712 (Kcal/Mol)
 Warning -- explicit consideration of  19 degrees of freedom as
           vibrations may cause significant error
 Vibrational temperatures:     68.95   142.54   229.24   265.59   319.32
          (Kelvin)            352.67   437.23   458.28   469.94   584.28
                              605.90   645.22   664.30   726.89   756.07
                              786.56   823.45   840.78   867.28   907.04
                              925.38   987.11  1006.76  1044.24  1055.20
                             1067.77  1091.78  1127.86  1200.64  1202.96
                             1246.70  1276.83  1291.48  1337.99  1346.77
                             1350.23  1390.57  1459.12  1508.66  1550.00
                             1592.78  1634.22  1650.72  1657.92  1665.64
                             1710.38  1792.82  1808.95  1845.56  1891.09
                             1970.62  1986.47  2004.81  2057.33  2090.67
                             2109.72  2138.44  2150.57  2200.04  2273.59
                             2297.69  2319.16  4434.90  4468.66  4477.64
                             4479.64  4500.32  4513.05  4545.75  4554.69
                             4596.97  4606.52

 Zero-point correction=                           0.195467 (Hartree/Particle)
 Thermal correction to Energy=                    0.207355
 Thermal correction to Enthalpy=                  0.208300
 Thermal correction to Gibbs Free Energy=         0.157799
 Sum of electronic and zero-point Energies=           -652.974864
 Sum of electronic and thermal Energies=              -652.962975
 Sum of electronic and thermal Enthalpies=            -652.962031
 Sum of electronic and thermal Free Energies=         -653.012531

                     E (Thermal)             CV                S
                      KCal/Mol        Cal/Mol-Kelvin    Cal/Mol-Kelvin
 Total                  130.118             50.392            106.288
 Electronic               0.000              0.000              0.000
 Translational            0.889              2.981             41.873
 Rotational               0.889              2.981             32.112
 Vibrational            128.340             44.430             32.303
 Vibration     1          0.595              1.978              4.901
 Vibration     2          0.604              1.950              3.473
 Vibration     3          0.621              1.892              2.558
 Vibration     4          0.631              1.861              2.281
 Vibration     5          0.648              1.808              1.943
 Vibration     6          0.660              1.771              1.765
 Vibration     7          0.695              1.666              1.395
 Vibration     8          0.705              1.638              1.318
 Vibration     9          0.710              1.622              1.277
 Vibration    10          0.771              1.457              0.941
 Vibration    11          0.784              1.424              0.888
 Vibration    12          0.807              1.364              0.800
 Vibration    13          0.819              1.335              0.761
 Vibration    14          0.860              1.238              0.645
 Vibration    15          0.880              1.194              0.597
 Vibration    16          0.902              1.147              0.551
 Vibration    17          0.929              1.091              0.500
 Vibration    18          0.941              1.065              0.477
 Vibration    19          0.961              1.026              0.445

 Optimization completed.
    -- Stationary point found.
 Normal termination of Gaussian 16 at Sun Feb 11 18:29:56 2024.
