 Gaussian 16, Revision A.03,
 Gaussian 16:  ES64L-G16RevA.03 25-Dec-2016

 ----------------------------------------------------------------------
 #P UB3LYP/6-311++G(d,p) nosym opt freq SCRF=(PCM,Solvent=n,n-DiMethylF
 ormamide)
 ----------------------------------------------------------------------

 --------
 Oxidized
 --------
 Symbolic Z-matrix:
 Charge =  0 Multiplicity = 1

 SCF Done:  E(UB3LYP) =  -573.589281491     A.U. after   15 cycles
 SCF Done:  E(UB3LYP) =  -573.589442753     A.U. after   13 cycles
 SCF Done:  E(UB3LYP) =  -573.589419384     A.U. after   13 cycles
 SCF Done:  E(UB3LYP) =  -573.589450558     A.U. after   13 cycles
 SCF Done:  E(UB3LYP) =  -573.589497031     A.U. after   12 cycles
 SCF Done:  E(UB3LYP) =  -573.589499253     A.U. after   11 cycles
 SCF Done:  E(UB3LYP) =  -573.589503680     A.U. after   12 cycles
 SCF Done:  E(UB3LYP) =  -573.589506386     A.U. after   10 cycles
 SCF Done:  E(UB3LYP) =  -573.589506554     A.U. after   10 cycles
 SCF Done:  E(UB3LYP) =  -573.589506588     A.U. after    8 cycles
 SCF Done:  E(UB3LYP) =  -573.589506608     A.U. after    8 cycles
 SCF Done:  E(UB3LYP) =  -573.589506628     A.U. after    8 cycles
 SCF Done:  E(UB3LYP) =  -573.589506640     A.U. after    9 cycles
 Optimization completed.
    -- Stationary point found.
 Normal termination of Gaussian 16 at Sat Feb 10 10:36:56 2024.

 ----------------------------------------------------------------------
 #P Geom=AllCheck Guess=TCheck SCRF=Check GenChk UB3LYP/6-311++G(d,p) F
 req
 ----------------------------------------------------------------------

 Structure from the checkpoint file:  "059.chk"
 --------
 Oxidized
 --------
 Charge =  0 Multiplicity = 1

                          Input orientation:
 ---------------------------------------------------------------------
 Center     Atomic      Atomic             Coordinates (Angstroms)
 Number     Number       Type             X           Y           Z
 ---------------------------------------------------------------------
      1          6           0       -0.183530    0.870742   -0.210915
      2          6           0       -1.252531    0.029209   -0.844553
      3          6           0       -1.475331   -1.217069   -0.389203
      4          6           0       -0.701981   -1.796053    0.719427
      5          6           0        0.367428   -0.966531    1.325699
      6          6           0        0.638311    0.273868    0.887982
      7          8           0       -0.017934    2.025235   -0.571511
      8          8           0       -0.921450   -2.926507    1.139327
      9          6           0        1.779882    1.035987    1.531120
     10          6           0        2.671421    1.884272    0.666243
     11          8           0        1.972479    0.902322    2.725706
     12          1           0        2.139765    2.796461    0.385545
     13          1           0        2.925025    1.366565   -0.262302
     14          1           0        3.575034    2.136350    1.219810
     15          1           0        0.932710   -1.416289    2.134131
     16          6           0       -2.030528    0.654786   -1.959407
     17          1           0       -2.244875   -1.850549   -0.816765
     18          1           0       -2.533425    1.562304   -1.614252
     19          1           0       -2.775861   -0.038059   -2.349117
     20          1           0       -1.363461    0.955614   -2.771991
 ---------------------------------------------------------------------

 SCF Done:  E(UB3LYP) =  -573.589506640     A.U. after    1 cycles

 Alpha  occ. eigenvalues --  -19.15236 -19.14819 -19.13976 -10.29970 -10.29284
 Alpha  occ. eigenvalues --  -10.29241 -10.22954 -10.22860 -10.22521 -10.20947
 Alpha  occ. eigenvalues --  -10.18195 -10.17978  -1.08475  -1.07528  -1.07263
 Alpha  occ. eigenvalues --   -0.87741  -0.82480  -0.76488  -0.73784  -0.70190
 Alpha  occ. eigenvalues --   -0.65499  -0.60617  -0.56421  -0.54091  -0.51522
 Alpha  occ. eigenvalues --   -0.49600  -0.47440  -0.47070  -0.45774  -0.45478
 Alpha  occ. eigenvalues --   -0.44842  -0.43626  -0.43230  -0.41706  -0.41168
 Alpha  occ. eigenvalues --   -0.40643  -0.39848  -0.38182  -0.32073  -0.30119
 Alpha  occ. eigenvalues --   -0.29909  -0.29552  -0.27586
 Alpha virt. eigenvalues --   -0.14606  -0.07059  -0.02130  -0.00744   0.00097
 Alpha virt. eigenvalues --    0.00594   0.01117   0.02624   0.02887   0.03345
 Alpha virt. eigenvalues --    0.04364   0.04643   0.05151   0.06030   0.06433

  Beta  occ. eigenvalues --  -19.15236 -19.14819 -19.13976 -10.29970 -10.29284
  Beta  occ. eigenvalues --  -10.29241 -10.22954 -10.22860 -10.22521 -10.20947
  Beta  occ. eigenvalues --  -10.18195 -10.17978  -1.08475  -1.07528  -1.07263
  Beta  occ. eigenvalues --   -0.87741  -0.82480  -0.76488  -0.73784  -0.70190
  Beta  occ. eigenvalues --   -0.65499  -0.60617  -0.56421  -0.54091  -0.51522
  Beta  occ. eigenvalues --   -0.49600  -0.47440  -0.47070  -0.45774  -0.45478
  Beta  occ. eigenvalues --   -0.44842  -0.43626  -0.43230  -0.41706  -0.41168
  Beta  occ. eigenvalues --   -0.40643  -0.39848  -0.38182  -0.32073  -0.30119
  Beta  occ. eigenvalues --   -0.29909  -0.29552  -0.27586
  Beta virt. eigenvalues --   -0.14606  -0.07059  -0.02130  -0.00744   0.00097
  Beta virt. eigenvalues --    0.00594   0.01117   0.02624   0.02887   0.03345
  Beta virt. eigenvalues --    0.04364   0.04643   0.05151   0.06030   0.06433

 Mulliken charges and spin densities:
               1          2
     1  C   -2.213927   0.000000
     2  C    1.503770  -0.000000
     3  C   -0.560361  -0.000000
     4  C   -0.312975  -0.000000
     5  C   -0.344106   0.000000
     6  C    1.845517  -0.000000
     7  O   -0.219889  -0.000000
     8  O   -0.283258   0.000000
     9  C    0.245107  -0.000000
    10  C   -0.630919  -0.000000
    11  O   -0.297099   0.000000
    12  H    0.213809   0.000000
    13  H    0.183596  -0.000000
    14  H    0.183226   0.000000
    15  H    0.250686   0.000000
    16  C   -0.338431   0.000000
    17  H    0.213591   0.000000
    18  H    0.195904   0.000000
    19  H    0.173166   0.000000
    20  H    0.192592   0.000000
 Sum of Mulliken charges =  -0.00000  -0.00000

 Dipole moment (field-independent basis, Debye):
    X=             -0.7725    Y=              1.1047    Z=             -4.6631  Tot=              4.8540
 Quadrupole moment (field-independent basis, Debye-Ang):
   XX=            -63.5917   YY=            -84.1091   ZZ=            -79.5501
   XY=             -2.3072   XZ=             -1.2251   YZ=              3.2342

  Exact polarizability: 125.453  31.129 202.299  20.410 -38.125 138.214
 Approx polarizability: 131.457  37.121 271.884  11.701 -58.925 159.821

                      1                      2                      3
                      A                      A                      A
 Frequencies --     32.4243                54.3594               112.4630
 Red. masses --      3.5958                 6.5220                 1.3330
 Frc consts  --      0.0022                 0.0114                 0.0099
 IR Inten    --      5.8475                 9.7783                 2.0853

                      4                      5                      6
                      A                      A                      A
 Frequencies --    124.8661               144.4872               182.4993
 Red. masses --      4.5381                 1.3441                 3.0551
 Frc consts  --      0.0417                 0.0165                 0.0600
 IR Inten    --     11.3207                 2.8540                 2.3651

                      7                      8                      9
                      A                      A                      A
 Frequencies --    189.0397               262.2023               293.3042
 Red. masses --      2.2643                 4.1062                 3.7895
 Frc consts  --      0.0477                 0.1663                 0.1921
 IR Inten    --      1.1760                 2.7454                 1.2042

                     10                     11                     12
                      A                      A                      A
 Frequencies --    321.6118               360.0818               414.4305
 Red. masses --      5.3303                 4.2056                 7.6063
 Frc consts  --      0.3248                 0.3213                 0.7697
 IR Inten    --      4.1304                 0.1393                29.1288

                     13                     14                     15
                      A                      A                      A
 Frequencies --    444.0674               457.6898               510.4459
 Red. masses --      3.8830                 7.6225                 6.7256
 Frc consts  --      0.4511                 0.9408                 1.0325
 IR Inten    --      5.5000                18.8126                 2.6725

                     16                     17                     18
                      A                      A                      A
 Frequencies --    563.7726               602.5092               652.3763
 Red. masses --      2.9848                 3.8119                 3.6318
 Frc consts  --      0.5590                 0.8153                 0.9107
 IR Inten    --      2.3171                37.2488                 3.8710

                     19                     20                     21
                      A                      A                      A
 Frequencies --    682.7220               785.4459               802.5280
 Red. masses --      3.3647                 4.7683                 5.5781
 Frc consts  --      0.9240                 1.7332                 2.1167
 IR Inten    --      6.2676                 2.1417                 5.4710

                     22                     23                     24
                      A                      A                      A
 Frequencies --    837.6518               890.3245               920.8303
 Red. masses --      6.0400                 1.3724                 3.3356
 Frc consts  --      2.4970                 0.6410                 1.6664
 IR Inten    --      9.0918                 6.1372                20.3457

                     25                     26                     27
                      A                      A                      A
 Frequencies --    947.6276               990.4122              1029.1161
 Red. masses --      1.6087                 1.9862                 1.5985
 Frc consts  --      0.8512                 1.1479                 0.9974
 IR Inten    --     63.2582                36.6890                33.3199

                     28                     29                     30
                      A                      A                      A
 Frequencies --   1043.3623              1057.0532              1118.5990
 Red. masses --      1.9015                 1.5481                 2.4177
 Frc consts  --      1.2196                 1.0191                 1.7824
 IR Inten    --      4.7071                 3.7549                52.7690

                     31                     32                     33
                      A                      A                      A
 Frequencies --   1207.0313              1236.8768              1296.3635
 Red. masses --      2.2349                 3.0020                 4.7226
 Frc consts  --      1.9184                 2.7060                 4.6761
 IR Inten    --     23.6113               267.5106               193.0591

                     34                     35                     36
                      A                      A                      A
 Frequencies --   1324.7045              1370.3710              1381.5027
 Red. masses --      1.7323                 2.7264                 1.3051
 Frc consts  --      1.7911                 3.0166                 1.4676
 IR Inten    --     26.3609                19.5530                75.4645

                     37                     38                     39
                      A                      A                      A
 Frequencies --   1408.5564              1442.5103              1459.1409
 Red. masses --      1.2858                 1.0529                 1.0430
 Frc consts  --      1.5030                 1.2909                 1.3083
 IR Inten    --     18.9441                32.5469                15.0009

                     40                     41                     42
                      A                      A                      A
 Frequencies --   1463.5536              1470.2755              1645.4761
 Red. masses --      1.0692                 1.0732                 8.7288
 Frc consts  --      1.3493                 1.3668                13.9248
 IR Inten    --     20.2415                26.0392                49.4257

                     43                     44                     45
                      A                      A                      A
 Frequencies --   1675.5239              1690.7535              1710.3801
 Red. masses --      9.8634                10.2608                 9.8618
 Frc consts  --     16.3147                17.2819                16.9977
 IR Inten    --     70.5446              1145.4019                90.3308

                     46                     47                     48
                      A                      A                      A
 Frequencies --   1735.8357              3037.9936              3043.6628
 Red. masses --     10.3185                 1.0366                 1.0353
 Frc consts  --     18.3183                 5.6368                 5.6508
 IR Inten    --    265.3083                 7.6281                 1.9062

                     49                     50                     51
                      A                      A                      A
 Frequencies --   3088.9057              3107.0521              3129.6991
 Red. masses --      1.0991                 1.0984                 1.1026
 Frc consts  --      6.1788                 6.2476                 6.3630
 IR Inten    --      8.9487                 5.9904                14.9434

                     52                     53                     54
                      A                      A                      A
 Frequencies --   3143.1177              3181.0492              3192.0089
 Red. masses --      1.1047                 1.0926                 1.0923
 Frc consts  --      6.4299                 6.5140                 6.5573
 IR Inten    --     16.8335                 4.7335                 1.7306

 - Thermochemistry -
 -------------------
 Temperature   298.150 Kelvin.  Pressure   1.00000 Atm.
 Atom     1 has atomic number  6 and mass  12.00000

 Molecular mass:   164.04734 amu.
 Principal axes and moments of inertia in atomic units:
                           1         2         3
     Eigenvalues --  1413.462432210.442103482.80551
           X            0.74719  -0.16975   0.64257
           Y            0.52780   0.73913  -0.41847
           Z            0.40390  -0.65182  -0.64187
 This molecule is an asymmetric top.
 Rotational symmetry number  1.
 Warning -- assumption of classical behavior for rotation
           may cause significant error
 Rotational temperatures (Kelvin)      0.06128     0.03918     0.02487
 Rotational constants (GHZ):           1.27682     0.81646     0.51819
 Zero-point vibrational energy     390405.2 (Joules/Mol)
                                   93.30908 (Kcal/Mol)
 Warning -- explicit consideration of  17 degrees of freedom as
           vibrations may cause significant error
 Vibrational temperatures:     46.65    78.21   161.81   179.65   207.88
          (Kelvin)            262.58   271.99   377.25   422.00   462.73
                              518.08   596.27   638.91   658.51   734.42
                              811.14   866.88   938.62   982.28  1130.08
                             1154.66  1205.19  1280.98  1324.87  1363.42
                             1424.98  1480.67  1501.17  1520.86  1609.41
                             1736.65  1779.59  1865.18  1905.95  1971.66
                             1987.67  2026.60  2075.45  2099.38  2105.73
                             2115.40  2367.47  2410.71  2432.62  2460.86
                             2497.48  4371.00  4379.15  4444.25  4470.36
                             4502.94  4522.25  4576.82  4592.59

 Zero-point correction=                           0.148697 (Hartree/Particle)
 Thermal correction to Energy=                    0.160365
 Thermal correction to Enthalpy=                  0.161309
 Thermal correction to Gibbs Free Energy=         0.110098
 Sum of electronic and zero-point Energies=           -573.440809
 Sum of electronic and thermal Energies=              -573.429142
 Sum of electronic and thermal Enthalpies=            -573.428197
 Sum of electronic and thermal Free Energies=         -573.479409

                     E (Thermal)             CV                S
                      KCal/Mol        Cal/Mol-Kelvin    Cal/Mol-Kelvin
 Total                  100.631             41.859            107.783
 Electronic               0.000              0.000              0.000
 Translational            0.889              2.981             41.193
 Rotational               0.889              2.981             30.765
 Vibrational             98.853             35.897             35.824
 Vibration     1          0.594              1.983              5.675
 Vibration     2          0.596              1.976              4.652
 Vibration     3          0.607              1.939              3.226
 Vibration     4          0.610              1.928              3.024
 Vibration     5          0.616              1.909              2.744
 Vibration     6          0.630              1.864              2.303
 Vibration     7          0.633              1.855              2.237
 Vibration     8          0.670              1.742              1.647
 Vibration     9          0.688              1.686              1.455
 Vibration    10          0.707              1.632              1.302
 Vibration    11          0.735              1.555              1.122
 Vibration    12          0.778              1.439              0.911
 Vibration    13          0.804              1.374              0.814
 Vibration    14          0.816              1.344              0.773
 Vibration    15          0.866              1.227              0.633
 Vibration    16          0.920              1.110              0.516
 Vibration    17          0.961              1.026              0.445

 Optimization completed.
    -- Stationary point found.
 Normal termination of Gaussian 16 at Sat Feb 10 10:57:41 2024.
