 Gaussian 16, Revision A.03,
 Gaussian 16:  ES64L-G16RevA.03 25-Dec-2016

 ----------------------------------------------------------------
 #P UB3LYP/6-311++G(d,p) SCRF=(PCM,Solvent=n,n-DiMethylFormamide)
 ----------------------------------------------------------------

 -------
 Reduced
 -------
 Symbolic Z-matrix:
 Charge = -2 Multiplicity = 1

                         Standard orientation:
 ---------------------------------------------------------------------
 Center     Atomic      Atomic             Coordinates (Angstroms)
 Number     Number       Type             X           Y           Z
 ---------------------------------------------------------------------
      1          6           0       -1.933179   -1.720283   -0.090721
      2          6           0       -3.287114   -1.446307   -0.036450
      3          6           0       -3.731980   -0.101617    0.057047
      4          6           0       -0.953625   -0.695971   -0.053911
      5          6           0       -1.410021    0.670880    0.030378
      6          6           0       -2.797762    0.920300    0.085506
      7          6           0        0.452194   -1.062276   -0.123069
      8          6           0        1.362544    0.056708   -0.092750
      9          6           0        0.899544    1.386997   -0.004382
     10          6           0       -0.464107    1.781907    0.056484
     11          8           0        0.822234   -2.294214   -0.229717
     12          8           0       -0.844339    3.009279    0.139912
     13          7           0        2.763055   -0.215706   -0.230876
     14          6           0        3.310727   -1.175254    0.723185
     15          6           0        3.653299    0.907206   -0.418699
     16          1           0       -1.564446   -2.738762   -0.164447
     17          1           0       -4.011051   -2.259766   -0.065176
     18          1           0       -4.796679    0.122331    0.102248
     19          1           0       -3.098362    1.962050    0.152332
     20          1           0        1.611972    2.203501    0.043866
     21          1           0        2.638480   -2.031551    0.770739
     22          1           0        3.431277   -0.727606    1.734428
     23          1           0        4.302763   -1.501932    0.384694
     24          1           0        3.305340    1.540189   -1.237517
     25          1           0        4.652960    0.535308   -0.665567
     26          1           0        3.760084    1.551914    0.483270
 ---------------------------------------------------------------------

 SCF Done:  E(UB3LYP) =  -669.505573976     A.U. after   19 cycles

 The electronic state is 1-A.
 Alpha  occ. eigenvalues --  -19.01277 -19.00859 -14.29342 -10.17326 -10.16600
 Alpha  occ. eigenvalues --  -10.16161 -10.16130 -10.15491 -10.14563 -10.14352
 Alpha  occ. eigenvalues --  -10.14177 -10.13966 -10.13050 -10.12873 -10.11260
 Alpha  occ. eigenvalues --   -0.93300  -0.92781  -0.89948  -0.81904  -0.75493
 Alpha  occ. eigenvalues --   -0.71692  -0.70035  -0.68939  -0.64513  -0.60995
 Alpha  occ. eigenvalues --   -0.57822  -0.55354  -0.52108  -0.47658  -0.47443
 Alpha  occ. eigenvalues --   -0.44709  -0.43644  -0.42730  -0.41680  -0.39658
 Alpha  occ. eigenvalues --   -0.38860  -0.37838  -0.37180  -0.36436  -0.36108
 Alpha  occ. eigenvalues --   -0.35340  -0.34633  -0.33994  -0.31464  -0.31308
 Alpha  occ. eigenvalues --   -0.31128  -0.29821  -0.24248  -0.22450  -0.21688
 Alpha  occ. eigenvalues --   -0.19435  -0.18738  -0.18005  -0.10211
 Alpha virt. eigenvalues --   -0.00328   0.00022   0.00723   0.01582   0.01959
 Alpha virt. eigenvalues --    0.02557   0.02683   0.03182   0.04644   0.04888
 Alpha virt. eigenvalues --    0.04986   0.05557   0.05716   0.06838   0.07564

  Beta  occ. eigenvalues --  -19.01277 -19.00859 -14.29342 -10.17326 -10.16600
  Beta  occ. eigenvalues --  -10.16161 -10.16130 -10.15491 -10.14563 -10.14352
  Beta  occ. eigenvalues --  -10.14177 -10.13966 -10.13050 -10.12873 -10.11260
  Beta  occ. eigenvalues --   -0.93300  -0.92781  -0.89948  -0.81904  -0.75493
  Beta  occ. eigenvalues --   -0.71692  -0.70035  -0.68939  -0.64513  -0.60995
  Beta  occ. eigenvalues --   -0.57822  -0.55354  -0.52108  -0.47658  -0.47443
  Beta  occ. eigenvalues --   -0.44709  -0.43644  -0.42730  -0.41680  -0.39658
  Beta  occ. eigenvalues --   -0.38860  -0.37838  -0.37180  -0.36436  -0.36108
  Beta  occ. eigenvalues --   -0.35340  -0.34633  -0.33994  -0.31464  -0.31308
  Beta  occ. eigenvalues --   -0.31128  -0.29821  -0.24248  -0.22450  -0.21688
  Beta  occ. eigenvalues --   -0.19435  -0.18738  -0.18005  -0.10211
  Beta virt. eigenvalues --   -0.00328   0.00022   0.00723   0.01582   0.01959
  Beta virt. eigenvalues --    0.02557   0.02683   0.03182   0.04644   0.04888
  Beta virt. eigenvalues --    0.04986   0.05557   0.05716   0.06838   0.07564

 Mulliken charges and spin densities:
               1          2
     1  C    0.056309   0.000000
     2  C   -0.491078  -0.000000
     3  C   -0.414031  -0.000000
     4  C    0.038887   0.000000
     5  C    0.571530   0.000000
     6  C    0.036367  -0.000000
     7  C   -0.973242  -0.000000
     8  C   -0.421990  -0.000000
     9  C    0.451735   0.000000
    10  C   -0.297497   0.000000
    11  O   -0.687320   0.000000
    12  O   -0.704742   0.000000
    13  N    0.043076   0.000000
    14  C   -0.374503  -0.000000
    15  C   -0.367240  -0.000000
    16  H    0.145018   0.000000
    17  H    0.150376   0.000000
    18  H    0.153667  -0.000000
    19  H    0.133504   0.000000
    20  H    0.137557   0.000000
    21  H    0.191686   0.000000
    22  H    0.094911   0.000000
    23  H    0.125596   0.000000
    24  H    0.145697   0.000000
    25  H    0.148118  -0.000000
    26  H    0.107609  -0.000000
 Sum of Mulliken charges =  -2.00000  -0.00000

 Dipole moment (field-independent basis, Debye):
    X=              3.0507    Y=             -2.6167    Z=              0.7695  Tot=              4.0922
 Quadrupole moment (field-independent basis, Debye-Ang):
   XX=           -113.0698   YY=           -152.2774   ZZ=           -102.6001
   XY=             15.1073   XZ=              1.9115   YZ=             -4.8628

 Normal termination of Gaussian 16 at Sun Jan 21 08:58:36 2024.
