 Gaussian 16, Revision A.03,
 Gaussian 16:  ES64L-G16RevA.03 25-Dec-2016

 ----------------------------------------------------------------------
 #P UB3LYP/6-311++G(d,p) nosym opt freq SCRF=(PCM,Solvent=n,n-DiMethylF
 ormamide)
 ----------------------------------------------------------------------

 -------
 Reduced
 -------
 Symbolic Z-matrix:
 Charge = -2 Multiplicity = 1

 SCF Done:  E(UB3LYP) =  -764.592176427     A.U. after   18 cycles
 SCF Done:  E(UB3LYP) =  -764.595087888     A.U. after   14 cycles
 SCF Done:  E(UB3LYP) =  -764.595517407     A.U. after   13 cycles
 SCF Done:  E(UB3LYP) =  -764.595588927     A.U. after   14 cycles
 SCF Done:  E(UB3LYP) =  -764.595638744     A.U. after   13 cycles
 SCF Done:  E(UB3LYP) =  -764.595640397     A.U. after   10 cycles
 SCF Done:  E(UB3LYP) =  -764.595641235     A.U. after   10 cycles
 SCF Done:  E(UB3LYP) =  -764.595641456     A.U. after   10 cycles
 SCF Done:  E(UB3LYP) =  -764.595641493     A.U. after    9 cycles
 SCF Done:  E(UB3LYP) =  -764.595641533     A.U. after    9 cycles
 SCF Done:  E(UB3LYP) =  -764.595641555     A.U. after    9 cycles
 Optimization completed.
    -- Stationary point found.
 Normal termination of Gaussian 16 at Sun Feb 11 03:14:23 2024.

 ----------------------------------------------------------------------
 #P Geom=AllCheck Guess=TCheck SCRF=Check GenChk UB3LYP/6-311++G(d,p) F
 req
 ----------------------------------------------------------------------

 Structure from the checkpoint file:  "261-an.chk"
 -------
 Reduced
 -------
 Charge = -2 Multiplicity = 1

                          Input orientation:
 ---------------------------------------------------------------------
 Center     Atomic      Atomic             Coordinates (Angstroms)
 Number     Number       Type             X           Y           Z
 ---------------------------------------------------------------------
      1          6           0        2.867227    2.541766   -0.392480
      2          8           0        2.564114    1.164034   -0.250245
      3          6           0        1.239822    0.788373   -0.160275
      4          6           0        0.242047    1.733592   -0.207120
      5          6           0       -1.118061    1.352362   -0.128207
      6          6           0       -1.470982    0.026230   -0.040536
      7          8           0       -2.796717   -0.339769    0.061513
      8          6           0       -3.779001    0.681873    0.102047
      9          6           0       -0.476324   -1.024947   -0.026773
     10          6           0       -0.858041   -2.436357   -0.004066
     11          8           0       -2.082947   -2.888725   -0.083267
     12          6           0        0.222254   -3.340156    0.100900
     13          6           0        1.560758   -2.957990    0.146375
     14          6           0        2.006712   -1.618993    0.086573
     15          8           0        3.285827   -1.352808    0.148490
     16          6           0        0.943002   -0.622763   -0.033253
     17          1           0        3.954306    2.602511   -0.449182
     18          1           0        2.520173    3.129309    0.465936
     19          1           0        2.436206    2.965263   -1.307707
     20          1           0        0.471841    2.785194   -0.300669
     21          1           0       -1.867123    2.131050   -0.137290
     22          1           0       -4.736371    0.169738    0.201039
     23          1           0       -3.639458    1.351101    0.959571
     24          1           0       -3.787599    1.281133   -0.816245
     25          1           0       -0.032641   -4.398220    0.136476
     26          1           0        2.330975   -3.722797    0.234068
 ---------------------------------------------------------------------

 SCF Done:  E(UB3LYP) =  -764.595641555     A.U. after    1 cycles

 Alpha  occ. eigenvalues --  -19.12695 -19.12694 -19.00352 -19.00333 -10.20578
 Alpha  occ. eigenvalues --  -10.20574 -10.20503 -10.20495 -10.16776 -10.16775
 Alpha  occ. eigenvalues --  -10.14594 -10.14562 -10.14071 -10.14024 -10.11560
 Alpha  occ. eigenvalues --  -10.11505  -1.04149  -1.04075  -0.91544  -0.91151
 Alpha  occ. eigenvalues --   -0.81810  -0.76038  -0.73659  -0.71429  -0.68489
 Alpha  occ. eigenvalues --   -0.66176  -0.63880  -0.58216  -0.57347  -0.53635
 Alpha  occ. eigenvalues --   -0.49957  -0.48760  -0.46807  -0.46103  -0.45259
 Alpha  occ. eigenvalues --   -0.44978  -0.41782  -0.41704  -0.40286  -0.38742
 Alpha  occ. eigenvalues --   -0.38627  -0.37301  -0.36511  -0.34515  -0.33329
 Alpha  occ. eigenvalues --   -0.32745  -0.32376  -0.31856  -0.31362  -0.30510
 Alpha  occ. eigenvalues --   -0.29604  -0.27213  -0.21609  -0.21207  -0.18839
 Alpha  occ. eigenvalues --   -0.17989  -0.17918  -0.10592
 Alpha virt. eigenvalues --   -0.00102   0.00892   0.00926   0.01146   0.01524
 Alpha virt. eigenvalues --    0.02674   0.02876   0.03392   0.03524   0.04608
 Alpha virt. eigenvalues --    0.04783   0.05654   0.05869   0.06354   0.07249

  Beta  occ. eigenvalues --  -19.12695 -19.12694 -19.00352 -19.00333 -10.20578
  Beta  occ. eigenvalues --  -10.20574 -10.20503 -10.20495 -10.16776 -10.16775
  Beta  occ. eigenvalues --  -10.14594 -10.14562 -10.14071 -10.14024 -10.11560
  Beta  occ. eigenvalues --  -10.11505  -1.04149  -1.04075  -0.91544  -0.91151
  Beta  occ. eigenvalues --   -0.81810  -0.76038  -0.73659  -0.71429  -0.68489
  Beta  occ. eigenvalues --   -0.66176  -0.63880  -0.58216  -0.57347  -0.53635
  Beta  occ. eigenvalues --   -0.49957  -0.48760  -0.46807  -0.46103  -0.45259
  Beta  occ. eigenvalues --   -0.44978  -0.41782  -0.41704  -0.40286  -0.38742
  Beta  occ. eigenvalues --   -0.38627  -0.37301  -0.36511  -0.34515  -0.33329
  Beta  occ. eigenvalues --   -0.32745  -0.32376  -0.31856  -0.31362  -0.30510
  Beta  occ. eigenvalues --   -0.29604  -0.27213  -0.21609  -0.21207  -0.18839
  Beta  occ. eigenvalues --   -0.17989  -0.17918  -0.10592
  Beta virt. eigenvalues --   -0.00102   0.00892   0.00926   0.01146   0.01524
  Beta virt. eigenvalues --    0.02674   0.02876   0.03392   0.03524   0.04608
  Beta virt. eigenvalues --    0.04783   0.05654   0.05869   0.06354   0.07249

 Mulliken charges and spin densities:
               1          2
     1  C   -0.288603   0.000000
     2  O   -0.162708  -0.000000
     3  C   -0.286397   0.000000
     4  C   -0.182049  -0.000000
     5  C   -0.174397   0.000000
     6  C   -0.320877   0.000000
     7  O   -0.161566  -0.000000
     8  C   -0.289037  -0.000000
     9  C    0.127070  -0.000000
    10  C   -0.088620  -0.000000
    11  O   -0.745580   0.000000
    12  C   -0.127877   0.000000
    13  C   -0.127906  -0.000000
    14  C   -0.096457   0.000000
    15  O   -0.745483   0.000000
    16  C    0.129121  -0.000000
    17  H    0.185405  -0.000000
    18  H    0.143652   0.000000
    19  H    0.140958   0.000000
    20  H    0.175599  -0.000000
    21  H    0.175069  -0.000000
    22  H    0.185220  -0.000000
    23  H    0.141560   0.000000
    24  H    0.143326   0.000000
    25  H    0.125267  -0.000000
    26  H    0.125309   0.000000
 Sum of Mulliken charges =  -2.00000  -0.00000

 Dipole moment (field-independent basis, Debye):
    X=             -5.8179    Y=             20.5253    Z=             -0.3261  Tot=             21.3364
 Quadrupole moment (field-independent basis, Debye-Ang):
   XX=           -159.2613   YY=           -142.9468   ZZ=           -104.5479
   XY=             -5.2425   XZ=             -3.3145   YZ=             -0.5904

  Exact polarizability: 340.580  -8.177 367.693   3.753 -12.278 153.169
 Approx polarizability: 379.019  -9.130 409.346   5.449 -13.759 166.597

                      1                      2                      3
                      A                      A                      A
 Frequencies --     50.2596                56.9363                93.4552
 Red. masses --      5.0743                 3.7239                 5.2905
 Frc consts  --      0.0076                 0.0071                 0.0272
 IR Inten    --      4.6389                 9.4159                15.6931

                      4                      5                      6
                      A                      A                      A
 Frequencies --    107.7718               112.7897               206.8229
 Red. masses --      4.3269                 4.2805                 3.3544
 Frc consts  --      0.0296                 0.0321                 0.0845
 IR Inten    --      1.1858                 0.7432                 9.3509

                      7                      8                      9
                      A                      A                      A
 Frequencies --    213.4835               241.5422               261.9803
 Red. masses --      5.5074                 5.6791                 1.1076
 Frc consts  --      0.1479                 0.1952                 0.0448
 IR Inten    --     12.0406                 1.9433                 0.0207

                     10                     11                     12
                      A                      A                      A
 Frequencies --    288.2395               333.4605               335.5929
 Red. masses --      1.1232                 8.7843                 6.5649
 Frc consts  --      0.0550                 0.5755                 0.4356
 IR Inten    --      0.5559                12.9040                 3.3174

                     13                     14                     15
                      A                      A                      A
 Frequencies --    343.1342               358.9138               373.0474
 Red. masses --      6.3644                 3.8294                 8.6683
 Frc consts  --      0.4415                 0.2906                 0.7107
 IR Inten    --      1.7211                 1.0890                 1.8193

                     16                     17                     18
                      A                      A                      A
 Frequencies --    395.2063               453.7487               479.2232
 Red. masses --      4.7061                 9.7062                 4.0969
 Frc consts  --      0.4331                 1.1774                 0.5543
 IR Inten    --      0.0241                 1.7083                 2.9176

                     19                     20                     21
                      A                      A                      A
 Frequencies --    498.9402               532.0967               555.0673
 Red. masses --      6.9090                 5.1986                 2.6646
 Frc consts  --      1.0134                 0.8672                 0.4837
 IR Inten    --      3.3533                 1.5420                 0.7063

                     22                     23                     24
                      A                      A                      A
 Frequencies --    646.6309               664.2608               678.1974
 Red. masses --      5.7967                 3.7489                 4.3876
 Frc consts  --      1.4281                 0.9746                 1.1890
 IR Inten    --      0.4235                 0.5523                 0.5611

                     25                     26                     27
                      A                      A                      A
 Frequencies --    690.4612               735.2439               756.9910
 Red. masses --      2.2912                 6.3638                 5.6596
 Frc consts  --      0.6436                 2.0269                 1.9108
 IR Inten    --     55.6026               150.5164                91.9907

                     28                     29                     30
                      A                      A                      A
 Frequencies --    763.9120               798.7744               818.9603
 Red. masses --      1.7542                 5.6922                 2.1351
 Frc consts  --      0.6032                 2.1398                 0.8437
 IR Inten    --     64.2222                 0.4470                95.2033

                     31                     32                     33
                      A                      A                      A
 Frequencies --    826.6579               861.2210               892.0969
 Red. masses --      1.5391                 7.4135                 1.3606
 Frc consts  --      0.6197                 3.2397                 0.6380
 IR Inten    --      1.9981               272.5766                 3.2838

                     34                     35                     36
                      A                      A                      A
 Frequencies --    920.2257              1035.2162              1066.8824
 Red. masses --      6.3067                 5.0469                 9.0643
 Frc consts  --      3.1466                 3.1867                 6.0788
 IR Inten    --     23.5019               387.2730               417.3094

                     37                     38                     39
                      A                      A                      A
 Frequencies --   1103.3016              1142.1535              1161.4041
 Red. masses --      2.0927                 3.1056                 1.2813
 Frc consts  --      1.5008                 2.3869                 1.0183
 IR Inten    --    252.4439               184.6284                 0.7359

                     40                     41                     42
                      A                      A                      A
 Frequencies --   1161.8290              1164.4623              1181.7316
 Red. masses --      1.2829                 1.8867                 2.7268
 Frc consts  --      1.0203                 1.5073                 2.2436
 IR Inten    --      2.7943               130.6009                93.1539

                     43                     44                     45
                      A                      A                      A
 Frequencies --   1198.3458              1199.9519              1231.9832
 Red. masses --      1.6138                 1.4819                 3.2717
 Frc consts  --      1.3654                 1.2571                 2.9258
 IR Inten    --     89.2658                11.0058                40.7169

                     46                     47                     48
                      A                      A                      A
 Frequencies --   1239.9756              1251.4548              1289.9648
 Red. masses --      4.7058                 3.2375                 2.0824
 Frc consts  --      4.2629                 2.9873                 2.0416
 IR Inten    --    162.3859                 0.2253              1101.8189

                     49                     50                     51
                      A                      A                      A
 Frequencies --   1352.0818              1356.5401              1391.5489
 Red. masses --      5.0632                 8.3712                 3.9726
 Frc consts  --      5.4536                 9.0761                 4.5323
 IR Inten    --   1731.2434                21.2835                13.4395

                     52                     53                     54
                      A                      A                      A
 Frequencies --   1415.7602              1468.7022              1472.5374
 Red. masses --      2.3454                 1.1928                 1.2037
 Frc consts  --      2.7697                 1.5160                 1.5378
 IR Inten    --     24.7613                13.5375                 1.8925

                     55                     56                     57
                      A                      A                      A
 Frequencies --   1478.5481              1479.1137              1498.6443
 Red. masses --      1.0494                 1.0468                 1.0755
 Frc consts  --      1.3516                 1.3493                 1.4232
 IR Inten    --     11.5054                 7.5062                79.4601

                     58                     59                     60
                      A                      A                      A
 Frequencies --   1499.3079              1517.1963              1528.5636
 Red. masses --      1.0755                 4.1942                 4.1183
 Frc consts  --      1.4244                 5.6883                 5.6694
 IR Inten    --     90.2471               550.0946               346.7565

                     61                     62                     63
                      A                      A                      A
 Frequencies --   1602.2097              1611.5648              2986.7529
 Red. masses --      4.6404                 7.3505                 1.0346
 Frc consts  --      7.0184                11.2476                 5.4378
 IR Inten    --    263.0720                19.5445                82.1622

                     64                     65                     66
                      A                      A                      A
 Frequencies --   2987.9587              3038.0959              3038.4278
 Red. masses --      1.0348                 1.1050                 1.1051
 Frc consts  --      5.4433                 6.0089                 6.0108
 IR Inten    --    171.5558                73.5151                98.7962

                     67                     68                     69
                      A                      A                      A
 Frequencies --   3095.7076              3110.1211              3110.9079
 Red. masses --      1.0838                 1.0979                 1.0978
 Frc consts  --      6.1198                 6.2570                 6.2594
 IR Inten    --    100.8459                54.5279                41.7255

                     70                     71                     72
                      A                      A                      A
 Frequencies --   3119.7997              3200.1035              3215.4092
 Red. masses --      1.0926                 1.0860                 1.0918
 Frc consts  --      6.2657                 6.5522                 6.6509
 IR Inten    --    143.2549                34.4503                13.2121

 - Thermochemistry -
 -------------------
 Temperature   298.150 Kelvin.  Pressure   1.00000 Atm.
 Atom     1 has atomic number  6 and mass  12.00000

 Molecular mass:   218.05791 amu.
 Principal axes and moments of inertia in atomic units:
                           1         2         3
     Eigenvalues --  2510.941563627.693966098.55652
           X            0.96169  -0.27374   0.01475
           Y            0.27241   0.96029   0.06028
           Z           -0.03066  -0.05396   0.99807
 This molecule is an asymmetric top.
 Rotational symmetry number  1.
 Warning -- assumption of classical behavior for rotation
           may cause significant error
 Rotational temperatures (Kelvin)      0.03449     0.02388     0.01420
 Rotational constants (GHZ):           0.71875     0.49749     0.29593
 Zero-point vibrational energy     504522.7 (Joules/Mol)
                                  120.58382 (Kcal/Mol)
 Warning -- explicit consideration of  21 degrees of freedom as
           vibrations may cause significant error
 Vibrational temperatures:     72.31    81.92   134.46   155.06   162.28
          (Kelvin)            297.57   307.16   347.53   376.93   414.71
                              479.78   482.84   493.69   516.40   536.73
                              568.61   652.84   689.50   717.86   765.57
                              798.62   930.36   955.72   975.77   993.42
                             1057.85  1089.14  1099.10  1149.26  1178.30
                             1189.38  1239.10  1283.53  1324.00  1489.45
                             1535.01  1587.40  1643.30  1671.00  1671.61
                             1675.40  1700.25  1724.15  1726.46  1772.55
                             1784.05  1800.56  1855.97  1945.34  1951.76
                             2002.13  2036.96  2113.13  2118.65  2127.30
                             2128.11  2156.21  2157.17  2182.91  2199.26
                             2305.22  2318.68  4297.27  4299.01  4371.14
                             4371.62  4454.03  4474.77  4475.90  4488.70
                             4604.24  4626.26

 Zero-point correction=                           0.192163 (Hartree/Particle)
 Thermal correction to Energy=                    0.206086
 Thermal correction to Enthalpy=                  0.207031
 Thermal correction to Gibbs Free Energy=         0.151413
 Sum of electronic and zero-point Energies=           -764.403479
 Sum of electronic and thermal Energies=              -764.389555
 Sum of electronic and thermal Enthalpies=            -764.388611
 Sum of electronic and thermal Free Energies=         -764.444229

                     E (Thermal)             CV                S
                      KCal/Mol        Cal/Mol-Kelvin    Cal/Mol-Kelvin
 Total                  129.321             53.723            117.057
 Electronic               0.000              0.000              0.000
 Translational            0.889              2.981             42.042
 Rotational               0.889              2.981             32.385
 Vibrational            127.544             47.762             42.630
 Vibration     1          0.595              1.977              4.807
 Vibration     2          0.596              1.975              4.561
 Vibration     3          0.602              1.954              3.586
 Vibration     4          0.606              1.943              3.309
 Vibration     5          0.607              1.939              3.220
 Vibration     6          0.641              1.830              2.072
 Vibration     7          0.644              1.820              2.014
 Vibration     8          0.658              1.777              1.791
 Vibration     9          0.669              1.742              1.649
 Vibration    10          0.685              1.696              1.484
 Vibration    11          0.715              1.609              1.243
 Vibration    12          0.717              1.604              1.233
 Vibration    13          0.722              1.589              1.198
 Vibration    14          0.734              1.557              1.127
 Vibration    15          0.744              1.527              1.067
 Vibration    16          0.762              1.480              0.980
 Vibration    17          0.812              1.353              0.785
 Vibration    18          0.836              1.296              0.712
 Vibration    19          0.854              1.252              0.661
 Vibration    20          0.887              1.179              0.583
 Vibration    21          0.911              1.129              0.534

 Optimization completed.
    -- Stationary point found.
 Normal termination of Gaussian 16 at Sun Feb 11 04:01:00 2024.
