 Q-Chem 5.4, Q-Chem, Inc., Pleasanton, CA (2021)
 Q-Chem 5.4.0 for Intel X86 EM64T Linux

User input:
--------------------------------------------------------------
$molecule
0 1
O                  1.5152390000     -3.0271490000      0.0814600000
C                  1.3033730000     -1.8252150000      0.0436020000
C                  2.4168630000     -0.8482070000     -0.0072290000
C                  3.7398600000     -1.3009190000     -0.0115660000
C                  4.7851530000     -0.3869550000     -0.0592270000
C                  4.5129650000      0.9835660000     -0.1028330000
C                  3.1990920000      1.4373160000     -0.0986880000
C                  2.1405870000      0.5240620000     -0.0507530000
C                  0.7374630000      1.0506870000     -0.0476370000
O                  0.5700650000      2.2608490000     -0.0885850000
C                 -0.3950640000      0.0706920000      0.0036300000
C                 -1.7773950000      0.4909910000      0.0102350000
C                 -2.2084370000      1.8481510000     -0.0293330000
C                 -3.5465350000      2.1711030000     -0.0199380000
C                 -4.5403350000      1.1714600000      0.0290810000
C                 -4.1670360000     -0.1484160000      0.0682740000
C                 -2.7980230000     -0.5191590000      0.0601690000
C                 -2.4353430000     -1.8883940000      0.1014710000
C                 -1.1225280000     -2.2680610000      0.0948260000
C                 -0.0978470000     -1.2955820000      0.0461120000
H                  3.9222820000     -2.3677710000      0.0227870000
H                  5.8111910000     -0.7367940000     -0.0626130000
H                  5.3289110000      1.6964860000     -0.1400570000
H                  2.9694680000      2.4946230000     -0.1320580000
H                 -1.4687280000      2.6296370000     -0.0671460000
H                 -3.8387050000      3.2148550000     -0.0509210000
H                 -5.5889430000      1.4464150000      0.0356420000
H                 -4.9143800000     -0.9337310000      0.1063080000
H                 -3.2219080000     -2.6349020000      0.1387660000
H                 -0.8313090000     -3.3096380000      0.1262240000
$end
$rem
MAX_SCF_CYCLES=200
BASIS  =  6-311++G(d,p)
GUI  =  2
JOB_TYPE  =  SP
METHOD  =  B3LYP
SOLVENT_METHOD = COSMO
$end
$solvent
dielectric 37.219
opticaldielectric 1.43
$end

--------------------------------------------------------------

             Standard Nuclear Orientation (Angstroms)
    I     Atom           X                Y                Z
 ----------------------------------------------------------------
    1      O      -1.7275591083    -2.7904585916    -0.0001339532
    2      C      -1.3869618668    -1.6178720764    -0.0005261031
    3      C      -2.3883632434    -0.5250849685    -0.0003753632
    4      C      -3.7526366770    -0.8317541492    -0.0005712146
    5      C      -4.6930533040     0.1909167409    -0.0003759034
    6      C      -4.2742655387     1.5246829128     0.0000804871
    7      C      -2.9189511801     1.8333760413     0.0002935010
    8      C      -1.9653212668     0.8099732023     0.0000010422
    9      C      -0.5133924910     1.1814612667     0.0000880022
   10      O      -0.2161401148     2.3671378289     0.0018229241
   11      C       0.5066130605     0.0836340724    -0.0001055981
   12      C       1.9263747983     0.3516088366    -0.0001550595
   13      C       2.5016642826     1.6547924836    -0.0008546213
   14      C       3.8669253191     1.8307322358    -0.0010084970
   15      C       4.7468744190     0.7284543084    -0.0003901392
   16      C       4.2330247729    -0.5439131642     0.0002775065
   17      C       2.8318619849    -0.7640392579     0.0003197173
   18      C       2.3232357917    -2.0866678296     0.0007436743
   19      C       0.9769837274    -2.3217842400     0.0004902362
   20      C       0.0633937817    -1.2431680832     0.0000337084
   21      H      -4.0493472596    -1.8731924985    -0.0008866017
   22      H      -5.7509666483    -0.0456674818    -0.0005486975
   23      H      -5.0084017860     2.3224625576     0.0002708467
   24      H      -2.5763449880     2.8601962215     0.0006743585
   25      H       1.8507435779     2.5124763715    -0.0012795344
   26      H       4.2702603685     2.8372420413    -0.0015932862
   27      H       5.8191331711     0.8880888894    -0.0004641016
   28      H       4.8911219082    -1.4062340120     0.0007298565
   29      H       3.0245224702    -2.9146451255     0.0011933464
   30      H       0.5748347507    -3.3262508525     0.0005997936
 ----------------------------------------------------------------

    9    -842.6255665505      3.31e-06  Convergence criterion met
 Total energy in the final basis set =     -842.6255665505
    5    -842.6393113647      3.13e-06  Convergence criterion met
 Total energy in the final basis set =     -842.6393113647

                    Orbital Energies (a.u.)
 --------------------------------------------------------------

 Alpha MOs
 -- Occupied --
-19.1336 -19.1306 -10.2863 -10.2843 -10.2172 -10.2123 -10.2106 -10.2069
-10.2054 -10.2044 -10.1968 -10.1959 -10.1957 -10.1950 -10.1944 -10.1909
-10.1874 -10.1867 -10.1859 -10.1815  -1.0692  -1.0671  -0.8996  -0.8865
 -0.8495  -0.8102  -0.7859  -0.7765  -0.7656  -0.7432  -0.6920  -0.6636
 -0.6493  -0.6268  -0.6154  -0.5852  -0.5687  -0.5483  -0.5228  -0.5142
 -0.5011  -0.4883  -0.4744  -0.4645  -0.4630  -0.4572  -0.4503  -0.4491
 -0.4336  -0.4286  -0.4221  -0.4217  -0.4069  -0.3966  -0.3796  -0.3782
 -0.3683  -0.3623  -0.3560  -0.3453  -0.3063  -0.2881  -0.2841  -0.2772
 -0.2724  -0.2678  -0.2421

          Ground-State Mulliken Net Atomic Charges

     Atom                 Charge (a.u.)
  ----------------------------------------
      1 O                    -0.281301
      2 C                    -0.770155
      3 C                     0.085365
      4 C                    -0.025767
      5 C                    -0.454155
      6 C                    -0.438881
      7 C                     0.078897
      8 C                     0.131610
      9 C                    -0.617405
     10 O                    -0.248889
     11 C                     0.775406
     12 C                     0.941259
     13 C                    -0.569008
     14 C                    -0.516992
     15 C                    -0.310276
     16 C                    -0.453091
     17 C                     0.525227
     18 C                    -0.467650
     19 C                    -0.180927
     20 C                     0.752953
     21 H                     0.197509
     22 H                     0.226553
     23 H                     0.226890
     24 H                     0.195306
     25 H                     0.158248
     26 H                     0.226773
     27 H                     0.215581
     28 H                     0.185583
     29 H                     0.217143
     30 H                     0.194193
  ----------------------------------------
  Sum of atomic charges =     0.000000

                    Cartesian Multipole Moments
 -----------------------------------------------------------------
    Charge (ESU x 10^10)
                -0.0000
    Dipole Moment (Debye)
         X       0.8892      Y       0.4438      Z      -0.0036
       Tot       0.9938
    Quadrupole Moments (Debye-Ang)
        XX     -77.1196     XY     -11.0327     YY    -119.1827
        XZ       0.0032     YZ      -0.0142     ZZ    -119.1456

 Total job time:  97.13s(wall), 579.41s(cpu)
        *  Thank you very much for using Q-Chem.  Have a nice day.  *
