 Q-Chem 5.4, Q-Chem, Inc., Pleasanton, CA (2021)
 Q-Chem 5.4.0 for Intel X86 EM64T Linux

User input:
--------------------------------------------------------------
$molecule
-1 2
C                 -1.2160590000      2.8516290000      0.0180900000
C                 -2.5012300000      2.3503070000      0.0165190000
C                 -2.7335720000      0.9630670000      0.0150150000
C                 -0.1039200000      1.9824140000      0.0182230000
C                 -0.3276150000      0.5796980000      0.0167090000
C                 -1.6503700000      0.1026540000      0.0151310000
C                  1.2426170000      2.5622400000      0.0199260000
C                  2.3236540000      1.5927330000      0.0199110000
C                  2.1113030000      0.2274670000      0.0184490000
C                  0.8011950000     -0.3656660000      0.0167700000
O                  1.4374270000      3.8075680000      0.0212080000
O                  0.6277920000     -1.6123550000      0.0154910000
H                 -1.0183570000      3.9202990000      0.0192670000
H                 -1.7921740000     -0.9723660000      0.0139940000
O                  3.5726410000      2.1627170000      0.0214890000
O                 -3.6148940000      3.1769170000      0.0163460000
H                 -3.7538730000      0.5958620000      0.0137970000
H                  2.9363850000     -0.4740110000      0.0184930000
C                  4.6940310000      1.3083840000      0.0214990000
H                 -3.3036680000      4.0878460000      0.0174640000
H                  5.5691170000      1.9606840000      0.0227880000
H                  4.7215540000      0.6683940000     -0.8700120000
H                  4.7202240000      0.6666640000      0.9118060000
$end
$rem
MAX_SCF_CYCLES=200
BASIS  =  6-311++G(d,p)
GUI  =  2
JOB_TYPE  =  SP
METHOD  =  B3LYP
SOLVENT_METHOD = PCM
$end
$pcm
theory = CPCM
$end
$solvent
dielectric 37.219
opticaldielectric 1.43
$end

--------------------------------------------------------------

             Standard Nuclear Orientation (Angstroms)
    I     Atom           X                Y                Z
 ----------------------------------------------------------------
    1      C      -1.2160590000     2.8516290000     0.0180900000
    2      C      -2.5012300000     2.3503070000     0.0165190000
    3      C      -2.7335720000     0.9630670000     0.0150150000
    4      C      -0.1039200000     1.9824140000     0.0182230000
    5      C      -0.3276150000     0.5796980000     0.0167090000
    6      C      -1.6503700000     0.1026540000     0.0151310000
    7      C       1.2426170000     2.5622400000     0.0199260000
    8      C       2.3236540000     1.5927330000     0.0199110000
    9      C       2.1113030000     0.2274670000     0.0184490000
   10      C       0.8011950000    -0.3656660000     0.0167700000
   11      O       1.4374270000     3.8075680000     0.0212080000
   12      O       0.6277920000    -1.6123550000     0.0154910000
   13      H      -1.0183570000     3.9202990000     0.0192670000
   14      H      -1.7921740000    -0.9723660000     0.0139940000
   15      O       3.5726410000     2.1627170000     0.0214890000
   16      O      -3.6148940000     3.1769170000     0.0163460000
   17      H      -3.7538730000     0.5958620000     0.0137970000
   18      H       2.9363850000    -0.4740110000     0.0184930000
   19      C       4.6940310000     1.3083840000     0.0214990000
   20      H      -3.3036680000     4.0878460000     0.0174640000
   21      H       5.5691170000     1.9606840000     0.0227880000
   22      H       4.7215540000     0.6683940000    -0.8700120000
   23      H       4.7202240000     0.6666640000     0.9118060000
 ----------------------------------------------------------------

    9    -725.2275501632      4.51e-06  Convergence criterion met
 Total energy in the final basis set =     -725.2275501632

                    Orbital Energies (a.u.)
 --------------------------------------------------------------

 Alpha MOs
 -- Occupied --
-19.1545 -19.1539 -19.0790 -19.0758 -10.2360 -10.2288 -10.2261 -10.2227
-10.2130 -10.1777 -10.1742 -10.1710 -10.1685 -10.1679 -10.1564  -1.0697
 -1.0597  -1.0014  -0.9997  -0.8584  -0.8032  -0.7531  -0.7432  -0.7126
 -0.6649  -0.6327  -0.6018  -0.5680  -0.5484  -0.5217  -0.5056  -0.4744
 -0.4682  -0.4681  -0.4360  -0.4276  -0.4227  -0.4212  -0.4120  -0.4068
 -0.4011  -0.3857  -0.3812  -0.3659  -0.3469  -0.3388  -0.3355  -0.3224
 -0.2650  -0.2504  -0.2489  -0.2416  -0.2279  -0.1502

 Beta MOs
 -- Occupied --
-19.1538 -19.1537 -19.0723 -19.0708 -10.2359 -10.2274 -10.2247 -10.2201
-10.2131 -10.1773 -10.1744 -10.1705 -10.1679 -10.1673 -10.1556  -1.0677
 -1.0595  -0.9922  -0.9884  -0.8563  -0.7984  -0.7512  -0.7413  -0.7102
 -0.6574  -0.6314  -0.5989  -0.5649  -0.5478  -0.5199  -0.5034  -0.4715
 -0.4671  -0.4644  -0.4342  -0.4271  -0.4191  -0.4164  -0.4079  -0.4026
 -0.3910  -0.3848  -0.3645  -0.3583  -0.3459  -0.3341  -0.3333  -0.3089
 -0.2514  -0.2433  -0.2366  -0.2353  -0.2230

          Ground-State Mulliken Net Atomic Charges

     Atom                 Charge (a.u.)    Spin (a.u.)
  --------------------------------------------------------
      1 C                     0.347635       0.088512
      2 C                    -0.634159       0.004040
      3 C                    -0.214942       0.039648
      4 C                     0.539167       0.013476
      5 C                     0.018229       0.017001
      6 C                     0.185179       0.004611
      7 C                    -0.644105       0.151382
      8 C                    -0.388963       0.116907
      9 C                     0.439619       0.050436
     10 C                    -0.337229       0.078145
     11 O                    -0.518345       0.252507
     12 O                    -0.520169       0.177076
     13 H                     0.160132      -0.005708
     14 H                     0.175762      -0.000772
     15 O                    -0.223114       0.017796
     16 O                    -0.308445       0.002647
     17 H                     0.219262      -0.003083
     18 H                     0.213694      -0.006522
     19 C                    -0.358109      -0.000391
     20 H                     0.317538      -0.000159
     21 H                     0.197445      -0.000130
     22 H                     0.166960       0.001290
     23 H                     0.166958       0.001291
  --------------------------------------------------------
  Sum of atomic charges =    -1.000000

                    Cartesian Multipole Moments
 -----------------------------------------------------------------
    Charge (ESU x 10^10)
                -4.8032
    Dipole Moment (Debye)
         X      -2.4402      Y      -5.4046      Z      -0.0863
       Tot       5.9305
    Quadrupole Moments (Debye-Ang)
        XX     -90.9566     XY     -15.0240     YY    -128.5702
        XZ      -0.0542     YZ      -0.1357     ZZ     -92.0436

 Total job time:  36.33s(wall), 250.91s(cpu)
        *  Thank you very much for using Q-Chem.  Have a nice day.  *
