 Gaussian 16, Revision A.03,
 Gaussian 16:  ES64L-G16RevA.03 25-Dec-2016

 --------------------------------------
 #P UB3LYP/6-311++G(d,p) nosym opt freq
 --------------------------------------

 -------
 Radical
 -------
 Symbolic Z-matrix:
 Charge = -1 Multiplicity = 2

 SCF Done:  E(UB3LYP) =  -725.134703090     A.U. after   24 cycles
 SCF Done:  E(UB3LYP) =  -725.134703006     A.U. after   11 cycles
 SCF Done:  E(UB3LYP) =  -725.134703212     A.U. after   10 cycles
 Optimization completed.
    -- Stationary point found.
 Normal termination of Gaussian 16 at Sun Jan  7 20:24:11 2024.

 ----------------------------------------------------------------------
 #P Geom=AllCheck Guess=TCheck SCRF=Check GenChk UB3LYP/6-311++G(d,p) F
 req
 ----------------------------------------------------------------------

 Structure from the checkpoint file:  "259-rad.chk"
 -------
 Radical
 -------
 Charge = -1 Multiplicity = 2

                          Input orientation:
 ---------------------------------------------------------------------
 Center     Atomic      Atomic             Coordinates (Angstroms)
 Number     Number       Type             X           Y           Z
 ---------------------------------------------------------------------
      1          6           0       -1.216059    2.851629    0.018090
      2          6           0       -2.501230    2.350307    0.016519
      3          6           0       -2.733572    0.963067    0.015015
      4          6           0       -0.103920    1.982414    0.018223
      5          6           0       -0.327615    0.579698    0.016709
      6          6           0       -1.650370    0.102654    0.015131
      7          6           0        1.242617    2.562240    0.019926
      8          6           0        2.323654    1.592733    0.019911
      9          6           0        2.111303    0.227467    0.018449
     10          6           0        0.801195   -0.365666    0.016770
     11          8           0        1.437427    3.807568    0.021208
     12          8           0        0.627792   -1.612355    0.015491
     13          1           0       -1.018357    3.920299    0.019267
     14          1           0       -1.792174   -0.972366    0.013994
     15          8           0        3.572641    2.162717    0.021489
     16          8           0       -3.614894    3.176917    0.016346
     17          1           0       -3.753873    0.595862    0.013797
     18          1           0        2.936385   -0.474011    0.018493
     19          6           0        4.694031    1.308384    0.021499
     20          1           0       -3.303668    4.087846    0.017464
     21          1           0        5.569117    1.960684    0.022788
     22          1           0        4.721554    0.668394   -0.870012
     23          1           0        4.720224    0.666664    0.911806
 ---------------------------------------------------------------------

 SCF Done:  E(UB3LYP) =  -725.134703212     A.U. after    1 cycles

 Alpha  occ. eigenvalues --  -19.04605 -19.03202 -18.93774 -18.93514 -10.11695
 Alpha  occ. eigenvalues --  -10.11519 -10.09833 -10.08907 -10.08474 -10.05110
 Alpha  occ. eigenvalues --  -10.05002 -10.04821 -10.04528 -10.03921 -10.02777
 Alpha  occ. eigenvalues --   -0.95169  -0.94787  -0.86029  -0.85809  -0.73185
 Alpha  occ. eigenvalues --   -0.67550  -0.62872  -0.62268  -0.59536  -0.53833
 Alpha  occ. eigenvalues --   -0.51317  -0.48085  -0.44276  -0.43060  -0.40290
 Alpha  occ. eigenvalues --   -0.37885  -0.35906  -0.35135  -0.34714  -0.31405
 Alpha  occ. eigenvalues --   -0.30706  -0.30176  -0.30071  -0.27947  -0.27726
 Alpha  occ. eigenvalues --   -0.26871  -0.26393  -0.24250  -0.24135  -0.22473
 Alpha  occ. eigenvalues --   -0.21808  -0.21087  -0.19500  -0.13529  -0.12165
 Alpha  occ. eigenvalues --   -0.10588  -0.10357  -0.10018  -0.01353
 Alpha virt. eigenvalues --    0.07977   0.08153   0.09428   0.10012   0.11081
 Alpha virt. eigenvalues --    0.11893   0.12233   0.12338   0.13583   0.14136
 Alpha virt. eigenvalues --    0.15094   0.16156   0.16189   0.17540   0.17640

  Beta  occ. eigenvalues --  -19.04599 -19.03137 -18.93022 -18.92958 -10.11699
  Beta  occ. eigenvalues --  -10.11506 -10.09687 -10.08811 -10.08289 -10.05073
  Beta  occ. eigenvalues --  -10.05014 -10.04753 -10.04488 -10.03846 -10.02681
  Beta  occ. eigenvalues --   -0.95153  -0.94629  -0.85023  -0.84560  -0.72986
  Beta  occ. eigenvalues --   -0.67073  -0.62714  -0.62079  -0.59371  -0.53030
  Beta  occ. eigenvalues --   -0.51204  -0.47816  -0.44000  -0.43009  -0.40117
  Beta  occ. eigenvalues --   -0.37694  -0.35712  -0.34994  -0.34512  -0.31275
  Beta  occ. eigenvalues --   -0.30632  -0.30049  -0.29776  -0.27629  -0.26504
  Beta  occ. eigenvalues --   -0.26500  -0.25920  -0.23994  -0.22674  -0.22373
  Beta  occ. eigenvalues --   -0.20849  -0.20576  -0.18164  -0.12221  -0.10248
  Beta  occ. eigenvalues --   -0.09950  -0.09720  -0.09426
  Beta virt. eigenvalues --    0.05340   0.07978   0.08145   0.10005   0.10036
  Beta virt. eigenvalues --    0.11084   0.12063   0.12351   0.13157   0.13587
  Beta virt. eigenvalues --    0.14146   0.15102   0.16195   0.16406   0.17547

 Mulliken charges and spin densities:
               1          2
     1  C    0.200618   0.074317
     2  C   -0.519679   0.005201
     3  C   -0.079223   0.044760
     4  C    0.696930   0.038114
     5  C    0.119092   0.031477
     6  C    0.189955  -0.005315
     7  C   -0.849859   0.097132
     8  C   -0.299431   0.123441
     9  C    0.490646   0.063760
    10  C   -0.646537   0.042955
    11  O   -0.397839   0.285425
    12  O   -0.405911   0.200756
    13  H    0.117514  -0.005538
    14  H    0.160206  -0.000552
    15  O   -0.155601   0.012176
    16  O   -0.270566   0.002037
    17  H    0.153000  -0.003652
    18  H    0.158353  -0.007478
    19  C   -0.333539   0.000522
    20  H    0.252768  -0.000145
    21  H    0.155945  -0.000180
    22  H    0.131581   0.000394
    23  H    0.131577   0.000394
 Sum of Mulliken charges =  -1.00000   1.00000

 Dipole moment (field-independent basis, Debye):
    X=             -1.7408    Y=             -5.6927    Z=             -0.0859  Tot=              5.9535
 Quadrupole moment (field-independent basis, Debye-Ang):
   XX=           -103.0189   YY=           -127.1293   ZZ=            -92.3385
   XY=             -9.8417   XZ=             -0.0475   YZ=             -0.1344

  Exact polarizability: 234.270  -6.331 192.767   0.120   0.095  84.805
 Approx polarizability: 330.996   4.962 356.164   0.174   0.215 130.863

                      1                      2                      3
                      A                      A                      A
 Frequencies --     51.4987               104.5814               110.9510
 Red. masses --      4.1564                 5.2193                 5.2737
 Frc consts  --      0.0065                 0.0336                 0.0382
 IR Inten    --      7.5079                 0.0699                 0.0801

                      4                      5                      6
                      A                      A                      A
 Frequencies --    158.6591               185.7904               197.2834
 Red. masses --      6.2601                 4.7388                 2.3496
 Frc consts  --      0.0928                 0.0964                 0.0539
 IR Inten    --      4.9495                 4.8016                 0.6315

                      7                      8                      9
                      A                      A                      A
 Frequencies --    240.1870               262.5919               297.8429
 Red. masses --      5.6679                 1.5717                 1.8521
 Frc consts  --      0.1927                 0.0639                 0.0968
 IR Inten    --      1.2097                 5.3829                32.8734

                     10                     11                     12
                      A                      A                      A
 Frequencies --    321.9582               336.1888               345.3911
 Red. masses --      1.7790                 6.6565                 8.1326
 Frc consts  --      0.1086                 0.4433                 0.5716
 IR Inten    --     66.0349                 0.8658                 7.4824

                     13                     14                     15
                      A                      A                      A
 Frequencies --    394.9610               403.8046               463.1933
 Red. masses --      6.0935                 5.0018                 7.2887
 Frc consts  --      0.5601                 0.4805                 0.9214
 IR Inten    --      8.5029                 0.6529                 3.0630

                     16                     17                     18
                      A                      A                      A
 Frequencies --    470.9174               474.6661               517.4314
 Red. masses --      3.7454                 6.4652                 7.4508
 Frc consts  --      0.4894                 0.8582                 1.1753
 IR Inten    --      7.9607                24.5885                 1.7095

                     19                     20                     21
                      A                      A                      A
 Frequencies --    561.5506               649.0705               664.5642
 Red. masses --      4.8851                 2.9126                 7.2903
 Frc consts  --      0.9076                 0.7230                 1.8970
 IR Inten    --      0.1515                 2.5697                 1.5014

                     22                     23                     24
                      A                      A                      A
 Frequencies --    680.4173               716.2293               724.6351
 Red. masses --      6.0058                 5.8365                 5.1338
 Frc consts  --      1.6382                 1.7640                 1.5883
 IR Inten    --     10.7263                 2.5946                 0.2506

                     25                     26                     27
                      A                      A                      A
 Frequencies --    766.4190               767.0183               806.2235
 Red. masses --      6.0061                 4.1310                 1.4022
 Frc consts  --      2.0786                 1.4319                 0.5370
 IR Inten    --     23.5655                 2.9086                51.1277

                     28                     29                     30
                      A                      A                      A
 Frequencies --    825.6916               877.4075               893.7931
 Red. masses --      1.9874                 1.4712                 4.8853
 Frc consts  --      0.7983                 0.6673                 2.2994
 IR Inten    --     10.5303                19.8896                70.3919

                     31                     32                     33
                      A                      A                      A
 Frequencies --    975.4690               984.0727              1075.3973
 Red. masses --      1.3018                 3.6964                 2.9683
 Frc consts  --      0.7298                 2.1091                 2.0225
 IR Inten    --      1.5482                25.5493                43.1776

                     34                     35                     36
                      A                      A                      A
 Frequencies --   1107.2589              1142.1351              1164.4404
 Red. masses --      2.3668                 2.0162                 1.2827
 Frc consts  --      1.7097                 1.5496                 1.0247
 IR Inten    --     31.2814                17.7517                 0.5731

                     37                     38                     39
                      A                      A                      A
 Frequencies --   1165.4575              1179.9084              1189.9759
 Red. masses --      2.3049                 1.8783                 1.9507
 Frc consts  --      1.8445                 1.5407                 1.6275
 IR Inten    --     19.2582                61.6414               283.9385

                     40                     41                     42
                      A                      A                      A
 Frequencies --   1226.4692              1237.8158              1263.8374
 Red. masses --      2.1522                 2.0030                 2.6929
 Frc consts  --      1.9074                 1.8082                 2.5342
 IR Inten    --    277.0546                78.6685                14.9877

                     43                     44                     45
                      A                      A                      A
 Frequencies --   1303.5222              1366.4975              1394.3152
 Red. masses --      2.1415                 7.3547                 3.3837
 Frc consts  --      2.1439                 8.0916                 3.8758
 IR Inten    --     28.9428                 4.0019               188.3996

                     46                     47                     48
                      A                      A                      A
 Frequencies --   1457.4082              1463.9854              1480.6755
 Red. masses --      2.4288                 2.0528                 2.6636
 Frc consts  --      3.0395                 2.5923                 3.4406
 IR Inten    --     54.8310                52.2210                55.1457

                     49                     50                     51
                      A                      A                      A
 Frequencies --   1482.8119              1505.4484              1518.8516
 Red. masses --      1.0471                 1.0611                 5.0929
 Frc consts  --      1.3564                 1.4169                 6.9222
 IR Inten    --      5.1472                32.5936               115.1360

                     52                     53                     54
                      A                      A                      A
 Frequencies --   1540.8885              1567.1005              1618.4822
 Red. masses --      6.9439                 5.4400                 7.2620
 Frc consts  --      9.7140                 7.8712                11.2079
 IR Inten    --    556.9596                58.4684                74.3082

                     55                     56                     57
                      A                      A                      A
 Frequencies --   1640.7393              2977.5851              3023.8660
 Red. masses --      7.1289                 1.0347                 1.1043
 Frc consts  --     11.3071                 5.4049                 5.9493
 IR Inten    --    169.5939               104.5937                60.6387

                     58                     59                     60
                      A                      A                      A
 Frequencies --   3094.1730              3147.1768              3165.4609
 Red. masses --      1.0973                 1.0892                 1.0867
 Frc consts  --      6.1898                 6.3564                 6.4158
 IR Inten    --     55.2328                19.7325                 6.3817

                     61                     62                     63
                      A                      A                      A
 Frequencies --   3183.1467              3184.4128              3832.1309
 Red. masses --      1.0930                 1.0885                 1.0657
 Frc consts  --      6.5249                 6.5033                 9.2209
 IR Inten    --     28.7265                12.0990                36.3195

 - Thermochemistry -
 -------------------
 Temperature   298.150 Kelvin.  Pressure   1.00000 Atm.
 Atom     1 has atomic number  6 and mass  12.00000

 Molecular mass:   204.04226 amu.
 Principal axes and moments of inertia in atomic units:
                           1         2         3
     Eigenvalues --  1618.858244212.489235819.92104
           X            0.99229   0.12397  -0.00084
           Y           -0.12397   0.99229  -0.00093
           Z            0.00072   0.00103   1.00000
 This molecule is an asymmetric top.
 Rotational symmetry number  1.
 Warning -- assumption of classical behavior for rotation
           may cause significant error
 Rotational temperatures (Kelvin)      0.05350     0.02056     0.01488
 Rotational constants (GHZ):           1.11482     0.42843     0.31010
 Zero-point vibrational energy     436229.2 (Joules/Mol)
                                  104.26129 (Kcal/Mol)
 Warning -- explicit consideration of  19 degrees of freedom as
           vibrations may cause significant error
 Vibrational temperatures:     74.10   150.47   159.63   228.28   267.31
          (Kelvin)            283.85   345.58   377.81   428.53   463.23
                              483.70   496.94   568.26   580.98   666.43
                              677.55   682.94   744.47   807.95   933.87
                              956.16   978.97  1030.49  1042.59  1102.71
                             1103.57  1159.98  1187.99  1262.39  1285.97
                             1403.48  1415.86  1547.26  1593.10  1643.28
                             1675.37  1676.83  1697.62  1712.11  1764.62
                             1780.94  1818.38  1875.48  1966.09  2006.11
                             2096.89  2106.35  2130.36  2133.44  2166.00
                             2185.29  2216.99  2254.71  2328.63  2360.66
                             4284.08  4350.67  4451.82  4528.09  4554.39
                             4579.84  4581.66  5513.58

 Zero-point correction=                           0.166151 (Hartree/Particle)
 Thermal correction to Energy=                    0.178691
 Thermal correction to Enthalpy=                  0.179635
 Thermal correction to Gibbs Free Energy=         0.126827
 Sum of electronic and zero-point Energies=           -724.968552
 Sum of electronic and thermal Energies=              -724.956012
 Sum of electronic and thermal Enthalpies=            -724.955068
 Sum of electronic and thermal Free Energies=         -725.007876

                     E (Thermal)             CV                S
                      KCal/Mol        Cal/Mol-Kelvin    Cal/Mol-Kelvin
 Total                  112.130             48.753            111.143
 Electronic               0.000              0.000              1.377
 Translational            0.889              2.981             41.844
 Rotational               0.889              2.981             32.051
 Vibrational            110.353             42.791             35.871
 Vibration     1          0.596              1.977              4.759
 Vibration     2          0.605              1.946              3.367
 Vibration     3          0.607              1.940              3.252
 Vibration     4          0.621              1.893              2.566
 Vibration     5          0.632              1.859              2.269
 Vibration     6          0.637              1.844              2.158
 Vibration     7          0.657              1.779              1.801
 Vibration     8          0.670              1.741              1.644
 Vibration     9          0.691              1.678              1.429
 Vibration    10          0.707              1.631              1.300
 Vibration    11          0.717              1.603              1.230
 Vibration    12          0.724              1.585              1.187
 Vibration    13          0.762              1.481              0.981
 Vibration    14          0.769              1.462              0.949
 Vibration    15          0.821              1.332              0.757
 Vibration    16          0.828              1.315              0.735
 Vibration    17          0.831              1.306              0.725
 Vibration    18          0.872              1.211              0.616
 Vibration    19          0.917              1.114              0.521

 Optimization completed.
    -- Stationary point found.
 Normal termination of Gaussian 16 at Sun Jan  7 20:56:21 2024.
