 Q-Chem 5.4, Q-Chem, Inc., Pleasanton, CA (2021)
 Q-Chem 5.4.0 for Intel X86 EM64T Linux

User input:
--------------------------------------------------------------
$molecule
-2 1
N                 -4.5338230000     -0.9670600000     -0.7652350000
C                 -3.2386010000     -0.6782160000     -0.2397240000
C                 -3.0436480000     -0.7364740000      1.1701450000
C                 -1.7904220000     -0.5066880000      1.6988710000
C                 -0.6617610000     -0.2312270000      0.8920010000
C                  0.6310620000     -0.0235670000      1.5219440000
O                  0.8011990000     -0.0857720000      2.7881300000
C                  1.7141830000      0.2689830000      0.6009420000
C                  3.0172090000      0.4885840000      1.1091790000
C                  4.0919560000      0.7696770000      0.2885390000
C                  3.8964060000      0.8419360000     -1.1196490000
C                  2.6385200000      0.6336770000     -1.6468460000
C                  1.5128300000      0.3460710000     -0.8320080000
C                  0.2219080000      0.1369680000     -1.4565550000
O                  0.0505780000      0.2032010000     -2.7262300000
C                 -0.8580150000     -0.1596230000     -0.5359370000
C                 -2.1639690000     -0.3807430000     -1.0505230000
H                 -5.2816890000     -0.5321040000     -0.2206830000
H                 -4.6250410000     -0.6604220000     -1.7293300000
H                 -3.8839200000     -0.9822730000      1.8158910000
H                 -1.6228890000     -0.5471120000      2.7706880000
H                  3.1316570000      0.4255410000      2.1871730000
H                  5.0809020000      0.9332060000      0.7130290000
H                  4.7366500000      1.0613920000     -1.7764430000
H                  2.4586320000      0.6830890000     -2.7164180000
H                 -2.2799170000     -0.3010440000     -2.1282800000
$end
$rem
MAX_SCF_CYCLES=200
BASIS  =  6-311++G(d,p)
GUI  =  2
JOB_TYPE  =  SP
METHOD  =  B3LYP
SOLVENT_METHOD = COSMO
$end
$solvent
dielectric 37.219
opticaldielectric 1.43
$end

--------------------------------------------------------------

             Standard Nuclear Orientation (Angstroms)
    I     Atom           X                Y                Z
 ----------------------------------------------------------------
    1      N       4.6923528222    -0.8142440813    -0.0901395137
    2      C       3.3752030071    -0.2688043392    -0.0208246585
    3      C       3.2208798570     1.1472197327    -0.0069878612
    4      C       1.9566270128     1.6987546535     0.0130663924
    5      C       0.7815284885     0.9115205980    -0.0010620288
    6      C      -0.5153459800     1.5668499106    -0.0025697144
    7      O      -0.6471375679     2.8391156411     0.0011633653
    8      C      -1.6512331549     0.6631162903     0.0001054481
    9      C      -2.9626465926     1.1965949338    -0.0011340207
   10      C      -4.0862649895     0.3934602404    -0.0002618449
   11      C      -3.9340955986    -1.0219192409    -0.0001646552
   12      C      -2.6695055464    -1.5736380027     0.0018563639
   13      C      -1.4947743995    -0.7774862310     0.0041460241
   14      C      -0.1993811474    -1.4272699891     0.0042878077
   15      O      -0.0672793527    -2.7033438397     0.0044564130
   16      C       0.9341640230    -0.5235223836    -0.0029937808
   17      C       2.2486339619    -1.0633162416    -0.0031565291
   18      H       5.3490485313    -0.3273460043     0.5236260480
   19      H       4.7038611786    -1.8004440480     0.1529735031
   20      H       4.1045833989     1.7811471718    -0.0327973733
   21      H       1.8196022620     2.7756050549     0.0235791546
   22      H      -3.0430596685     2.2794970717    -0.0018589832
   23      H      -5.0802623433     0.8372123297    -0.0012761293
   24      H      -4.8127595751    -1.6649575477    -0.0009560379
   25      H      -2.5221092072    -2.6493048047     0.0027233838
   26      H       2.3272273855    -2.1472346532     0.0141631482
 ----------------------------------------------------------------

   17    -744.2999750520      8.34e-06  Convergence criterion met
 Total energy in the final basis set =     -744.2999750520
    6    -744.5800904767      3.73e-06  Convergence criterion met
 Total energy in the final basis set =     -744.5800904767

                    Orbital Energies (a.u.)
 --------------------------------------------------------------

 Alpha MOs
 -- Occupied --
-19.0280 -19.0229 -14.3023 -10.1894 -10.1790 -10.1724 -10.1507 -10.1492
-10.1488 -10.1473 -10.1464 -10.1452 -10.1388 -10.1383 -10.1363 -10.1359
-10.1355  -0.9489  -0.9421  -0.8958  -0.8255  -0.8130  -0.7475  -0.7233
 -0.7211  -0.7004  -0.6344  -0.6112  -0.5854  -0.5643  -0.5278  -0.5107
 -0.5011  -0.4773  -0.4526  -0.4388  -0.4296  -0.4162  -0.4018  -0.3981
 -0.3869  -0.3809  -0.3739  -0.3687  -0.3618  -0.3525  -0.3320  -0.3234
 -0.3198  -0.3169  -0.3017  -0.2795  -0.2348  -0.2280  -0.2242  -0.2091
 -0.2007  -0.1981  -0.1064

          Ground-State Mulliken Net Atomic Charges

     Atom                 Charge (a.u.)
  ----------------------------------------
      1 N                    -0.440609
      2 C                    -0.446437
      3 C                    -0.286999
      4 C                     0.008995
      5 C                     0.174699
      6 C                    -0.365291
      7 O                    -0.689275
      8 C                     0.189292
      9 C                    -0.009498
     10 C                    -0.540262
     11 C                    -0.521252
     12 C                    -0.007503
     13 C                     0.239611
     14 C                    -0.632350
     15 O                    -0.710216
     16 C                     0.381823
     17 C                    -0.061163
     18 H                     0.271343
     19 H                     0.283340
     20 H                     0.198433
     21 H                     0.156153
     22 H                     0.153281
     23 H                     0.175739
     24 H                     0.178058
     25 H                     0.153170
     26 H                     0.146916
  ----------------------------------------
  Sum of atomic charges =    -2.000000

                    Cartesian Multipole Moments
 -----------------------------------------------------------------
    Charge (ESU x 10^10)
                -9.6064
    Dipole Moment (Debye)
         X       4.8913      Y      -0.5297      Z       1.6141
       Tot       5.1779
    Quadrupole Moments (Debye-Ang)
        XX    -118.8818     XY       2.7021     YY    -159.4920
        XZ       8.7694     YZ      -1.1724     ZZ    -112.6113

 Total job time:  80.40s(wall), 621.60s(cpu)
        *  Thank you very much for using Q-Chem.  Have a nice day.  *
