 Gaussian 16, Revision A.03,
 Gaussian 16:  ES64L-G16RevA.03 25-Dec-2016

 --------------------------------------
 #P UB3LYP/6-311++G(d,p) nosym opt freq
 --------------------------------------

 -------
 Reduced
 -------
 Symbolic Z-matrix:
 Charge = -2 Multiplicity = 1

 SCF Done:  E(UB3LYP) =  -744.300106922     A.U. after   38 cycles
 Optimization completed.
    -- Stationary point found.
 Normal termination of Gaussian 16 at Wed Dec 27 20:44:21 2023.

 ----------------------------------------------------------------------
 #P Geom=AllCheck Guess=TCheck SCRF=Check GenChk UB3LYP/6-311++G(d,p) F
 req
 ----------------------------------------------------------------------

 Structure from the checkpoint file:  "151-an.chk"
 -------
 Reduced
 -------
 Charge = -2 Multiplicity = 1

                          Input orientation:
 ---------------------------------------------------------------------
 Center     Atomic      Atomic             Coordinates (Angstroms)
 Number     Number       Type             X           Y           Z
 ---------------------------------------------------------------------
      1          7           0       -4.533823   -0.967060   -0.765235
      2          6           0       -3.238601   -0.678216   -0.239724
      3          6           0       -3.043648   -0.736474    1.170145
      4          6           0       -1.790422   -0.506688    1.698871
      5          6           0       -0.661761   -0.231227    0.892001
      6          6           0        0.631062   -0.023567    1.521944
      7          8           0        0.801199   -0.085772    2.788130
      8          6           0        1.714183    0.268983    0.600942
      9          6           0        3.017209    0.488584    1.109179
     10          6           0        4.091956    0.769677    0.288539
     11          6           0        3.896406    0.841936   -1.119649
     12          6           0        2.638520    0.633677   -1.646846
     13          6           0        1.512830    0.346071   -0.832008
     14          6           0        0.221908    0.136968   -1.456555
     15          8           0        0.050578    0.203201   -2.726230
     16          6           0       -0.858015   -0.159623   -0.535937
     17          6           0       -2.163969   -0.380743   -1.050523
     18          1           0       -5.281689   -0.532104   -0.220683
     19          1           0       -4.625041   -0.660422   -1.729330
     20          1           0       -3.883920   -0.982273    1.815891
     21          1           0       -1.622889   -0.547112    2.770688
     22          1           0        3.131657    0.425541    2.187173
     23          1           0        5.080902    0.933206    0.713029
     24          1           0        4.736650    1.061392   -1.776443
     25          1           0        2.458632    0.683089   -2.716418
     26          1           0       -2.279917   -0.301044   -2.128280
 ---------------------------------------------------------------------

 SCF Done:  E(UB3LYP) =  -744.300106922     A.U. after    2 cycles

 Alpha  occ. eigenvalues --  -18.79712 -18.79125 -14.09740  -9.96966  -9.95477
 Alpha  occ. eigenvalues --   -9.94904  -9.93845  -9.93732  -9.93201  -9.93044
 Alpha  occ. eigenvalues --   -9.92965  -9.92914  -9.91907  -9.91483  -9.91446
 Alpha  occ. eigenvalues --   -9.91441  -9.91122  -0.71505  -0.70750  -0.68707
 Alpha  occ. eigenvalues --   -0.60618  -0.59211  -0.52786  -0.50465  -0.49946
 Alpha  occ. eigenvalues --   -0.48135  -0.41258  -0.39341  -0.36766  -0.34670
 Alpha  occ. eigenvalues --   -0.30788  -0.29521  -0.28409  -0.26897  -0.23754
 Alpha  occ. eigenvalues --   -0.22186  -0.20993  -0.19897  -0.18238  -0.17827
 Alpha  occ. eigenvalues --   -0.16395  -0.15535  -0.15167  -0.14351  -0.13440
 Alpha  occ. eigenvalues --   -0.12889  -0.10438  -0.10115  -0.09785  -0.09375
 Alpha  occ. eigenvalues --   -0.07668  -0.05695  -0.01223  -0.00014   0.00381
 Alpha  occ. eigenvalues --    0.02415   0.02726   0.03509   0.12777
 Alpha virt. eigenvalues --    0.14557   0.15636   0.17190   0.17396   0.19135
 Alpha virt. eigenvalues --    0.19535   0.20051   0.20766   0.21844   0.22287
 Alpha virt. eigenvalues --    0.23006   0.23844   0.24785   0.25308   0.26221

  Beta  occ. eigenvalues --  -18.79712 -18.79125 -14.09740  -9.96966  -9.95477
  Beta  occ. eigenvalues --   -9.94904  -9.93845  -9.93732  -9.93201  -9.93044
  Beta  occ. eigenvalues --   -9.92965  -9.92914  -9.91907  -9.91483  -9.91446
  Beta  occ. eigenvalues --   -9.91441  -9.91122  -0.71505  -0.70750  -0.68707
  Beta  occ. eigenvalues --   -0.60618  -0.59211  -0.52786  -0.50465  -0.49946
  Beta  occ. eigenvalues --   -0.48135  -0.41258  -0.39341  -0.36766  -0.34670
  Beta  occ. eigenvalues --   -0.30788  -0.29521  -0.28409  -0.26897  -0.23754
  Beta  occ. eigenvalues --   -0.22186  -0.20993  -0.19897  -0.18238  -0.17827
  Beta  occ. eigenvalues --   -0.16395  -0.15535  -0.15167  -0.14351  -0.13440
  Beta  occ. eigenvalues --   -0.12889  -0.10438  -0.10115  -0.09785  -0.09375
  Beta  occ. eigenvalues --   -0.07668  -0.05695  -0.01223  -0.00014   0.00381
  Beta  occ. eigenvalues --    0.02415   0.02726   0.03509   0.12777
  Beta virt. eigenvalues --    0.14557   0.15636   0.17190   0.17396   0.19135
  Beta virt. eigenvalues --    0.19535   0.20051   0.20766   0.21844   0.22287
  Beta virt. eigenvalues --    0.23006   0.23844   0.24785   0.25308   0.26221

 Mulliken charges and spin densities:
               1          2
     1  N   -0.313742   0.000000
     2  C   -0.347952  -0.000000
     3  C   -0.591015  -0.000000
     4  C    0.097637  -0.000000
     5  C    0.384409  -0.000000
     6  C   -0.762817  -0.000000
     7  O   -0.478076  -0.000000
     8  C    0.409834  -0.000000
     9  C    0.008694   0.000000
    10  C   -0.453999   0.000000
    11  C   -0.433137  -0.000000
    12  C    0.027763  -0.000000
    13  C    0.483010   0.000000
    14  C   -0.952590   0.000000
    15  O   -0.479778   0.000000
    16  C    0.887934   0.000000
    17  C    0.480717   0.000000
    18  H   -0.405050   0.000000
    19  H   -0.063764   0.000000
    20  H   -0.166392   0.000000
    21  H    0.143865   0.000000
    22  H    0.129937  -0.000000
    23  H    0.076469  -0.000000
    24  H    0.079224   0.000000
    25  H    0.133378   0.000000
    26  H    0.105440  -0.000000
 Sum of Mulliken charges =  -2.00000   0.00000

 Dipole moment (field-independent basis, Debye):
    X=              4.4359    Y=              0.5367    Z=              0.3566  Tot=              4.4824
 Quadrupole moment (field-independent basis, Debye-Ang):
   XX=           -205.1485   YY=           -119.3337   ZZ=           -157.4312
   XY=            -12.9933   XZ=             -4.5623   YZ=              1.3473

  Exact polarizability:1732.143  87.592 157.333  43.029 -13.136 575.629
 Approx polarizability:6179.955 293.952 229.799 172.421 -13.401 677.967

                      1                      2                      3
                      A                      A                      A
 Frequencies --     55.1607               103.0817               134.9179
 Red. masses --      6.5603                 4.2254                 4.8462
 Frc consts  --      0.0118                 0.0265                 0.0520
 IR Inten    --      1.0470                 3.5477                 3.3892

                      4                      5                      6
                      A                      A                      A
 Frequencies --    167.9992               190.1223               210.3275
 Red. masses --      6.8407                 4.6181                 4.9022
 Frc consts  --      0.1138                 0.0984                 0.1278
 IR Inten    --      9.5299                 3.3353                 8.4008

                      7                      8                      9
                      A                      A                      A
 Frequencies --    247.9857               278.6066               313.0701
 Red. masses --      1.0881                 6.0806                 5.2061
 Frc consts  --      0.0394                 0.2781                 0.3006
 IR Inten    --     86.9647                 0.5137                10.7216

                     10                     11                     12
                      A                      A                      A
 Frequencies --    334.5821               368.6903               382.7800
 Red. masses --      7.2435                10.2594                 5.1299
 Frc consts  --      0.4778                 0.8217                 0.4428
 IR Inten    --     61.8168                 4.0299                34.0095

                     13                     14                     15
                      A                      A                      A
 Frequencies --    408.9728               434.2404               441.6762
 Red. masses --      5.9910                 3.5986                 5.2627
 Frc consts  --      0.5904                 0.3998                 0.6049
 IR Inten    --      1.2501                 5.7536                23.2492

                     16                     17                     18
                      A                      A                      A
 Frequencies --    474.9916               482.4886               532.9437
 Red. masses --      2.8895                11.8180                 3.9957
 Frc consts  --      0.3841                 1.6209                 0.6687
 IR Inten    --      3.8955               459.9442                11.2715

                     19                     20                     21
                      A                      A                      A
 Frequencies --    574.3473               636.0963               638.8973
 Red. masses --      6.3092                 5.5270                 4.0951
 Frc consts  --      1.2262                 1.3176                 0.9849
 IR Inten    --      4.6463                13.5483                23.3361

                     22                     23                     24
                      A                      A                      A
 Frequencies --    664.9909               688.5690               694.7429
 Red. masses --      6.5639                 1.6984                 6.2870
 Frc consts  --      1.7102                 0.4745                 1.7879
 IR Inten    --     11.4990                95.3199                 3.9650

                     25                     26                     27
                      A                      A                      A
 Frequencies --    711.9396               740.6784               751.0350
 Red. masses --      3.8716                 2.1081                 3.1450
 Frc consts  --      1.1562                 0.6814                 1.0452
 IR Inten    --     26.4899               123.9562                16.0498

                     28                     29                     30
                      A                      A                      A
 Frequencies --    766.3164               785.1748               798.8021
 Red. masses --      2.0211                 1.6742                 1.6523
 Frc consts  --      0.6993                 0.6081                 0.6212
 IR Inten    --     34.2540                46.5448               293.8236

                     31                     32                     33
                      A                      A                      A
 Frequencies --    835.5026               860.0780               905.0474
 Red. masses --      4.3531                 4.8253                 1.5221
 Frc consts  --      1.7904                 2.1030                 0.7346
 IR Inten    --      6.4645                 8.4749                11.8901

                     34                     35                     36
                      A                      A                      A
 Frequencies --    930.9741               952.9378               960.7921
 Red. masses --      6.4206                 1.2450                 1.3341
 Frc consts  --      3.2787                 0.6661                 0.7256
 IR Inten    --      2.5769                 1.4030                 2.1437

                     37                     38                     39
                      A                      A                      A
 Frequencies --    966.4712               976.5024              1012.8880
 Red. masses --      1.3307                 3.2014                 2.0558
 Frc consts  --      0.7323                 1.7986                 1.2427
 IR Inten    --     20.4612               101.7608               332.1402

                     40                     41                     42
                      A                      A                      A
 Frequencies --   1093.0271              1098.6393              1108.6831
 Red. masses --      2.4410                 1.6652                 1.4976
 Frc consts  --      1.7182                 1.1842                 1.0846
 IR Inten    --     33.7278                 7.1259                60.6327

                     43                     44                     45
                      A                      A                      A
 Frequencies --   1136.3583              1143.0254              1183.9743
 Red. masses --      1.3894                 1.7595                 2.1229
 Frc consts  --      1.0570                 1.3544                 1.7533
 IR Inten    --     51.6226               226.2733               159.4155

                     46                     47                     48
                      A                      A                      A
 Frequencies --   1209.2436              1216.4266              1233.4998
 Red. masses --      1.6893                 2.4669                 3.0843
 Frc consts  --      1.4554                 2.1506                 2.7650
 IR Inten    --      0.8696               279.9995               153.0094

                     49                     50                     51
                      A                      A                      A
 Frequencies --   1263.7205              1334.8212              1346.4978
 Red. masses --      2.7693                 8.3617                 2.1672
 Frc consts  --      2.6057                 8.7779                 2.3151
 IR Inten    --     33.0367               543.9395                42.8961

                     52                     53                     54
                      A                      A                      A
 Frequencies --   1356.1387              1385.7546              1454.0025
 Red. masses --      7.2332                 3.0049                 2.9215
 Frc consts  --      7.8377                 3.3998                 3.6390
 IR Inten    --    339.0722               637.9199               118.9452

                     55                     56                     57
                      A                      A                      A
 Frequencies --   1464.1550              1468.9736              1485.5793
 Red. masses --      6.3891                 3.2775                 4.2244
 Frc consts  --      8.0698                 4.1669                 5.4930
 IR Inten    --    649.7156              1880.6187               183.8365

                     58                     59                     60
                      A                      A                      A
 Frequencies --   1494.2244              1532.2102              1568.4727
 Red. masses --      4.5870                 5.3464                 7.0150
 Frc consts  --      6.0341                 7.3952                10.1679
 IR Inten    --    212.4527               517.6227              2212.3155

                     61                     62                     63
                      A                      A                      A
 Frequencies --   1585.0008              1610.9146              1617.7421
 Red. masses --      5.3967                 4.7558                 1.1855
 Frc consts  --      7.9880                 7.2714                 1.8280
 IR Inten    --    153.9699               188.3277               139.6207

                     64                     65                     66
                      A                      A                      A
 Frequencies --   3092.5222              3116.1763              3118.7732
 Red. masses --      1.0826                 1.0903                 1.0869
 Frc consts  --      6.0999                 6.2382                 6.2286
 IR Inten    --     40.9241               276.5382                38.2263

                     67                     68                     69
                      A                      A                      A
 Frequencies --   3141.9401              3156.3628              3159.4890
 Red. masses --      1.0883                 1.0904                 1.0913
 Frc consts  --      6.3298                 6.4005                 6.4185
 IR Inten    --     29.0319                46.6165               160.2905

                     70                     71                     72
                      A                      A                      A
 Frequencies --   3161.2529              3380.0007              3529.3505
 Red. masses --      1.0910                 1.0559                 1.0865
 Frc consts  --      6.4240                 7.1074                 7.9736
 IR Inten    --     39.1341               744.9623               154.8488

 - Thermochemistry -
 -------------------
 Temperature   298.150 Kelvin.  Pressure   1.00000 Atm.
 Atom     1 has atomic number  7 and mass  14.00307

 Molecular mass:   223.06333 amu.
 Principal axes and moments of inertia in atomic units:
                           1         2         3
     Eigenvalues --  1771.779025296.722877065.54521
           X            0.97965   0.03195  -0.19817
           Y            0.20000  -0.07143   0.97719
           Z           -0.01707   0.99693   0.07637
 This molecule is an asymmetric top.
 Rotational symmetry number  1.
 Warning -- assumption of classical behavior for rotation
           may cause significant error
 Rotational temperatures (Kelvin)      0.04889     0.01635     0.01226
 Rotational constants (GHZ):           1.01860     0.34073     0.25543
 Zero-point vibrational energy     500412.1 (Joules/Mol)
                                  119.60137 (Kcal/Mol)
 Warning -- explicit consideration of  19 degrees of freedom as
           vibrations may cause significant error
 Vibrational temperatures:     79.36   148.31   194.12   241.71   273.54
          (Kelvin)            302.61   356.80   400.85   450.44   481.39
                              530.46   550.74   588.42   624.78   635.47
                              683.41   694.19   766.79   826.36   915.20
                              919.23   956.77   990.70   999.58  1024.32
                             1065.67  1080.57  1102.56  1129.69  1149.30
                             1202.10  1237.46  1302.16  1339.46  1371.06
                             1382.37  1390.54  1404.97  1457.32  1572.62
                             1580.70  1595.15  1634.97  1644.56  1703.47
                             1739.83  1750.17  1774.73  1818.21  1920.51
                             1937.31  1951.18  1993.79  2091.99  2106.59
                             2113.53  2137.42  2149.86  2204.51  2256.68
                             2280.46  2317.75  2327.57  4449.45  4483.48
                             4487.22  4520.55  4541.30  4545.80  4548.34
                             4863.07  5077.95

 Zero-point correction=                           0.190597 (Hartree/Particle)
 Thermal correction to Energy=                    0.203381
 Thermal correction to Enthalpy=                  0.204325
 Thermal correction to Gibbs Free Energy=         0.151867
 Sum of electronic and zero-point Energies=           -744.109510
 Sum of electronic and thermal Energies=              -744.096726
 Sum of electronic and thermal Enthalpies=            -744.095782
 Sum of electronic and thermal Free Energies=         -744.148240

                     E (Thermal)             CV                S
                      KCal/Mol        Cal/Mol-Kelvin    Cal/Mol-Kelvin
 Total                  127.623             52.671            110.408
 Electronic               0.000              0.000              0.000
 Translational            0.889              2.981             42.109
 Rotational               0.889              2.981             32.561
 Vibrational            125.846             46.709             35.737
 Vibration     1          0.596              1.976              4.623
 Vibration     2          0.605              1.947              3.395
 Vibration     3          0.613              1.918              2.875
 Vibration     4          0.625              1.882              2.458
 Vibration     5          0.633              1.853              2.227
 Vibration     6          0.642              1.825              2.041
 Vibration     7          0.662              1.766              1.745
 Vibration     8          0.679              1.713              1.542
 Vibration     9          0.701              1.649              1.346
 Vibration    10          0.716              1.606              1.238
 Vibration    11          0.741              1.537              1.085
 Vibration    12          0.752              1.507              1.028
 Vibration    13          0.773              1.451              0.930
 Vibration    14          0.795              1.396              0.845
 Vibration    15          0.801              1.379              0.821
 Vibration    16          0.832              1.306              0.724
 Vibration    17          0.839              1.289              0.703
 Vibration    18          0.888              1.177              0.581
 Vibration    19          0.931              1.087              0.496

 Optimization completed.
    -- Stationary point found.
 Normal termination of Gaussian 16 at Wed Dec 27 21:16:40 2023.
