 Gaussian 16, Revision A.03,
 Gaussian 16:  ES64L-G16RevA.03 25-Dec-2016

 ----------------------------------------------------------------
 #P UB3LYP/6-311++G(d,p) SCRF=(PCM,Solvent=n,n-DiMethylFormamide)
 ----------------------------------------------------------------

 ------------------
 Radical PCM in DMF
 ------------------
 Symbolic Z-matrix:
 Charge = -1 Multiplicity = 2

                         Standard orientation:
 ---------------------------------------------------------------------
 Center     Atomic      Atomic             Coordinates (Angstroms)
 Number     Number       Type             X           Y           Z
 ---------------------------------------------------------------------
      1         35           0       -2.898907   -0.623444   -0.000049
      2          6           0       -1.015741   -0.155633    0.000002
      3          6           0       -0.102171   -1.172666    0.000004
      4          6           0        1.298199   -0.883390    0.000009
      5          6           0        2.266817   -1.913056    0.000142
      6          6           0        3.619413   -1.624736    0.000128
      7          6           0        4.050586   -0.282131   -0.000047
      8          6           0        3.118849    0.740646   -0.000187
      9          6           0        1.735316    0.473129   -0.000116
     10          6           0        0.776120    1.589100   -0.000135
     11          8           0        1.157333    2.772330    0.000051
     12          6           0       -0.699314    1.263811    0.000082
     13          8           0       -1.558728    2.160950    0.000250
     14          1           0       -0.427568   -2.206311    0.000005
     15          1           0        1.929932   -2.946268    0.000228
     16          1           0        4.346822   -2.430793    0.000217
     17          1           0        5.112021   -0.053900   -0.000094
     18          1           0        3.423256    1.781152   -0.000346
 ---------------------------------------------------------------------

 SCF Done:  E(UB3LYP) =  -3108.95347826     A.U. after   20 cycles

 The electronic state is 2-A.
 Alpha  occ. eigenvalues -- -482.82302 -62.47581 -56.29600 -56.29244 -56.29223
 Alpha  occ. eigenvalues --  -19.08709 -19.08470 -10.22997 -10.22964 -10.21842
 Alpha  occ. eigenvalues --  -10.18754 -10.18333 -10.17843 -10.17697 -10.17636
 Alpha  occ. eigenvalues --  -10.17518 -10.17379  -8.68541  -6.51621  -6.50439
 Alpha  occ. eigenvalues --   -6.50377  -2.62724  -2.62395  -2.62349  -2.61409
 Alpha  occ. eigenvalues --   -2.61409  -1.02724  -1.00006  -0.87148  -0.82908
 Alpha  occ. eigenvalues --   -0.77953  -0.76011  -0.71650  -0.69160  -0.61184
 Alpha  occ. eigenvalues --   -0.60109  -0.57638  -0.51909  -0.49361  -0.48484
 Alpha  occ. eigenvalues --   -0.44906  -0.43572  -0.42985  -0.42328  -0.42219
 Alpha  occ. eigenvalues --   -0.40924  -0.38360  -0.37764  -0.36382  -0.35783
 Alpha  occ. eigenvalues --   -0.34166  -0.32588  -0.29275  -0.28960  -0.26646
 Alpha  occ. eigenvalues --   -0.26349  -0.23395  -0.22823  -0.16344
 Alpha virt. eigenvalues --   -0.04144  -0.01171  -0.00894  -0.00176   0.01023
 Alpha virt. eigenvalues --    0.01636   0.01796   0.03260   0.03424   0.04764
 Alpha virt. eigenvalues --    0.04914   0.05817   0.05901   0.06332   0.07391

  Beta  occ. eigenvalues -- -482.82303 -62.47582 -56.29600 -56.29246 -56.29223
  Beta  occ. eigenvalues --  -19.08121 -19.07845 -10.22840 -10.22816 -10.21870
  Beta  occ. eigenvalues --  -10.18717 -10.18072 -10.17834 -10.17639 -10.17588
  Beta  occ. eigenvalues --  -10.17485 -10.17344  -8.68542  -6.51623  -6.50442
  Beta  occ. eigenvalues --   -6.50378  -2.62726  -2.62397  -2.62351  -2.61411
  Beta  occ. eigenvalues --   -2.61411  -1.01690  -0.98887  -0.86892  -0.82696
  Beta  occ. eigenvalues --   -0.77775  -0.75732  -0.71460  -0.68281  -0.60996
  Beta  occ. eigenvalues --   -0.59778  -0.57265  -0.51726  -0.49096  -0.48242
  Beta  occ. eigenvalues --   -0.44733  -0.43377  -0.42159  -0.41754  -0.41258
  Beta  occ. eigenvalues --   -0.40527  -0.38214  -0.36675  -0.35663  -0.34517
  Beta  occ. eigenvalues --   -0.34067  -0.30798  -0.28889  -0.28723  -0.26094
  Beta  occ. eigenvalues --   -0.25387  -0.22837  -0.22035
  Beta virt. eigenvalues --   -0.09713  -0.03190  -0.01157  -0.00166   0.00550
  Beta virt. eigenvalues --    0.01029   0.01658   0.02700   0.03270   0.03441
  Beta virt. eigenvalues --    0.04956   0.05145   0.05817   0.05928   0.06351

 Mulliken charges and spin densities:
               1          2
     1  Br  -0.194027   0.000185
     2  C    0.684652  -0.013106
     3  C   -0.355392   0.172336
     4  C   -0.521206   0.003800
     5  C   -0.122815   0.021660
     6  C   -0.379219   0.050216
     7  C   -0.340673   0.023018
     8  C    0.204734   0.055295
     9  C    0.780604   0.034157
    10  C   -0.428794   0.093292
    11  O   -0.444556   0.221657
    12  C   -0.339544   0.133705
    13  O   -0.442965   0.228987
    14  H    0.212143  -0.015775
    15  H    0.152805   0.000486
    16  H    0.187891  -0.003712
    17  H    0.186318  -0.002083
    18  H    0.160044  -0.004118
 Sum of Mulliken charges =  -1.00000   1.00000

 Dipole moment (field-independent basis, Debye):
    X=              3.6844    Y=            -10.8883    Z=             -0.0008  Tot=             11.4948
 Quadrupole moment (field-independent basis, Debye-Ang):
   XX=           -101.8099   YY=           -116.1772   ZZ=            -93.0031
   XY=              0.1866   XZ=              0.0008   YZ=             -0.0029

 Normal termination of Gaussian 16 at Sat Jan 13 19:17:39 2024.
