 Q-Chem 5.4, Q-Chem, Inc., Pleasanton, CA (2021)
 Q-Chem 5.4.0 for Intel X86 EM64T Linux

User input:
--------------------------------------------------------------
$molecule
-2 1
C                 -4.0590580000     -3.7027840000     -1.8560850000
C                 -3.0137330000     -3.8431230000     -2.8180380000
C                 -1.6990810000     -3.4814120000     -2.4975120000
C                 -1.3452040000     -2.9654560000     -1.1881230000
C                 -2.4100870000     -2.8231590000     -0.2130320000
C                 -3.6900770000     -3.1841850000     -0.5606530000
O                 -5.3109360000     -3.9976080000     -2.0373380000
O                 -0.1419580000     -2.6409810000     -0.8949560000
C                 -0.5697100000     -3.6041340000     -3.4937690000
C                  0.2516000000     -4.9044050000     -3.3618060000
C                  1.4188780000     -4.9871960000     -4.3540300000
C                  2.2445840000     -6.2763590000     -4.2525060000
C                  3.4049470000     -6.3524990000     -5.2541820000
C                  4.2261240000     -7.6455330000     -5.1689010000
C                  5.3784210000     -7.7192290000     -6.1794710000
C                  6.1947870000     -9.0158280000     -6.1010390000
C                  7.3423360000     -9.0890620000     -7.1166490000
C                  8.1552750000    -10.3881380000     -7.0396290000
C                 -2.0686900000     -2.2834250000      1.1494770000
C                 -3.4009610000     -4.3831810000     -4.1766390000
O                 -4.7615090000     -3.0868320000      0.3015840000
H                  0.1165450000     -2.7650260000     -3.3305150000
H                 -0.9492300000     -3.5305810000     -4.5209680000
H                 -0.4099120000     -5.7693730000     -3.5027440000
H                  0.6317010000     -4.9579120000     -2.3364580000
H                  2.0797330000     -4.1238260000     -4.1981170000
H                  1.0316540000     -4.8913910000     -5.3789830000
H                  1.5835320000     -7.1409880000     -4.4015900000
H                  2.6398990000     -6.3707150000     -3.2325830000
H                  4.0703160000     -5.4924990000     -5.0996640000
H                  3.0076050000     -6.2466160000     -6.2728820000
H                  3.5601670000     -8.5058520000     -5.3193190000
H                  4.6297720000     -7.7506450000     -4.1530460000
H                  6.0477050000     -6.8620290000     -6.0271810000
H                  4.9748730000     -7.6091570000     -7.1949340000
H                  5.5251740000     -9.8731960000     -6.2515230000
H                  6.6024970000     -9.1251920000     -5.0872280000
H                  8.0154100000     -8.2347910000     -6.9668860000
H                  6.9370100000     -8.9791150000     -8.1310020000
C                  9.2991080000    -10.4607080000     -8.0554400000
H                  7.4829740000    -11.2428940000     -7.1885530000
H                 -1.3631890000     -2.9430420000      1.6715860000
H                 -2.9663300000     -2.1717950000      1.7624280000
H                 -1.5628290000     -1.3134200000      1.0689890000
H                 -4.4496150000     -4.6866420000     -4.1486860000
H                 -2.7934750000     -5.2478530000     -4.4730640000
H                 -3.2888410000     -3.6311030000     -4.9713510000
H                  8.5619810000    -10.4990180000     -6.0262000000
H                  8.9269180000    -10.3954820000     -9.0843360000
H                  9.8562820000    -11.4001890000     -7.9719830000
H                 10.0165680000     -9.6446830000     -7.9114170000
H                 -5.4808290000     -3.4244980000     -0.2856080000
$end
$rem
MAX_SCF_CYCLES=200
BASIS  =  6-311++G(d,p)
GUI  =  2
JOB_TYPE  =  SP
METHOD  =  B3LYP
THRESH = 14
SCF_ALGORITHM = DIIS_GDM
SOLVENT_METHOD = PCM
$end
$pcm
theory = CPCM
$end
$solvent
dielectric 37.219
opticaldielectric 1.43
$end

--------------------------------------------------------------

             Standard Nuclear Orientation (Angstroms)
    I     Atom           X                Y                Z
 ----------------------------------------------------------------
    1      C      -4.0590580000    -3.7027840000    -1.8560850000
    2      C      -3.0137330000    -3.8431230000    -2.8180380000
    3      C      -1.6990810000    -3.4814120000    -2.4975120000
    4      C      -1.3452040000    -2.9654560000    -1.1881230000
    5      C      -2.4100870000    -2.8231590000    -0.2130320000
    6      C      -3.6900770000    -3.1841850000    -0.5606530000
    7      O      -5.3109360000    -3.9976080000    -2.0373380000
    8      O      -0.1419580000    -2.6409810000    -0.8949560000
    9      C      -0.5697100000    -3.6041340000    -3.4937690000
   10      C       0.2516000000    -4.9044050000    -3.3618060000
   11      C       1.4188780000    -4.9871960000    -4.3540300000
   12      C       2.2445840000    -6.2763590000    -4.2525060000
   13      C       3.4049470000    -6.3524990000    -5.2541820000
   14      C       4.2261240000    -7.6455330000    -5.1689010000
   15      C       5.3784210000    -7.7192290000    -6.1794710000
   16      C       6.1947870000    -9.0158280000    -6.1010390000
   17      C       7.3423360000    -9.0890620000    -7.1166490000
   18      C       8.1552750000   -10.3881380000    -7.0396290000
   19      C      -2.0686900000    -2.2834250000     1.1494770000
   20      C      -3.4009610000    -4.3831810000    -4.1766390000
   21      O      -4.7615090000    -3.0868320000     0.3015840000
   22      H       0.1165450000    -2.7650260000    -3.3305150000
   23      H      -0.9492300000    -3.5305810000    -4.5209680000
   24      H      -0.4099120000    -5.7693730000    -3.5027440000
   25      H       0.6317010000    -4.9579120000    -2.3364580000
   26      H       2.0797330000    -4.1238260000    -4.1981170000
   27      H       1.0316540000    -4.8913910000    -5.3789830000
   28      H       1.5835320000    -7.1409880000    -4.4015900000
   29      H       2.6398990000    -6.3707150000    -3.2325830000
   30      H       4.0703160000    -5.4924990000    -5.0996640000
   31      H       3.0076050000    -6.2466160000    -6.2728820000
   32      H       3.5601670000    -8.5058520000    -5.3193190000
   33      H       4.6297720000    -7.7506450000    -4.1530460000
   34      H       6.0477050000    -6.8620290000    -6.0271810000
   35      H       4.9748730000    -7.6091570000    -7.1949340000
   36      H       5.5251740000    -9.8731960000    -6.2515230000
   37      H       6.6024970000    -9.1251920000    -5.0872280000
   38      H       8.0154100000    -8.2347910000    -6.9668860000
   39      H       6.9370100000    -8.9791150000    -8.1310020000
   40      C       9.2991080000   -10.4607080000    -8.0554400000
   41      H       7.4829740000   -11.2428940000    -7.1885530000
   42      H      -1.3631890000    -2.9430420000     1.6715860000
   43      H      -2.9663300000    -2.1717950000     1.7624280000
   44      H      -1.5628290000    -1.3134200000     1.0689890000
   45      H      -4.4496150000    -4.6866420000    -4.1486860000
   46      H      -2.7934750000    -5.2478530000    -4.4730640000
   47      H      -3.2888410000    -3.6311030000    -4.9713510000
   48      H       8.5619810000   -10.4990180000    -6.0262000000
   49      H       8.9269180000   -10.3954820000    -9.0843360000
   50      H       9.8562820000   -11.4001890000    -7.9719830000
   51      H      10.0165680000    -9.6446830000    -7.9114170000
   52      H      -5.4808290000    -3.4244980000    -0.2856080000
 ----------------------------------------------------------------

   16    -968.3049308987      1.94e-06  Convergence criterion met
 Total energy in the final basis set =     -968.3049308987

                    Orbital Energies (a.u.)
 --------------------------------------------------------------

 Alpha MOs
 -- Occupied --
-19.1053 -19.0193 -19.0085 -10.1649 -10.1568 -10.1561 -10.1540 -10.1537
-10.1532 -10.1526 -10.1517 -10.1517 -10.1507 -10.1502 -10.1469 -10.1404
-10.1357 -10.1328 -10.1322 -10.1182 -10.1155 -10.1067  -1.0190  -0.9299
 -0.9261  -0.8046  -0.7913  -0.7803  -0.7651  -0.7452  -0.7294  -0.7019
 -0.6778  -0.6664  -0.6351  -0.6074  -0.5979  -0.5792  -0.5699  -0.5644
 -0.5598  -0.5263  -0.5104  -0.4796  -0.4759  -0.4624  -0.4463  -0.4385
 -0.4265  -0.4170  -0.4165  -0.4073  -0.4014  -0.3946  -0.3911  -0.3855
 -0.3833  -0.3797  -0.3725  -0.3660  -0.3607  -0.3593  -0.3572  -0.3488
 -0.3437  -0.3429  -0.3340  -0.3306  -0.3277  -0.3205  -0.3182  -0.3146
 -0.3133  -0.3119  -0.3097  -0.3060  -0.2993  -0.2946  -0.2927  -0.2835
 -0.2124  -0.2084  -0.1866  -0.1764  -0.1029

          Ground-State Mulliken Net Atomic Charges

     Atom                 Charge (a.u.)
  ----------------------------------------
      1 C                    -0.778091
      2 C                     0.900577
      3 C                     0.705938
      4 C                    -0.739065
      5 C                     0.960103
      6 C                    -0.884530
      7 O                    -0.769276
      8 O                    -0.714446
      9 C                    -0.369230
     10 C                    -0.899902
     11 C                    -0.373778
     12 C                    -0.102104
     13 C                     0.033216
     14 C                     0.040157
     15 C                    -0.055402
     16 C                    -0.289894
     17 C                    -0.490376
     18 C                    -0.294816
     19 C                    -0.454881
     20 C                    -0.648111
     21 O                    -0.385260
     22 H                     0.167371
     23 H                     0.144996
     24 H                     0.122172
     25 H                     0.187561
     26 H                     0.122996
     27 H                     0.105647
     28 H                     0.130722
     29 H                     0.126668
     30 H                     0.135525
     31 H                     0.135026
     32 H                     0.133133
     33 H                     0.134308
     34 H                     0.133512
     35 H                     0.132666
     36 H                     0.131336
     37 H                     0.131738
     38 H                     0.129156
     39 H                     0.128429
     40 C                    -0.717292
     41 H                     0.135220
     42 H                     0.141555
     43 H                     0.158867
     44 H                     0.139893
     45 H                     0.159868
     46 H                     0.144730
     47 H                     0.150067
     48 H                     0.135374
     49 H                     0.145088
     50 H                     0.152152
     51 H                     0.144819
     52 H                     0.285866
  ----------------------------------------
  Sum of atomic charges =    -2.000000

                    Cartesian Multipole Moments
 -----------------------------------------------------------------
    Charge (ESU x 10^10)
                -9.6064
    Dipole Moment (Debye)
         X      25.7471      Y      31.4016      Z      12.6278
       Tot      42.5257
    Quadrupole Moments (Debye-Ang)
        XX    -273.8130     XY     -94.2566     YY    -257.2262
        XZ     -37.2853     YZ     -46.7078     ZZ    -178.8056

 Total job time:  560.82s(wall), 2673.91s(cpu)
        *  Thank you very much for using Q-Chem.  Have a nice day.  *
