 Gaussian 16, Revision A.03,
 Gaussian 16:  ES64L-G16RevA.03 25-Dec-2016

 ----------------------------------------------------------------------
 #P UB3LYP/6-311++G(d,p) nosym opt freq SCRF=(PCM,Solvent=n,n-DiMethylF
 ormamide)
 ----------------------------------------------------------------------

 -------
 Reduced
 -------
 Symbolic Z-matrix:
 Charge = -2 Multiplicity = 1

 SCF Done:  E(UB3LYP) =  -765.611515089     A.U. after   21 cycles
 SCF Done:  E(UB3LYP) =  -765.613712787     A.U. after   17 cycles
 SCF Done:  E(UB3LYP) =  -765.613623453     A.U. after   17 cycles
 SCF Done:  E(UB3LYP) =  -765.614303977     A.U. after   14 cycles
 SCF Done:  E(UB3LYP) =  -765.614163896     A.U. after   16 cycles
 SCF Done:  E(UB3LYP) =  -765.614329712     A.U. after   14 cycles
 SCF Done:  E(UB3LYP) =  -765.614342483     A.U. after   13 cycles
 SCF Done:  E(UB3LYP) =  -765.614341555     A.U. after   13 cycles
 SCF Done:  E(UB3LYP) =  -765.614340722     A.U. after   14 cycles
 SCF Done:  E(UB3LYP) =  -765.614344095     A.U. after   13 cycles
 SCF Done:  E(UB3LYP) =  -765.614344223     A.U. after   13 cycles
 Optimization completed.
    -- Stationary point found.
 Normal termination of Gaussian 16 at Sun Feb 11 16:34:21 2024.

 ----------------------------------------------------------------------
 #P Geom=AllCheck Guess=TCheck SCRF=Check GenChk UB3LYP/6-311++G(d,p) F
 req
 ----------------------------------------------------------------------

 Structure from the checkpoint file:  "340-an.chk"
 -------
 Reduced
 -------
 Charge = -2 Multiplicity = 1

                          Input orientation:
 ---------------------------------------------------------------------
 Center     Atomic      Atomic             Coordinates (Angstroms)
 Number     Number       Type             X           Y           Z
 ---------------------------------------------------------------------
      1          8           0        2.219882    2.769677   -0.248163
      2          6           0        2.336796    1.402579   -0.142681
      3          6           0        3.567335    0.826114    0.124470
      4          6           0        3.697864   -0.575968    0.255658
      5          6           0        2.560453   -1.378097    0.097087
      6          6           0        1.316445   -0.820898   -0.195334
      7          6           0        0.111002   -1.647404   -0.573389
      8          6           0       -1.167618   -1.038508   -0.050968
      9          6           0       -2.252461   -1.799302    0.382025
     10          6           0       -3.485905   -1.205031    0.679057
     11          6           0       -3.618072    0.196320    0.541344
     12          6           0       -2.546851    0.974106    0.134796
     13          8           0       -2.684832    2.338759    0.021894
     14          6           0       -1.272348    0.386886   -0.175605
     15          6           0       -0.131902    1.182273   -0.490609
     16          8           0       -0.257794    2.565300   -0.588191
     17          6           0        1.157356    0.599697   -0.314218
     18          1           0        1.215824    2.916198   -0.396850
     19          1           0        4.429833    1.476141    0.245704
     20          1           0        4.664980   -1.017340    0.470825
     21          1           0        2.648276   -2.460033    0.171978
     22          1           0        0.220912   -2.688338   -0.252445
     23          1           0        0.047368   -1.664712   -1.688710
     24          1           0       -2.141035   -2.878893    0.459131
     25          1           0       -4.329161   -1.804741    1.004133
     26          1           0       -4.560712    0.688275    0.766071
     27          1           0       -1.745637    2.656940   -0.237005
 ---------------------------------------------------------------------

 SCF Done:  E(UB3LYP) =  -765.614344223     A.U. after    1 cycles

 Alpha  occ. eigenvalues --  -19.09195 -19.09165 -19.03205 -10.19050 -10.19049
 Alpha  occ. eigenvalues --  -10.15324 -10.14903 -10.13801 -10.13800 -10.13715
 Alpha  occ. eigenvalues --  -10.13714 -10.13604 -10.13599 -10.13479 -10.13478
 Alpha  occ. eigenvalues --  -10.13241 -10.13235  -1.00644  -1.00120  -0.91326
 Alpha  occ. eigenvalues --   -0.82937  -0.80607  -0.75647  -0.72090  -0.70470
 Alpha  occ. eigenvalues --   -0.69647  -0.65824  -0.60500  -0.59091  -0.54910
 Alpha  occ. eigenvalues --   -0.54746  -0.52397  -0.48378  -0.47833  -0.47534
 Alpha  occ. eigenvalues --   -0.44148  -0.43282  -0.42127  -0.40733  -0.39908
 Alpha  occ. eigenvalues --   -0.37834  -0.37701  -0.37377  -0.36615  -0.36397
 Alpha  occ. eigenvalues --   -0.36138  -0.34817  -0.33418  -0.33218  -0.30830
 Alpha  occ. eigenvalues --   -0.30421  -0.29415  -0.29239  -0.29131  -0.22216
 Alpha  occ. eigenvalues --   -0.21667  -0.20908  -0.19885  -0.19208  -0.08379
 Alpha virt. eigenvalues --   -0.00008   0.00841   0.01009   0.01379   0.01536
 Alpha virt. eigenvalues --    0.02425   0.02768   0.03465   0.03812   0.04488
 Alpha virt. eigenvalues --    0.04627   0.04969   0.06337   0.06885   0.06897

  Beta  occ. eigenvalues --  -19.09195 -19.09165 -19.03205 -10.19050 -10.19049
  Beta  occ. eigenvalues --  -10.15324 -10.14903 -10.13801 -10.13800 -10.13715
  Beta  occ. eigenvalues --  -10.13714 -10.13604 -10.13599 -10.13479 -10.13478
  Beta  occ. eigenvalues --  -10.13241 -10.13235  -1.00644  -1.00120  -0.91326
  Beta  occ. eigenvalues --   -0.82937  -0.80607  -0.75647  -0.72090  -0.70470
  Beta  occ. eigenvalues --   -0.69647  -0.65824  -0.60500  -0.59091  -0.54910
  Beta  occ. eigenvalues --   -0.54746  -0.52397  -0.48378  -0.47833  -0.47534
  Beta  occ. eigenvalues --   -0.44148  -0.43282  -0.42127  -0.40733  -0.39908
  Beta  occ. eigenvalues --   -0.37834  -0.37701  -0.37377  -0.36615  -0.36397
  Beta  occ. eigenvalues --   -0.36138  -0.34817  -0.33418  -0.33218  -0.30830
  Beta  occ. eigenvalues --   -0.30421  -0.29415  -0.29239  -0.29131  -0.22216
  Beta  occ. eigenvalues --   -0.21667  -0.20908  -0.19885  -0.19208  -0.08379
  Beta virt. eigenvalues --   -0.00008   0.00841   0.01009   0.01379   0.01536
  Beta virt. eigenvalues --    0.02425   0.02768   0.03465   0.03812   0.04488
  Beta virt. eigenvalues --    0.04627   0.04969   0.06337   0.06885   0.06897

 Mulliken charges and spin densities:
               1          2
     1  O   -0.463841   0.000000
     2  C   -0.284658  -0.000000
     3  C   -0.468735   0.000000
     4  C   -0.354836  -0.000000
     5  C    0.028147  -0.000000
     6  C    0.272214   0.000000
     7  C   -1.025103   0.000000
     8  C    0.265550   0.000000
     9  C    0.022969  -0.000000
    10  C   -0.354873  -0.000000
    11  C   -0.466036   0.000000
    12  C   -0.283278   0.000000
    13  O   -0.462599  -0.000000
    14  C    0.520200  -0.000000
    15  C   -0.505491  -0.000000
    16  O   -0.763554  -0.000000
    17  C    0.516777  -0.000000
    18  H    0.393843   0.000000
    19  H    0.145722  -0.000000
    20  H    0.149785  -0.000000
    21  H    0.134915   0.000000
    22  H    0.066331  -0.000000
    23  H    0.093296   0.000000
    24  H    0.134788   0.000000
    25  H    0.149824  -0.000000
    26  H    0.145537   0.000000
    27  H    0.393106   0.000000
 Sum of Mulliken charges =  -2.00000  -0.00000

 Dipole moment (field-independent basis, Debye):
    X=              1.0330    Y=            -10.7383    Z=              1.4698  Tot=             10.8876
 Quadrupole moment (field-independent basis, Debye-Ang):
   XX=           -160.9231   YY=           -143.6039   ZZ=           -117.3529
   XY=             -1.2950   XZ=              2.0674   YZ=              4.8456

  Exact polarizability: 667.049  28.969 334.983 -25.740  -9.570 217.646
 Approx polarizability: 710.062  27.226 390.579 -26.813 -20.628 225.941

                      1                      2                      3
                      A                      A                      A
 Frequencies --     65.2216                70.6926               104.9524
 Red. masses --      6.1909                 7.4524                 7.6201
 Frc consts  --      0.0155                 0.0219                 0.0495
 IR Inten    --      1.7760                 1.7272                 0.5137

                      4                      5                      6
                      A                      A                      A
 Frequencies --    208.5386               221.5818               244.2439
 Red. masses --      4.9082                 4.5428                 4.8394
 Frc consts  --      0.1258                 0.1314                 0.1701
 IR Inten    --      1.6715                 3.6807                 7.2288

                      7                      8                      9
                      A                      A                      A
 Frequencies --    262.2858               285.8523               323.3328
 Red. masses --      5.6976                 3.1770                 5.8374
 Frc consts  --      0.2309                 0.1530                 0.3596
 IR Inten    --      0.4841                11.2778                25.5534

                     10                     11                     12
                      A                      A                      A
 Frequencies --    348.4348               378.8751               410.3861
 Red. masses --      6.7227                 3.9024                11.3938
 Frc consts  --      0.4809                 0.3300                 1.1306
 IR Inten    --      1.6152                 9.9038                59.5279

                     13                     14                     15
                      A                      A                      A
 Frequencies --    479.0431               486.1155               507.3719
 Red. masses --      5.4036                 8.6620                 5.1580
 Frc consts  --      0.7306                 1.2060                 0.7823
 IR Inten    --     38.1529                 5.0756                 3.8089

                     16                     17                     18
                      A                      A                      A
 Frequencies --    509.9656               542.1880               547.9990
 Red. masses --      4.3628                 4.0412                 6.8941
 Frc consts  --      0.6685                 0.6999                 1.2198
 IR Inten    --     25.4148                25.7972                14.9977

                     19                     20                     21
                      A                      A                      A
 Frequencies --    568.3520               570.3937               579.0189
 Red. masses --      4.5276                 5.0063                 4.4574
 Frc consts  --      0.8617                 0.9597                 0.8805
 IR Inten    --     16.1145                 2.2459                 1.0660

                     22                     23                     24
                      A                      A                      A
 Frequencies --    604.2695               652.8152               674.5102
 Red. masses --      7.6767                 4.7463                 1.3352
 Frc consts  --      1.6515                 1.1917                 0.3579
 IR Inten    --     68.7705                22.2468               106.3219

                     25                     26                     27
                      A                      A                      A
 Frequencies --    677.4837               736.0329               744.0768
 Red. masses --      1.3337                 4.4036                 5.0943
 Frc consts  --      0.3607                 1.4056                 1.6618
 IR Inten    --    219.1215                 4.8536                32.4019

                     28                     29                     30
                      A                      A                      A
 Frequencies --    749.8299               789.5575               853.0485
 Red. masses --      6.5112                 6.1300                 1.4069
 Frc consts  --      2.1569                 2.2516                 0.6032
 IR Inten    --    598.0866                13.5640                16.4777

                     31                     32                     33
                      A                      A                      A
 Frequencies --    855.0667               882.1195               886.6236
 Red. masses --      1.3805                 1.3081                 1.2552
 Frc consts  --      0.5947                 0.5997                 0.5814
 IR Inten    --      8.1724                38.1398                 2.8894

                     34                     35                     36
                      A                      A                      A
 Frequencies --    914.0774               934.7147               991.7842
 Red. masses --      5.7632                 2.0786                 1.3704
 Frc consts  --      2.8371                 1.0700                 0.7942
 IR Inten    --     19.9057               104.4896               115.7588

                     37                     38                     39
                      A                      A                      A
 Frequencies --    995.5436              1004.7462              1024.3457
 Red. masses --      2.0603                 1.1283                 3.7751
 Frc consts  --      1.2031                 0.6711                 2.3338
 IR Inten    --    105.6334                70.5302               192.4906

                     40                     41                     42
                      A                      A                      A
 Frequencies --   1027.5417              1044.6308              1089.5768
 Red. masses --      4.0839                 1.9450                 2.2975
 Frc consts  --      2.5406                 1.2505                 1.6070
 IR Inten    --    238.0586               743.1202                 5.3064

                     43                     44                     45
                      A                      A                      A
 Frequencies --   1146.7671              1148.3367              1173.1853
 Red. masses --      1.2701                 1.2744                 1.1895
 Frc consts  --      0.9841                 0.9902                 0.9646
 IR Inten    --     25.5662                37.0725                 0.8920

                     46                     47                     48
                      A                      A                      A
 Frequencies --   1226.5731              1234.7962              1247.4632
 Red. masses --      2.4859                 3.2266                 4.0387
 Frc consts  --      2.2036                 2.8986                 3.7030
 IR Inten    --     18.9877                49.6082               802.0276

                     49                     50                     51
                      A                      A                      A
 Frequencies --   1258.5962              1277.3102              1308.0897
 Red. masses --      1.8840                 2.4099                 2.4313
 Frc consts  --      1.7584                 2.3165                 2.4512
 IR Inten    --    231.4584              2295.1632               212.1804

                     52                     53                     54
                      A                      A                      A
 Frequencies --   1310.4717              1353.7337              1364.1463
 Red. masses --      3.2555                 5.1366                 4.2498
 Frc consts  --      3.2940                 5.5462                 4.6595
 IR Inten    --    180.7186                67.8851               276.9018

                     55                     56                     57
                      A                      A                      A
 Frequencies --   1414.6899              1435.8006              1448.8644
 Red. masses --      2.2646                 1.5444                 1.7645
 Frc consts  --      2.6703                 1.8758                 2.1823
 IR Inten    --   1655.2290                16.6742                 9.8287

                     58                     59                     60
                      A                      A                      A
 Frequencies --   1483.7631              1486.4831              1526.6231
 Red. masses --      2.7847                 2.5678                 6.1792
 Frc consts  --      3.6120                 3.3430                 8.4849
 IR Inten    --    227.0874                33.7141               162.4264

                     61                     62                     63
                      A                      A                      A
 Frequencies --   1542.3659              1548.7517              1586.9527
 Red. masses --      5.6803                 2.9665                 2.7974
 Frc consts  --      7.9616                 4.1923                 4.1508
 IR Inten    --     62.8530              1313.9967               333.2855

                     64                     65                     66
                      A                      A                      A
 Frequencies --   1616.8328              1676.6838              2535.3955
 Red. masses --      1.8366                 1.7436                 1.0816
 Frc consts  --      2.8288                 2.8880                 4.0966
 IR Inten    --     21.6152                41.3493              2359.1201

                     67                     68                     69
                      A                      A                      A
 Frequencies --   2679.5483              2727.7021              3037.1662
 Red. masses --      1.0803                 1.0731                 1.0836
 Frc consts  --      4.5702                 4.7044                 5.8894
 IR Inten    --    181.7661               831.9023                67.4652

                     70                     71                     72
                      A                      A                      A
 Frequencies --   3120.2979              3121.0491              3136.8202
 Red. masses --      1.0866                 1.0868                 1.0877
 Frc consts  --      6.2332                 6.2375                 6.3057
 IR Inten    --     28.7071                82.0040                89.1497

                     73                     74                     75
                      A                      A                      A
 Frequencies --   3139.0678              3165.9307              3166.4739
 Red. masses --      1.0874                 1.0939                 1.0939
 Frc consts  --      6.3131                 6.4600                 6.4622
 IR Inten    --     87.9934                66.6602                44.3181

 - Thermochemistry -
 -------------------
 Temperature   298.150 Kelvin.  Pressure   1.00000 Atm.
 Atom     1 has atomic number  8 and mass  15.99491

 Molecular mass:   226.06299 amu.
 Principal axes and moments of inertia in atomic units:
                           1         2         3
     Eigenvalues --  1994.678644652.180226468.29664
           X            0.99456  -0.09150   0.04978
           Y            0.08689   0.99232   0.08806
           Z           -0.05746  -0.08326   0.99487
 This molecule is an asymmetric top.
 Rotational symmetry number  1.
 Warning -- assumption of classical behavior for rotation
           may cause significant error
 Rotational temperatures (Kelvin)      0.04342     0.01862     0.01339
 Rotational constants (GHZ):           0.90478     0.38793     0.27901
 Zero-point vibrational energy     523330.2 (Joules/Mol)
                                  125.07891 (Kcal/Mol)
 Warning -- explicit consideration of  22 degrees of freedom as
           vibrations may cause significant error
 Vibrational temperatures:     93.84   101.71   151.00   300.04   318.81
          (Kelvin)            351.41   377.37   411.28   465.20   501.32
                              545.12   590.45   689.24   699.41   730.00
                              733.73   780.09   788.45   817.73   820.67
                              833.08   869.41   939.26   970.47   974.75
                             1058.99  1070.56  1078.84  1136.00  1227.35
                             1230.25  1269.17  1275.65  1315.15  1344.85
                             1426.96  1432.37  1445.61  1473.80  1478.40
                             1502.99  1567.66  1649.94  1652.20  1687.95
                             1764.77  1776.60  1794.82  1810.84  1837.76
                             1882.05  1885.48  1947.72  1962.70  2035.42
                             2065.80  2084.59  2134.80  2138.72  2196.47
                             2219.12  2228.31  2283.27  2326.26  2412.37
                             3647.87  3855.27  3924.55  4369.80  4489.41
                             4490.49  4513.18  4516.42  4555.07  4555.85

 Zero-point correction=                           0.199326 (Hartree/Particle)
 Thermal correction to Energy=                    0.211867
 Thermal correction to Enthalpy=                  0.212812
 Thermal correction to Gibbs Free Energy=         0.160770
 Sum of electronic and zero-point Energies=           -765.415018
 Sum of electronic and thermal Energies=              -765.402477
 Sum of electronic and thermal Enthalpies=            -765.401533
 Sum of electronic and thermal Free Energies=         -765.453574

                     E (Thermal)             CV                S
                      KCal/Mol        Cal/Mol-Kelvin    Cal/Mol-Kelvin
 Total                  132.949             52.557            109.531
 Electronic               0.000              0.000              0.000
 Translational            0.889              2.981             42.149
 Rotational               0.889              2.981             32.462
 Vibrational            131.171             46.596             34.920
 Vibration     1          0.597              1.971              4.293
 Vibration     2          0.598              1.968              4.134
 Vibration     3          0.605              1.945              3.360
 Vibration     4          0.642              1.828              2.056
 Vibration     5          0.648              1.808              1.946
 Vibration     6          0.660              1.772              1.772
 Vibration     7          0.670              1.742              1.647
 Vibration     8          0.684              1.700              1.498
 Vibration     9          0.708              1.629              1.293
 Vibration    10          0.726              1.578              1.173
 Vibration    11          0.749              1.515              1.044
 Vibration    12          0.775              1.448              0.925
 Vibration    13          0.835              1.297              0.713
 Vibration    14          0.842              1.281              0.694
 Vibration    15          0.863              1.234              0.640
 Vibration    16          0.865              1.228              0.634
 Vibration    17          0.897              1.157              0.561
 Vibration    18          0.903              1.144              0.548
 Vibration    19          0.924              1.100              0.507
 Vibration    20          0.926              1.095              0.503
 Vibration    21          0.936              1.077              0.487
 Vibration    22          0.963              1.023              0.442

 Optimization completed.
    -- Stationary point found.
 Normal termination of Gaussian 16 at Sun Feb 11 17:00:43 2024.
