 Q-Chem 5.4, Q-Chem, Inc., Pleasanton, CA (2021)
 Q-Chem 5.4.0 for Intel X86 EM64T Linux

User input:
--------------------------------------------------------------
$molecule
-1 2
C                  5.2627680000     -2.3269510000      0.3723040000
C                  6.0194460000     -1.5014480000     -0.4381220000
C                  5.3850890000     -0.6054670000     -1.3221910000
C                  3.8526840000     -2.2925160000      0.3340880000
C                  3.2193670000     -1.3916360000     -0.5547650000
C                  4.0050380000     -0.5563890000     -1.3747140000
C                  3.0967500000     -3.1967010000      1.2219220000
C                  1.6377260000     -3.1312260000      1.1528750000
C                  1.0160040000     -2.2178730000      0.2520140000
C                  1.7587860000     -1.3193050000     -0.6303850000
C                  0.7818690000     -3.9735250000      1.9791820000
C                 -0.6419140000     -3.8631410000      1.8663250000
C                 -0.4013530000     -2.1444210000      0.1755700000
C                 -1.2067200000     -2.9288910000      0.9452880000
O                  3.7336100000     -3.9696040000      1.9847670000
O                  1.1834040000     -0.5254090000     -1.4135370000
H                  5.7252660000     -3.0243580000      1.0603400000
H                  7.1038710000     -1.5427600000     -0.3941310000
H                  5.9798250000      0.0429200000     -1.9587560000
H                 -2.2883010000     -2.8562630000      0.8706530000
H                  3.4849330000      0.1204160000     -2.0426710000
H                 -0.8118440000     -1.4303010000     -0.5284990000
C                 -1.4838040000     -4.6744510000      2.6621420000
C                 -0.9566230000     -5.5819040000      3.5565840000
C                  0.4333540000     -5.7064940000      3.6832730000
C                  1.2745930000     -4.9230100000      2.9148740000
O                 -1.7484490000     -6.3919720000      4.3513030000
H                 -2.5620770000     -4.5701300000      2.5562740000
H                  0.8356130000     -6.4236760000      4.3901130000
H                  2.3452800000     -5.0179850000      3.0114960000
H                 -2.6710040000     -6.1980960000      4.1577830000
$end
$rem
MAX_SCF_CYCLES=200
BASIS  =  6-311++G(d,p)
GUI  =  2
JOB_TYPE  =  SP
METHOD  =  B3LYP
SOLVENT_METHOD = COSMO
$end
$solvent
dielectric 37.219
opticaldielectric 1.43
$end

--------------------------------------------------------------

             Standard Nuclear Orientation (Angstroms)
    I     Atom           X                Y                Z
 ----------------------------------------------------------------
    1      C       3.1675828088    -1.9187227653     0.0001356716
    2      C       4.5288799270    -1.6785619371    -0.0000452952
    3      C       5.0123340197    -0.3545374496    -0.0002669984
    4      C       2.2398564355    -0.8555638429     0.0001027255
    5      C       2.7290144126     0.4723892011    -0.0000943982
    6      C       4.1200893087     0.7007385586    -0.0002902125
    7      C       0.7985998798    -1.1718160431     0.0002595734
    8      C      -0.1307296839    -0.0430326085     0.0001320953
    9      C       0.3789866935     1.2883169710     0.0001009368
   10      C       1.8055430433     1.6088079820    -0.0000939694
   11      C      -1.5767608871    -0.2267057493     0.0000644306
   12      C      -2.4362301012     0.9193274201     0.0001386080
   13      C      -0.5138950807     2.3941659087     0.0002069519
   14      C      -1.8663802949     2.2290637365     0.0002630576
   15      O       0.4428026802    -2.3794213307     0.0004121157
   16      O       2.2247130501     2.7915838966    -0.0001267943
   17      H       2.7699239681    -2.9264637432     0.0003052802
   18      H       5.2271755255    -2.5104289495    -0.0000161169
   19      H       6.0818467216    -0.1661915803    -0.0004243799
   20      H      -2.5307863285     3.0888470134     0.0003542418
   21      H       4.4573448428     1.7307868308    -0.0004761382
   22      H      -0.0637555230     3.3798422098     0.0002214326
   23      C      -3.8410072408     0.7552281648     0.0000476333
   24      C      -4.4090863187    -0.5012364651    -0.0001530558
   25      C      -3.5872113377    -1.6361947619    -0.0002608069
   26      C      -2.2113593651    -1.4983593781    -0.0001460580
   27      O      -5.7783892727    -0.7007014389    -0.0002636422
   28      H      -4.4707092489     1.6430563829     0.0001028393
   29      H      -4.0459937612    -2.6186934992    -0.0004304247
   30      H      -1.5772653114    -2.3716585475    -0.0002187674
   31      H      -6.2101498595     0.1593732166    -0.0001967395
 ----------------------------------------------------------------

   10    -917.9463609886      8.70e-06  Convergence criterion met
 Total energy in the final basis set =     -917.9463609886
    4    -918.0309682494      8.74e-06  Convergence criterion met
 Total energy in the final basis set =     -918.0309682494

                    Orbital Energies (a.u.)
 --------------------------------------------------------------

 Alpha MOs
 -- Occupied --
-19.1573 -19.0825 -19.0784 -10.2375 -10.2293 -10.2290 -10.1878 -10.1844
-10.1811 -10.1748 -10.1738 -10.1738 -10.1737 -10.1733 -10.1721 -10.1717
-10.1714 -10.1711 -10.1698 -10.1688 -10.1680  -1.0635  -1.0104  -1.0066
 -0.8746  -0.8588  -0.8257  -0.7875  -0.7614  -0.7514  -0.7451  -0.7212
 -0.6736  -0.6383  -0.6355  -0.6123  -0.5956  -0.5631  -0.5549  -0.5344
 -0.5165  -0.5001  -0.4813  -0.4660  -0.4626  -0.4539  -0.4349  -0.4297
 -0.4287  -0.4230  -0.4167  -0.4155  -0.4067  -0.4051  -0.3959  -0.3863
 -0.3739  -0.3735  -0.3640  -0.3494  -0.3480  -0.3414  -0.3342  -0.3118
 -0.2851  -0.2621  -0.2580  -0.2504  -0.2432  -0.2374  -0.2202  -0.1485

 Beta MOs
 -- Occupied --
-19.1572 -19.0771 -19.0731 -10.2373 -10.2275 -10.2275 -10.1877 -10.1844
-10.1800 -10.1743 -10.1735 -10.1731 -10.1729 -10.1726 -10.1721 -10.1714
-10.1711 -10.1705 -10.1697 -10.1692 -10.1678  -1.0632  -1.0011  -0.9971
 -0.8732  -0.8572  -0.8238  -0.7846  -0.7599  -0.7495  -0.7438  -0.7196
 -0.6667  -0.6368  -0.6339  -0.6105  -0.5949  -0.5613  -0.5534  -0.5330
 -0.5152  -0.4989  -0.4788  -0.4648  -0.4613  -0.4532  -0.4344  -0.4281
 -0.4217  -0.4208  -0.4135  -0.4091  -0.4043  -0.4040  -0.3949  -0.3726
 -0.3718  -0.3633  -0.3632  -0.3467  -0.3407  -0.3402  -0.3331  -0.3063
 -0.2750  -0.2525  -0.2504  -0.2455  -0.2376  -0.2326  -0.2140

          Ground-State Mulliken Net Atomic Charges

     Atom                 Charge (a.u.)    Spin (a.u.)
  --------------------------------------------------------
      1 C                     0.030009       0.027315
      2 C                    -0.485626       0.024695
      3 C                    -0.483119       0.029368
      4 C                     0.167379       0.000069
      5 C                     0.128902       0.018560
      6 C                    -0.064957       0.021232
      7 C                    -0.613125       0.114601
      8 C                     0.662894       0.092283
      9 C                     0.656351       0.087929
     10 C                    -0.754677       0.090359
     11 C                     0.875572       0.015437
     12 C                     0.576677      -0.007916
     13 C                    -0.229365      -0.013670
     14 C                    -0.443495       0.079987
     15 O                    -0.444166       0.200161
     16 O                    -0.473281       0.195039
     17 H                     0.174263      -0.001761
     18 H                     0.204330      -0.002082
     19 H                     0.204011      -0.002466
     20 H                     0.192479      -0.004702
     21 H                     0.175200      -0.001402
     22 H                     0.174896       0.000759
     23 C                    -0.300096       0.001738
     24 C                    -0.541530       0.011809
     25 C                    -0.448592       0.015069
     26 C                    -0.506540       0.011786
     27 O                    -0.315881       0.002572
     28 H                     0.162721      -0.000989
     29 H                     0.229508      -0.001557
     30 H                     0.164526      -0.004145
     31 H                     0.324731      -0.000076
  --------------------------------------------------------
  Sum of atomic charges =    -1.000001

                    Cartesian Multipole Moments
 -----------------------------------------------------------------
    Charge (ESU x 10^10)
                -4.8032
    Dipole Moment (Debye)
         X      -5.2723      Y       0.6986      Z      -0.0021
       Tot       5.3184
    Quadrupole Moments (Debye-Ang)
        XX    -126.1056     XY     -26.4309     YY    -149.0236
        XZ      -0.0002     YZ       0.0031     ZZ    -129.7097

 Total job time:  230.49s(wall), 902.97s(cpu)
        *  Thank you very much for using Q-Chem.  Have a nice day.  *
