 Gaussian 16, Revision A.03,
 Gaussian 16:  ES64L-G16RevA.03 25-Dec-2016

 --------------------------------------
 #P UB3LYP/6-311++G(d,p) nosym opt freq
 --------------------------------------

 -------
 Reduced
 -------
 Symbolic Z-matrix:
 Charge = -2 Multiplicity = 1

 SCF Done:  E(UB3LYP) =  -1760.44339413     A.U. after   27 cycles
 Optimization completed.
    -- Stationary point found.
 Normal termination of Gaussian 16 at Sat Jan  6 05:50:53 2024.

 ----------------------------------------------------------------------
 #P Geom=AllCheck Guess=TCheck SCRF=Check GenChk UB3LYP/6-311++G(d,p) F
 req
 ----------------------------------------------------------------------

 Structure from the checkpoint file:  "026-an.chk"
 -------
 Reduced
 -------
 Charge = -2 Multiplicity = 1

                          Input orientation:
 ---------------------------------------------------------------------
 Center     Atomic      Atomic             Coordinates (Angstroms)
 Number     Number       Type             X           Y           Z
 ---------------------------------------------------------------------
      1         17           0       -2.681165   -1.722753   -0.012421
      2          6           0       -1.149909   -0.754296   -0.004912
      3          6           0       -1.282710    0.626903   -0.037882
      4          6           0       -0.169331    1.529536   -0.036783
      5          8           0       -0.296389    2.809891   -0.067572
      6          6           0        1.077799    0.820000    0.002198
      7          6           0        1.182619   -0.582836    0.035108
      8         17           0        2.793830   -1.357584    0.082269
      9          6           0        0.071730   -1.501634    0.034584
     10          8           0        0.170408   -2.776390    0.064392
     11         17           0        2.553838    1.834829    0.007400
     12          1           0       -2.270720    1.074335   -0.066382
 ---------------------------------------------------------------------

 SCF Done:  E(UB3LYP) =  -1760.44339413     A.U. after    5 cycles

 Alpha  occ. eigenvalues -- -101.28319-101.28251-101.28127 -18.76014 -18.75807
 Alpha  occ. eigenvalues --   -9.94442  -9.94088  -9.93907  -9.93664  -9.93140
 Alpha  occ. eigenvalues --   -9.88569  -9.19732  -9.19678  -9.19552  -6.96108
 Alpha  occ. eigenvalues --   -6.96088  -6.95956  -6.95282  -6.95232  -6.95225
 Alpha  occ. eigenvalues --   -6.95137  -6.95101  -6.95016  -0.68564  -0.67616
 Alpha  occ. eigenvalues --   -0.60327  -0.58610  -0.56564  -0.51438  -0.42930
 Alpha  occ. eigenvalues --   -0.40232  -0.30708  -0.28459  -0.21044  -0.18928
 Alpha  occ. eigenvalues --   -0.17216  -0.14563  -0.13729  -0.10493  -0.10054
 Alpha  occ. eigenvalues --   -0.09449  -0.09397  -0.07966  -0.05395  -0.05387
 Alpha  occ. eigenvalues --   -0.04689  -0.04190  -0.03205   0.02932   0.04011
 Alpha  occ. eigenvalues --    0.05698   0.06056   0.13183
 Alpha virt. eigenvalues --    0.20486   0.21405   0.22423   0.23577   0.25655
 Alpha virt. eigenvalues --    0.27090   0.27376   0.27827   0.28197   0.28504
 Alpha virt. eigenvalues --    0.29117   0.29838   0.30044   0.30323   0.31794

  Beta  occ. eigenvalues -- -101.28319-101.28251-101.28127 -18.76014 -18.75807
  Beta  occ. eigenvalues --   -9.94442  -9.94088  -9.93907  -9.93664  -9.93140
  Beta  occ. eigenvalues --   -9.88569  -9.19732  -9.19678  -9.19552  -6.96108
  Beta  occ. eigenvalues --   -6.96088  -6.95956  -6.95282  -6.95232  -6.95225
  Beta  occ. eigenvalues --   -6.95137  -6.95101  -6.95016  -0.68564  -0.67616
  Beta  occ. eigenvalues --   -0.60327  -0.58610  -0.56564  -0.51438  -0.42930
  Beta  occ. eigenvalues --   -0.40232  -0.30708  -0.28459  -0.21044  -0.18928
  Beta  occ. eigenvalues --   -0.17216  -0.14563  -0.13729  -0.10493  -0.10054
  Beta  occ. eigenvalues --   -0.09449  -0.09397  -0.07966  -0.05395  -0.05387
  Beta  occ. eigenvalues --   -0.04689  -0.04190  -0.03205   0.02932   0.04011
  Beta  occ. eigenvalues --    0.05698   0.06056   0.13183
  Beta virt. eigenvalues --    0.20486   0.21405   0.22423   0.23577   0.25655
  Beta virt. eigenvalues --    0.27090   0.27376   0.27827   0.28197   0.28504
  Beta virt. eigenvalues --    0.29117   0.29838   0.30044   0.30323   0.31794

 Mulliken charges and spin densities:
               1          2
     1  Cl   0.032472  -0.000000
     2  C    1.681068   0.000000
     3  C   -0.822168   0.000000
     4  C   -1.587702  -0.000000
     5  O   -0.519205  -0.000000
     6  C    0.715653   0.000000
     7  C    0.809578   0.000000
     8  Cl   0.188089  -0.000000
     9  C   -2.323541  -0.000000
    10  O   -0.437527   0.000000
    11  Cl   0.174586  -0.000000
    12  H    0.088695   0.000000
 Sum of Mulliken charges =  -2.00000  -0.00000

 Dipole moment (field-independent basis, Debye):
    X=             -1.9268    Y=              0.8924    Z=             -0.0556  Tot=              2.1242
 Quadrupole moment (field-independent basis, Debye-Ang):
   XX=           -121.6639   YY=           -153.3331   ZZ=            -91.8059
   XY=             -3.5240   XZ=             -0.4831   YZ=              1.2913

  Exact polarizability: 190.691  12.171 175.832   1.784  -1.852  81.404
 Approx polarizability: 279.789  10.887 282.317   2.786  -3.407 118.598

                      1                      2                      3
                      A                      A                      A
 Frequencies --     72.9096                89.0065               165.0687
 Red. masses --     22.7032                18.8721                12.1401
 Frc consts  --      0.0711                 0.0881                 0.1949
 IR Inten    --      2.7149                 4.0703                 6.7500

                      4                      5                      6
                      A                      A                      A
 Frequencies --    192.9566               207.7993               259.0174
 Red. masses --     23.7629                30.9182                18.2207
 Frc consts  --      0.5213                 0.7866                 0.7202
 IR Inten    --      3.2851                 1.9127                 0.8580

                      7                      8                      9
                      A                      A                      A
 Frequencies --    265.8639               301.0839               314.6717
 Red. masses --      7.1541                26.3551                12.4278
 Frc consts  --      0.2979                 1.4076                 0.7250
 IR Inten    --      0.0637                 0.6799                 0.7453

                     10                     11                     12
                      A                      A                      A
 Frequencies --    319.8944               367.4643               486.5334
 Red. masses --     19.3713                20.6697                13.6130
 Frc consts  --      1.1679                 1.6444                 1.8986
 IR Inten    --      0.5410                 0.2685                 0.1363

                     13                     14                     15
                      A                      A                      A
 Frequencies --    488.4087               555.1988               659.0308
 Red. masses --      4.9711                10.1717                 3.0475
 Frc consts  --      0.6987                 1.8473                 0.7798
 IR Inten    --      0.7041                40.6285                 2.8981

                     16                     17                     18
                      A                      A                      A
 Frequencies --    660.1778               741.0799               743.0462
 Red. masses --      7.1742                10.8316                 6.2963
 Frc consts  --      1.8422                 3.5049                 2.0482
 IR Inten    --     13.4313                58.2311                 3.4877

                     19                     20                     21
                      A                      A                      A
 Frequencies --    804.3890               838.1045               933.8447
 Red. masses --      2.1958                10.7951                11.2993
 Frc consts  --      0.8371                 4.4676                 5.8056
 IR Inten    --     20.5962               238.6703                21.3269

                     22                     23                     24
                      A                      A                      A
 Frequencies --   1049.2489              1105.7494              1236.9337
 Red. masses --      3.1903                 9.3446                 2.0926
 Frc consts  --      2.0694                 6.7317                 1.8864
 IR Inten    --    140.2300               169.9880                50.7316

                     25                     26                     27
                      A                      A                      A
 Frequencies --   1355.2963              1379.8745              1397.1826
 Red. masses --      6.4991                 9.0792                11.8232
 Frc consts  --      7.0335                10.1854                13.5985
 IR Inten    --     17.6406               130.0498                16.0545

                     28                     29                     30
                      A                      A                      A
 Frequencies --   1471.9447              1596.8067              3156.2233
 Red. masses --      7.8995                 9.9474                 1.0888
 Frc consts  --     10.0840                14.9439                 6.3902
 IR Inten    --   1171.5918                14.1873                26.7623

 - Thermochemistry -
 -------------------
 Temperature   298.150 Kelvin.  Pressure   1.00000 Atm.
 Atom     1 has atomic number 17 and mass  34.96885

 Molecular mass:   209.90421 amu.
 Principal axes and moments of inertia in atomic units:
                           1         2         3
     Eigenvalues --  1763.514463233.928024997.44247
           X            0.85008  -0.52632  -0.01875
           Y            0.52664   0.84981   0.02203
           Z            0.00434  -0.02861   0.99958
 This molecule is an asymmetric top.
 Rotational symmetry number  1.
 Warning -- assumption of classical behavior for rotation
           may cause significant error
 Rotational temperatures (Kelvin)      0.04911     0.02678     0.01733
 Rotational constants (GHZ):           1.02338     0.55806     0.36113
 Zero-point vibrational energy     138855.4 (Joules/Mol)
                                   33.18724 (Kcal/Mol)
 Warning -- explicit consideration of  14 degrees of freedom as
           vibrations may cause significant error
 Vibrational temperatures:    104.90   128.06   237.50   277.62   298.98
          (Kelvin)            372.67   382.52   433.19   452.74   460.26
                              528.70   700.01   702.71   798.81   948.20
                              949.85  1066.25  1069.08  1157.34  1205.85
                             1343.59  1509.64  1590.93  1779.67  1949.97
                             1985.33  2010.23  2117.80  2297.45  4541.10

 Zero-point correction=                           0.052887 (Hartree/Particle)
 Thermal correction to Energy=                    0.062902
 Thermal correction to Enthalpy=                  0.063846
 Thermal correction to Gibbs Free Energy=         0.016092
 Sum of electronic and zero-point Energies=          -1760.390507
 Sum of electronic and thermal Energies=             -1760.380492
 Sum of electronic and thermal Enthalpies=           -1760.379548
 Sum of electronic and thermal Free Energies=        -1760.427302

                     E (Thermal)             CV                S
                      KCal/Mol        Cal/Mol-Kelvin    Cal/Mol-Kelvin
 Total                   39.471             35.378            100.506
 Electronic               0.000              0.000              0.000
 Translational            0.889              2.981             41.928
 Rotational               0.889              2.981             31.722
 Vibrational             37.694             29.417             26.856
 Vibration     1          0.599              1.967              4.073
 Vibration     2          0.602              1.957              3.682
 Vibration     3          0.623              1.885              2.491
 Vibration     4          0.635              1.850              2.199
 Vibration     5          0.641              1.829              2.063
 Vibration     6          0.668              1.748              1.668
 Vibration     7          0.672              1.736              1.623
 Vibration     8          0.693              1.672              1.411
 Vibration     9          0.702              1.646              1.338
 Vibration    10          0.706              1.635              1.311
 Vibration    11          0.740              1.539              1.090
 Vibration    12          0.843              1.280              0.693
 Vibration    13          0.844              1.276              0.688
 Vibration    14          0.911              1.128              0.534

 Optimization completed.
    -- Stationary point found.
 Normal termination of Gaussian 16 at Sat Jan  6 05:55:38 2024.
