 Q-Chem 5.4, Q-Chem, Inc., Pleasanton, CA (2021)
 Q-Chem 5.4.0 for Intel X86 EM64T Linux

User input:
--------------------------------------------------------------
$molecule
-2 1
Cl                -2.6811650000     -1.7227530000     -0.0124210000
C                 -1.1499090000     -0.7542960000     -0.0049120000
C                 -1.2827100000      0.6269030000     -0.0378820000
C                 -0.1693310000      1.5295360000     -0.0367830000
O                 -0.2963890000      2.8098910000     -0.0675720000
C                  1.0777990000      0.8200000000      0.0021980000
C                  1.1826190000     -0.5828360000      0.0351080000
Cl                 2.7938300000     -1.3575840000      0.0822690000
C                  0.0717300000     -1.5016340000      0.0345840000
O                  0.1704080000     -2.7763900000      0.0643920000
Cl                 2.5538380000      1.8348290000      0.0074000000
H                 -2.2707200000      1.0743350000     -0.0663820000
$end
$rem
MAX_SCF_CYCLES=200
BASIS  =  6-311++G(d,p)
GUI  =  2
JOB_TYPE  =  SP
METHOD  =  B3LYP
SOLVENT_METHOD = COSMO
$end
$solvent
dielectric 37.219
opticaldielectric 1.43
$end

--------------------------------------------------------------

             Standard Nuclear Orientation (Angstroms)
    I     Atom           X                Y                Z
 ----------------------------------------------------------------
    1      Cl      3.4219028509     0.2955337710     0.0000746534
    2      C       1.6102278103     0.3188535929    -0.0000550494
    3      C       1.0003185381     1.5656272222    -0.0000226512
    4      C      -0.4208511795     1.7517372973    -0.0001309920
    5      O      -0.9828609789     2.9095566166     0.0000510188
    6      C      -1.1120068927     0.4937238366    -0.0000746527
    7      C      -0.4669297336    -0.7568338797    -0.0000950445
    8      Cl     -1.4341565320    -2.2611383069     0.0000491081
    9      C       0.9605800630    -0.9580307637    -0.0001585883
   10      O       1.5438409980    -2.0962027127    -0.0000155802
   11      Cl     -2.9009098008     0.5854978022     0.0000444471
   12      H       1.6079074062     2.4645194081     0.0000788135
 ----------------------------------------------------------------

   11   -1760.4433467155      3.86e-06  Convergence criterion met
 Total energy in the final basis set =    -1760.4433467155
    5   -1760.7265363594      7.89e-06  Convergence criterion met
 Total energy in the final basis set =    -1760.7265363594

                    Orbital Energies (a.u.)
 --------------------------------------------------------------

 Alpha MOs
 -- Occupied --
********-101.5367-101.5342 -19.0396 -19.0371 -10.2092 -10.2067 -10.2056
-10.2027 -10.2012 -10.1482  -9.4521  -9.4510  -9.4484  -7.2164  -7.2151
 -7.2123  -7.2075  -7.2066  -7.2064  -7.2057  -7.2038  -7.2034  -0.9637
 -0.9553  -0.8651  -0.8426  -0.8234  -0.7762  -0.6913  -0.6694  -0.5705
 -0.5486  -0.4771  -0.4538  -0.4289  -0.4044  -0.4024  -0.3870  -0.3702
 -0.3620  -0.3553  -0.3433  -0.3150  -0.3131  -0.3076  -0.3005  -0.2892
 -0.2460  -0.2239  -0.2213  -0.2201  -0.1437

          Ground-State Mulliken Net Atomic Charges

     Atom                 Charge (a.u.)
  ----------------------------------------
      1 Cl                    0.117326
      2 C                     1.230907
      3 C                    -0.852340
      4 C                    -1.039237
      5 O                    -0.684461
      6 C                     0.376262
      7 C                     0.518599
      8 Cl                    0.232575
      9 C                    -1.687292
     10 O                    -0.610772
     11 Cl                    0.217720
     12 H                     0.180713
  ----------------------------------------
  Sum of atomic charges =    -2.000000

                    Cartesian Multipole Moments
 -----------------------------------------------------------------
    Charge (ESU x 10^10)
                -9.6064
    Dipole Moment (Debye)
         X      -1.2107      Y      -1.8147      Z      -0.0003
       Tot       2.1815
    Quadrupole Moments (Debye-Ang)
        XX    -124.1597     XY      20.9710     YY    -142.1450
        XZ       0.0006     YZ      -0.0005     ZZ     -90.8572

 Total job time:  16.02s(wall), 115.32s(cpu)
        *  Thank you very much for using Q-Chem.  Have a nice day.  *
