 Q-Chem 5.4, Q-Chem, Inc., Pleasanton, CA (2021)
 Q-Chem 5.4.0 for Intel X86 EM64T Linux

User input:
--------------------------------------------------------------
$molecule
-2 1
N                 -2.9383260000     -1.8691260000     -0.2485970000
C                 -2.5475880000     -0.5257520000     -0.1053160000
C                 -3.5047510000      0.4749300000     -0.0038190000
C                 -3.1212970000      1.8225890000      0.2152850000
C                 -1.7907440000      2.1482970000      0.3398470000
C                 -0.7702140000      1.1650880000      0.2264390000
C                  0.6081750000      1.6260360000      0.3465550000
O                  0.8680000000      2.8574630000      0.5641410000
C                  1.6181410000      0.5954150000      0.1922920000
C                  3.0244550000      0.8116870000      0.2914510000
Cl                 3.7199980000      2.4245740000      0.6943630000
C                  3.9818860000     -0.1622920000      0.1101680000
C                  3.5763220000     -1.4904630000     -0.1972710000
C                  2.2377860000     -1.7771870000     -0.2968170000
C                  1.2312560000     -0.7926440000     -0.1073590000
C                 -0.1328810000     -1.2220850000     -0.2287260000
O                 -0.4169430000     -2.4676810000     -0.5274730000
C                 -1.1384920000     -0.2110890000     -0.0221520000
H                 -3.7401230000     -1.9865930000     -0.8540540000
H                 -2.0992940000     -2.4336230000     -0.4962930000
H                 -4.5581610000      0.2008310000     -0.0528580000
H                 -3.8877340000      2.5923480000      0.2968140000
H                 -1.4610590000      3.1651610000      0.5198380000
H                  5.0305520000      0.0937920000      0.2095710000
H                  4.3285010000     -2.2631270000     -0.3431600000
H                  1.8825350000     -2.7765500000     -0.5228700000
$end
$rem
MAX_SCF_CYCLES=200
BASIS  =  6-311++G(d,p)
GUI  =  2
JOB_TYPE  =  SP
METHOD  =  B3LYP
SOLVENT_METHOD = PCM
$end
$pcm
theory = CPCM
$end
$solvent
dielectric 37.219
opticaldielectric 1.43
$end

--------------------------------------------------------------

             Standard Nuclear Orientation (Angstroms)
    I     Atom           X                Y                Z
 ----------------------------------------------------------------
    1      N      -2.9383260000    -1.8691260000    -0.2485970000
    2      C      -2.5475880000    -0.5257520000    -0.1053160000
    3      C      -3.5047510000     0.4749300000    -0.0038190000
    4      C      -3.1212970000     1.8225890000     0.2152850000
    5      C      -1.7907440000     2.1482970000     0.3398470000
    6      C      -0.7702140000     1.1650880000     0.2264390000
    7      C       0.6081750000     1.6260360000     0.3465550000
    8      O       0.8680000000     2.8574630000     0.5641410000
    9      C       1.6181410000     0.5954150000     0.1922920000
   10      C       3.0244550000     0.8116870000     0.2914510000
   11      Cl      3.7199980000     2.4245740000     0.6943630000
   12      C       3.9818860000    -0.1622920000     0.1101680000
   13      C       3.5763220000    -1.4904630000    -0.1972710000
   14      C       2.2377860000    -1.7771870000    -0.2968170000
   15      C       1.2312560000    -0.7926440000    -0.1073590000
   16      C      -0.1328810000    -1.2220850000    -0.2287260000
   17      O      -0.4169430000    -2.4676810000    -0.5274730000
   18      C      -1.1384920000    -0.2110890000    -0.0221520000
   19      H      -3.7401230000    -1.9865930000    -0.8540540000
   20      H      -2.0992940000    -2.4336230000    -0.4962930000
   21      H      -4.5581610000     0.2008310000    -0.0528580000
   22      H      -3.8877340000     2.5923480000     0.2968140000
   23      H      -1.4610590000     3.1651610000     0.5198380000
   24      H       5.0305520000     0.0937920000     0.2095710000
   25      H       4.3285010000    -2.2631270000    -0.3431600000
   26      H       1.8825350000    -2.7765500000    -0.5228700000
 ----------------------------------------------------------------

    9   -1204.1919480783      4.95e-06  Convergence criterion met
 Total energy in the final basis set =    -1204.1919480783

                    Orbital Energies (a.u.)
 --------------------------------------------------------------

 Alpha MOs
 -- Occupied --
******** -19.0304 -19.0225 -14.2785 -10.2162 -10.1903 -10.1852 -10.1825
-10.1573 -10.1558 -10.1540 -10.1490 -10.1489 -10.1465 -10.1454 -10.1403
-10.1388 -10.1355  -9.4453  -7.2095  -7.2007  -7.1996  -0.9494  -0.9457
 -0.8822  -0.8591  -0.8148  -0.8031  -0.7567  -0.7150  -0.7123  -0.7017
 -0.6416  -0.6100  -0.6004  -0.5523  -0.5251  -0.5216  -0.5002  -0.4697
 -0.4497  -0.4454  -0.4416  -0.4217  -0.4120  -0.4047  -0.3930  -0.3848
 -0.3755  -0.3665  -0.3634  -0.3569  -0.3356  -0.3341  -0.3281  -0.3237
 -0.3138  -0.3021  -0.2971  -0.2823  -0.2341  -0.2282  -0.2214  -0.2120
 -0.1972  -0.1904  -0.1115

          Ground-State Mulliken Net Atomic Charges

     Atom                 Charge (a.u.)
  ----------------------------------------
      1 N                    -0.479686
      2 C                    -0.058658
      3 C                    -0.286605
      4 C                    -0.504826
      5 C                    -0.078996
      6 C                     0.340037
      7 C                    -1.425142
      8 O                    -0.554337
      9 C                    -0.232069
     10 C                     0.890233
     11 Cl                    0.291142
     12 C                    -0.147879
     13 C                    -0.719293
     14 C                     0.357847
     15 C                     0.263166
     16 C                    -0.826334
     17 O                    -0.641152
     18 C                     0.226594
     19 H                     0.258230
     20 H                     0.318616
     21 H                     0.162075
     22 H                     0.174832
     23 H                     0.141237
     24 H                     0.191665
     25 H                     0.177279
     26 H                     0.162022
  ----------------------------------------
  Sum of atomic charges =    -2.000000

                    Cartesian Multipole Moments
 -----------------------------------------------------------------
    Charge (ESU x 10^10)
                -9.6064
    Dipole Moment (Debye)
         X      -3.7970      Y      -4.7818      Z      -2.4122
       Tot       6.5652
    Quadrupole Moments (Debye-Ang)
        XX    -144.5115     XY     -16.9981     YY    -173.0905
        XZ       0.7115     YZ      -7.2140     ZZ    -125.5863

 Total job time:  222.92s(wall), 382.22s(cpu)
        *  Thank you very much for using Q-Chem.  Have a nice day.  *
