 Q-Chem 5.4, Q-Chem, Inc., Pleasanton, CA (2021)
 Q-Chem 5.4.0 for Intel X86 EM64T Linux

User input:
--------------------------------------------------------------
$molecule
0 1
O                  1.9344000000     -3.1205870000      0.5061530000
C                  1.4782670000     -1.9898950000      0.3688080000
C                  0.0527550000     -1.7079720000      0.2899790000
C                 -0.4351130000     -0.4507400000      0.1517390000
O                  0.3851230000      0.6320980000      0.0544960000
C                  1.7463300000      0.4705940000      0.1019060000
C                  2.5162260000      1.6306890000     -0.0073050000
C                  3.8972940000      1.5224510000      0.0395500000
C                  4.5119050000      0.2706190000      0.1945250000
C                  3.7357660000     -0.8704690000      0.3026920000
C                  2.3358320000     -0.7873710000      0.2582900000
C                 -1.8604220000     -0.0800130000      0.0676450000
C                 -2.8552240000     -0.9371410000      0.5621470000
C                 -4.1980460000     -0.5921120000      0.4621030000
C                 -4.5715670000      0.6146900000     -0.1292380000
C                 -3.5905490000      1.4770370000     -0.6147280000
C                 -2.2449570000      1.1370410000     -0.5144880000
H                 -0.6225360000     -2.5508280000      0.3286660000
H                  2.0221320000      2.5873560000     -0.1237610000
H                  4.5045170000      2.4164990000     -0.0441350000
H                  5.5926070000      0.2005100000      0.2297700000
H                  4.1772900000     -1.8524760000      0.4232560000
H                 -2.5793780000     -1.8664060000      1.0449090000
H                 -4.9539920000     -1.2625200000      0.8544800000
H                 -5.6192410000      0.8823510000     -0.2053360000
H                 -3.8725720000      2.4175970000     -1.0739640000
H                 -1.4868510000      1.8089970000     -0.8942120000
$end
$rem
MAX_SCF_CYCLES=200
BASIS  =  6-311++G(d,p)
GUI  =  2
JOB_TYPE  =  SP
METHOD  =  B3LYP
SOLVENT_METHOD = PCM
$end
$pcm
theory = CPCM
$end
$solvent
dielectric 37.219
opticaldielectric 1.43
$end

--------------------------------------------------------------

             Standard Nuclear Orientation (Angstroms)
    I     Atom           X                Y                Z
 ----------------------------------------------------------------
    1      O       1.9344000000    -3.1205870000     0.5061530000
    2      C       1.4782670000    -1.9898950000     0.3688080000
    3      C       0.0527550000    -1.7079720000     0.2899790000
    4      C      -0.4351130000    -0.4507400000     0.1517390000
    5      O       0.3851230000     0.6320980000     0.0544960000
    6      C       1.7463300000     0.4705940000     0.1019060000
    7      C       2.5162260000     1.6306890000    -0.0073050000
    8      C       3.8972940000     1.5224510000     0.0395500000
    9      C       4.5119050000     0.2706190000     0.1945250000
   10      C       3.7357660000    -0.8704690000     0.3026920000
   11      C       2.3358320000    -0.7873710000     0.2582900000
   12      C      -1.8604220000    -0.0800130000     0.0676450000
   13      C      -2.8552240000    -0.9371410000     0.5621470000
   14      C      -4.1980460000    -0.5921120000     0.4621030000
   15      C      -4.5715670000     0.6146900000    -0.1292380000
   16      C      -3.5905490000     1.4770370000    -0.6147280000
   17      C      -2.2449570000     1.1370410000    -0.5144880000
   18      H      -0.6225360000    -2.5508280000     0.3286660000
   19      H       2.0221320000     2.5873560000    -0.1237610000
   20      H       4.5045170000     2.4164990000    -0.0441350000
   21      H       5.5926070000     0.2005100000     0.2297700000
   22      H       4.1772900000    -1.8524760000     0.4232560000
   23      H      -2.5793780000    -1.8664060000     1.0449090000
   24      H      -4.9539920000    -1.2625200000     0.8544800000
   25      H      -5.6192410000     0.8823510000    -0.2053360000
   26      H      -3.8725720000     2.4175970000    -1.0739640000
   27      H      -1.4868510000     1.8089970000    -0.8942120000
 ----------------------------------------------------------------

    8    -728.2740866569      9.81e-06  Convergence criterion met
 Total energy in the final basis set =     -728.2740866569

                    Orbital Energies (a.u.)
 --------------------------------------------------------------

 Alpha MOs
 -- Occupied --
-19.2106 -19.1085 -10.2785 -10.2679 -10.2648 -10.2061 -10.1998 -10.1953
-10.1927 -10.1926 -10.1909 -10.1896 -10.1876 -10.1874 -10.1863 -10.1858
-10.1855  -1.1322  -1.0438  -0.8875  -0.8750  -0.8275  -0.7938  -0.7703
 -0.7609  -0.7550  -0.6804  -0.6614  -0.6233  -0.6163  -0.6048  -0.5648
 -0.5475  -0.5415  -0.5049  -0.4872  -0.4844  -0.4753  -0.4632  -0.4532
 -0.4475  -0.4426  -0.4366  -0.4278  -0.4118  -0.4024  -0.3934  -0.3816
 -0.3735  -0.3679  -0.3632  -0.3534  -0.3083  -0.2775  -0.2715  -0.2692
 -0.2596  -0.2499

          Ground-State Mulliken Net Atomic Charges

     Atom                 Charge (a.u.)
  ----------------------------------------
      1 O                    -0.414849
      2 C                    -1.384459
      3 C                    -0.001535
      4 C                     0.236940
      5 O                     0.032760
      6 C                    -1.395829
      7 C                    -0.395496
      8 C                    -0.482852
      9 C                    -0.249409
     10 C                     0.154403
     11 C                     2.356917
     12 C                     1.102597
     13 C                    -0.504682
     14 C                    -0.422873
     15 C                    -0.278420
     16 C                    -0.319514
     17 C                    -0.147879
     18 H                     0.234584
     19 H                     0.224472
     20 H                     0.224489
     21 H                     0.216670
     22 H                     0.195633
     23 H                     0.174601
     24 H                     0.226334
     25 H                     0.200654
     26 H                     0.225142
     27 H                     0.191602
  ----------------------------------------
  Sum of atomic charges =     0.000000

                    Cartesian Multipole Moments
 -----------------------------------------------------------------
    Charge (ESU x 10^10)
                 0.0000
    Dipole Moment (Debye)
         X      -2.6855      Y       5.7748      Z      -0.7507
       Tot       6.4128
    Quadrupole Moments (Debye-Ang)
        XX     -74.6058     XY      15.0617     YY    -107.0304
        XZ      -1.9461     YZ      -1.7246     ZZ    -102.1664

 Total job time:  38.56s(wall), 285.03s(cpu)
        *  Thank you very much for using Q-Chem.  Have a nice day.  *
