 Gaussian 16, Revision A.03,
 Gaussian 16:  ES64L-G16RevA.03 25-Dec-2016

 --------------------------------------
 #P UB3LYP/6-311++G(d,p) nosym opt freq
 --------------------------------------

 --------
 Oxidized
 --------
 Symbolic Z-matrix:
 Charge =  0 Multiplicity = 1

 SCF Done:  E(UB3LYP) =  -728.258844831     A.U. after   16 cycles
 Optimization completed.
    -- Stationary point found.
 Normal termination of Gaussian 16 at Tue Jan  9 20:33:00 2024.

 ----------------------------------------------------------------------
 #P Geom=AllCheck Guess=TCheck SCRF=Check GenChk UB3LYP/6-311++G(d,p) F
 req
 ----------------------------------------------------------------------

 Structure from the checkpoint file:  "345.chk"
 --------
 Oxidized
 --------
 Charge =  0 Multiplicity = 1

                          Input orientation:
 ---------------------------------------------------------------------
 Center     Atomic      Atomic             Coordinates (Angstroms)
 Number     Number       Type             X           Y           Z
 ---------------------------------------------------------------------
      1          8           0        1.934400   -3.120587    0.506153
      2          6           0        1.478267   -1.989895    0.368808
      3          6           0        0.052755   -1.707972    0.289979
      4          6           0       -0.435113   -0.450740    0.151739
      5          8           0        0.385123    0.632098    0.054496
      6          6           0        1.746330    0.470594    0.101906
      7          6           0        2.516226    1.630689   -0.007305
      8          6           0        3.897294    1.522451    0.039550
      9          6           0        4.511905    0.270619    0.194525
     10          6           0        3.735766   -0.870469    0.302692
     11          6           0        2.335832   -0.787371    0.258290
     12          6           0       -1.860422   -0.080013    0.067645
     13          6           0       -2.855224   -0.937141    0.562147
     14          6           0       -4.198046   -0.592112    0.462103
     15          6           0       -4.571567    0.614690   -0.129238
     16          6           0       -3.590549    1.477037   -0.614728
     17          6           0       -2.244957    1.137041   -0.514488
     18          1           0       -0.622536   -2.550828    0.328666
     19          1           0        2.022132    2.587356   -0.123761
     20          1           0        4.504517    2.416499   -0.044135
     21          1           0        5.592607    0.200510    0.229770
     22          1           0        4.177290   -1.852476    0.423256
     23          1           0       -2.579378   -1.866406    1.044909
     24          1           0       -4.953992   -1.262520    0.854480
     25          1           0       -5.619241    0.882351   -0.205336
     26          1           0       -3.872572    2.417597   -1.073964
     27          1           0       -1.486851    1.808997   -0.894212
 ---------------------------------------------------------------------

 SCF Done:  E(UB3LYP) =  -728.258844831     A.U. after    1 cycles

 Alpha  occ. eigenvalues --  -19.20973 -19.09540 -10.27698 -10.26515 -10.25781
 Alpha  occ. eigenvalues --  -10.21166 -10.20030 -10.19872 -10.19805 -10.19718
 Alpha  occ. eigenvalues --  -10.19664 -10.19615 -10.19499 -10.19455 -10.19307
 Alpha  occ. eigenvalues --  -10.19102 -10.18626  -1.13217  -1.02916  -0.89068
 Alpha  occ. eigenvalues --   -0.87864  -0.82863  -0.79488  -0.77393  -0.76702
 Alpha  occ. eigenvalues --   -0.75894  -0.68278  -0.66308  -0.62838  -0.62274
 Alpha  occ. eigenvalues --   -0.60653  -0.56523  -0.55328  -0.54346  -0.50888
 Alpha  occ. eigenvalues --   -0.48892  -0.48750  -0.48178  -0.46930  -0.45612
 Alpha  occ. eigenvalues --   -0.45211  -0.44603  -0.43343  -0.42581  -0.40531
 Alpha  occ. eigenvalues --   -0.40353  -0.39504  -0.38513  -0.37608  -0.37416
 Alpha  occ. eigenvalues --   -0.36910  -0.35801  -0.31005  -0.27758  -0.27575
 Alpha  occ. eigenvalues --   -0.26234  -0.25423  -0.24797
 Alpha virt. eigenvalues --   -0.08173  -0.04874  -0.03329  -0.02414  -0.01408
 Alpha virt. eigenvalues --   -0.00691   0.00281   0.00573   0.00867   0.01562
 Alpha virt. eigenvalues --    0.02814   0.03117   0.03432   0.03848   0.04739

  Beta  occ. eigenvalues --  -19.20973 -19.09540 -10.27698 -10.26515 -10.25781
  Beta  occ. eigenvalues --  -10.21166 -10.20030 -10.19872 -10.19805 -10.19718
  Beta  occ. eigenvalues --  -10.19664 -10.19615 -10.19499 -10.19455 -10.19307
  Beta  occ. eigenvalues --  -10.19102 -10.18626  -1.13217  -1.02916  -0.89068
  Beta  occ. eigenvalues --   -0.87864  -0.82863  -0.79488  -0.77393  -0.76702
  Beta  occ. eigenvalues --   -0.75894  -0.68278  -0.66308  -0.62838  -0.62274
  Beta  occ. eigenvalues --   -0.60653  -0.56523  -0.55328  -0.54346  -0.50888
  Beta  occ. eigenvalues --   -0.48892  -0.48750  -0.48178  -0.46930  -0.45612
  Beta  occ. eigenvalues --   -0.45211  -0.44603  -0.43343  -0.42581  -0.40531
  Beta  occ. eigenvalues --   -0.40353  -0.39504  -0.38513  -0.37608  -0.37416
  Beta  occ. eigenvalues --   -0.36910  -0.35801  -0.31005  -0.27758  -0.27575
  Beta  occ. eigenvalues --   -0.26234  -0.25423  -0.24797
  Beta virt. eigenvalues --   -0.08173  -0.04874  -0.03329  -0.02414  -0.01408
  Beta virt. eigenvalues --   -0.00691   0.00281   0.00573   0.00867   0.01562
  Beta virt. eigenvalues --    0.02814   0.03117   0.03432   0.03848   0.04739

 Mulliken charges and spin densities:
               1          2
     1  O   -0.299727   0.000000
     2  C   -1.505147   0.000000
     3  C    0.025364   0.000000
     4  C    0.256305  -0.000000
     5  O    0.034605   0.000000
     6  C   -1.384666  -0.000000
     7  C   -0.384817   0.000000
     8  C   -0.426664   0.000000
     9  C   -0.179273  -0.000000
    10  C    0.151025   0.000000
    11  C    2.346892  -0.000000
    12  C    1.183406   0.000000
    13  C   -0.508694  -0.000000
    14  C   -0.382438  -0.000000
    15  C   -0.215138  -0.000000
    16  C   -0.283026   0.000000
    17  C   -0.138995   0.000000
    18  H    0.193240  -0.000000
    19  H    0.173328  -0.000000
    20  H    0.175916  -0.000000
    21  H    0.172599   0.000000
    22  H    0.192117  -0.000000
    23  H    0.124872  -0.000000
    24  H    0.184008   0.000000
    25  H    0.159303  -0.000000
    26  H    0.181955   0.000000
    27  H    0.153648  -0.000000
 Sum of Mulliken charges =  -0.00000  -0.00000

 Dipole moment (field-independent basis, Debye):
    X=             -1.9332    Y=              4.0156    Z=             -0.5223  Tot=              4.4872
 Quadrupole moment (field-independent basis, Debye-Ang):
   XX=            -79.8222   YY=           -104.9604   ZZ=           -102.0640
   XY=             10.6837   XZ=             -1.4246   YZ=             -1.7805

  Exact polarizability: 278.848 -10.652 192.464   3.942 -21.949  98.381
 Approx polarizability: 385.534 -31.219 358.790   5.101 -46.020 159.761

                      1                      2                      3
                      A                      A                      A
 Frequencies --     32.0177                57.3657               102.7751
 Red. masses --      4.0105                 5.5591                 5.0571
 Frc consts  --      0.0024                 0.0108                 0.0315
 IR Inten    --      0.4951                 0.3592                 0.3908

                      4                      5                      6
                      A                      A                      A
 Frequencies --    119.0502               154.1947               202.1282
 Red. masses --      5.8364                 4.7763                 5.1501
 Frc consts  --      0.0487                 0.0669                 0.1240
 IR Inten    --      2.8149                 0.4176                 1.5806

                      7                      8                      9
                      A                      A                      A
 Frequencies --    263.9094               280.8365               294.1113
 Red. masses --      6.7632                 5.8236                 6.1865
 Frc consts  --      0.2775                 0.2706                 0.3153
 IR Inten    --      1.5143                 0.0619                 3.1746

                     10                     11                     12
                      A                      A                      A
 Frequencies --    347.1386               410.2494               434.6084
 Red. masses --      6.3120                 2.8813                 3.5098
 Frc consts  --      0.4481                 0.2857                 0.3906
 IR Inten    --      5.1833                 0.1391                 0.3277

                     13                     14                     15
                      A                      A                      A
 Frequencies --    468.0089               504.2775               513.9859
 Red. masses --      3.9999                 8.8814                 6.7554
 Frc consts  --      0.5162                 1.3307                 1.0515
 IR Inten    --      4.1420                 2.8394                 2.4077

                     16                     17                     18
                      A                      A                      A
 Frequencies --    534.6898               587.5963               612.7804
 Red. masses --      3.5216                 8.5536                 5.6337
 Frc consts  --      0.5932                 1.7400                 1.2464
 IR Inten    --      5.1091                 0.7894                14.7582

                     19                     20                     21
                      A                      A                      A
 Frequencies --    633.1227               663.2550               685.0869
 Red. masses --      6.4261                 4.9336                 3.2560
 Frc consts  --      1.5177                 1.2787                 0.9004
 IR Inten    --      0.2111                 1.7082                13.9818

                     22                     23                     24
                      A                      A                      A
 Frequencies --    685.9931               702.5327               753.9655
 Red. masses --      5.8912                 1.7550                 5.2929
 Frc consts  --      1.6334                 0.5103                 1.7728
 IR Inten    --      3.6538                33.5105                 4.6914

                     25                     26                     27
                      A                      A                      A
 Frequencies --    768.1298               782.4459               788.9486
 Red. masses --      2.4779                 1.5323                 2.0213
 Frc consts  --      0.8614                 0.5527                 0.7413
 IR Inten    --     17.9574                91.8527                 3.1072

                     28                     29                     30
                      A                      A                      A
 Frequencies --    853.3844               860.2849               871.6813
 Red. masses --      1.2896                 5.3599                 1.5111
 Frc consts  --      0.5533                 2.3372                 0.6765
 IR Inten    --      2.5851                10.6824                17.8419

                     31                     32                     33
                      A                      A                      A
 Frequencies --    881.2473               920.2244               942.0483
 Red. masses --      1.5212                 6.6048                 1.4424
 Frc consts  --      0.6960                 3.2953                 0.7542
 IR Inten    --      2.4052                18.9444                 1.6976

                     34                     35                     36
                      A                      A                      A
 Frequencies --    978.7234               990.8399              1002.5375
 Red. masses --      1.3501                 1.3727                 1.3053
 Frc consts  --      0.7620                 0.7940                 0.7730
 IR Inten    --      1.3891                 0.4053                 0.2286

                     37                     38                     39
                      A                      A                      A
 Frequencies --   1007.3436              1015.8239              1031.2397
 Red. masses --      1.2992                 6.0868                 4.2920
 Frc consts  --      0.7767                 3.7006                 2.6893
 IR Inten    --      0.1241                 1.6807                 8.0796

                     40                     41                     42
                      A                      A                      A
 Frequencies --   1049.5188              1062.8875              1107.7678
 Red. masses --      2.2127                 2.0583                 1.7005
 Frc consts  --      1.4360                 1.3701                 1.2295
 IR Inten    --     17.7666                16.1920                 9.7521

                     43                     44                     45
                      A                      A                      A
 Frequencies --   1108.6997              1146.8112              1173.9911
 Red. masses --      2.7185                 1.5619                 1.2328
 Frc consts  --      1.9688                 1.2103                 1.0011
 IR Inten    --      0.5368                42.6804                 0.1209

                     46                     47                     48
                      A                      A                      A
 Frequencies --   1185.5897              1208.4301              1234.8235
 Red. masses --      1.1111                 1.1443                 3.3675
 Frc consts  --      0.9202                 0.9845                 3.0253
 IR Inten    --      0.1715                11.8512                38.6770

                     49                     50                     51
                      A                      A                      A
 Frequencies --   1252.7782              1272.2882              1306.5500
 Red. masses --      2.4777                 1.8013                 2.3628
 Frc consts  --      2.2911                 1.7180                 2.3764
 IR Inten    --      3.1752                23.6451                 5.2372

                     52                     53                     54
                      A                      A                      A
 Frequencies --   1330.0892              1355.4813              1358.7367
 Red. masses --      3.0566                 3.0508                 2.5536
 Frc consts  --      3.1861                 3.3026                 2.7776
 IR Inten    --     53.4602                17.3971                 3.5210

                     55                     56                     57
                      A                      A                      A
 Frequencies --   1385.7585              1477.9860              1491.6427
 Red. masses --      4.0020                 2.2389                 2.7026
 Frc consts  --      4.5279                 2.8816                 3.5430
 IR Inten    --    347.6391                20.9706               104.7339

                     58                     59                     60
                      A                      A                      A
 Frequencies --   1500.6272              1525.1981              1603.6379
 Red. masses --      2.5643                 2.2248                 6.1616
 Frc consts  --      3.4022                 3.0492                 9.3359
 IR Inten    --      3.4077                14.8776                46.8077

                     61                     62                     63
                      A                      A                      A
 Frequencies --   1615.8179              1641.8646              1643.0353
 Red. masses --      5.6579                 5.5982                 6.8067
 Frc consts  --      8.7034                 8.8914                10.8262
 IR Inten    --      4.4956                 0.4191                60.8034

                     64                     65                     66
                      A                      A                      A
 Frequencies --   1654.2891              1703.8333              3167.0168
 Red. masses --      7.5643                10.7979                 1.0858
 Frc consts  --     12.1967                18.4691                 6.4165
 IR Inten    --     98.5986               534.3998                 0.4373

                     67                     68                     69
                      A                      A                      A
 Frequencies --   3172.0809              3176.5693              3185.3001
 Red. masses --      1.0867                 1.0891                 1.0902
 Frc consts  --      6.4422                 6.4752                 6.5171
 IR Inten    --      2.8934                 6.9161                 8.2133

                     70                     71                     72
                      A                      A                      A
 Frequencies --   3187.0002              3195.7018              3196.6383
 Red. masses --      1.0931                 1.0958                 1.0934
 Frc consts  --      6.5417                 6.5935                 6.5830
 IR Inten    --     17.7327                 8.7132                 3.1623

                     73                     74                     75
                      A                      A                      A
 Frequencies --   3200.5057              3207.6819              3220.4872
 Red. masses --      1.0967                 1.0932                 1.0911
 Frc consts  --      6.6185                 6.6270                 6.6671
 IR Inten    --      9.7752                 3.3821                 1.2018

 - Thermochemistry -
 -------------------
 Temperature   298.150 Kelvin.  Pressure   1.00000 Atm.
 Atom     1 has atomic number  8 and mass  15.99491

 Molecular mass:   222.06808 amu.
 Principal axes and moments of inertia in atomic units:
                           1         2         3
     Eigenvalues --  1551.440266587.233308073.00094
           X            0.99706   0.07348  -0.02172
           Y           -0.06839   0.98126   0.18017
           Z            0.03455  -0.17815   0.98340
 This molecule is an asymmetric top.
 Rotational symmetry number  1.
 Warning -- assumption of classical behavior for rotation
           may cause significant error
 Rotational temperatures (Kelvin)      0.05583     0.01315     0.01073
 Rotational constants (GHZ):           1.16327     0.27398     0.22355
 Zero-point vibrational energy     544574.2 (Joules/Mol)
                                  130.15636 (Kcal/Mol)
 Warning -- explicit consideration of  18 degrees of freedom as
           vibrations may cause significant error
 Vibrational temperatures:     46.07    82.54   147.87   171.29   221.85
          (Kelvin)            290.82   379.71   404.06   423.16   499.46
                              590.26   625.30   673.36   725.54   739.51
                              769.30   845.42   881.65   910.92   954.28
                              985.69   986.99  1010.79  1084.79  1105.17
                             1125.77  1135.12  1227.83  1237.76  1254.15
                             1267.92  1324.00  1355.40  1408.16  1425.60
                             1442.43  1449.34  1461.54  1483.72  1510.02
                             1529.26  1593.83  1595.17  1650.01  1689.11
                             1705.80  1738.66  1776.64  1802.47  1830.54
                             1879.83  1913.70  1950.24  1954.92  1993.80
                             2126.49  2146.14  2159.07  2194.42  2307.28
                             2324.80  2362.28  2363.96  2380.15  2451.44
                             4556.63  4563.92  4570.37  4582.94  4585.38
                             4597.90  4599.25  4604.81  4615.14  4633.56

 Zero-point correction=                           0.207417 (Hartree/Particle)
 Thermal correction to Energy=                    0.219877
 Thermal correction to Enthalpy=                  0.220821
 Thermal correction to Gibbs Free Energy=         0.167496
 Sum of electronic and zero-point Energies=           -728.051427
 Sum of electronic and thermal Energies=              -728.038968
 Sum of electronic and thermal Enthalpies=            -728.038024
 Sum of electronic and thermal Free Energies=         -728.091349

                     E (Thermal)             CV                S
                      KCal/Mol        Cal/Mol-Kelvin    Cal/Mol-Kelvin
 Total                  137.975             50.428            112.233
 Electronic               0.000              0.000              0.000
 Translational            0.889              2.981             42.096
 Rotational               0.889              2.981             32.778
 Vibrational            136.197             44.467             37.359
 Vibration     1          0.594              1.983              5.700
 Vibration     2          0.596              1.975              4.546
 Vibration     3          0.605              1.947              3.401
 Vibration     4          0.609              1.933              3.116
 Vibration     5          0.620              1.898              2.620
 Vibration     6          0.639              1.837              2.114
 Vibration     7          0.670              1.739              1.636
 Vibration     8          0.681              1.709              1.529
 Vibration     9          0.689              1.685              1.450
 Vibration    10          0.725              1.581              1.179
 Vibration    11          0.774              1.448              0.926
 Vibration    12          0.795              1.395              0.844
 Vibration    13          0.825              1.321              0.743
 Vibration    14          0.860              1.241              0.648
 Vibration    15          0.869              1.219              0.624
 Vibration    16          0.890              1.173              0.577
 Vibration    17          0.945              1.058              0.471
 Vibration    18          0.972              1.005              0.428

 Optimization completed.
    -- Stationary point found.
 Normal termination of Gaussian 16 at Tue Jan  9 21:21:32 2024.
