 Gaussian 16, Revision A.03,
 Gaussian 16:  ES64L-G16RevA.03 25-Dec-2016

 --------------------------------------
 #P UB3LYP/6-311++G(d,p) nosym opt freq
 --------------------------------------

 -------
 Reduced
 -------
 Symbolic Z-matrix:
 Charge = -2 Multiplicity = 1

 SCF Done:  E(UB3LYP) =  -1279.13765992     A.U. after   41 cycles
 SCF Done:  E(UB3LYP) =  -1279.15958813     A.U. after   36 cycles
 SCF Done:  E(UB3LYP) =  -1279.16361769     A.U. after   33 cycles
 SCF Done:  E(UB3LYP) =  -1279.16477989     A.U. after   35 cycles
 SCF Done:  E(UB3LYP) =  -1279.16573220     A.U. after   35 cycles
 SCF Done:  E(UB3LYP) =  -1279.16644332     A.U. after   26 cycles
 SCF Done:  E(UB3LYP) =  -1279.16729686     A.U. after   30 cycles
 SCF Done:  E(UB3LYP) =  -1279.16788181     A.U. after   39 cycles
 SCF Done:  E(UB3LYP) =  -1279.16815760     A.U. after   34 cycles
 SCF Done:  E(UB3LYP) =  -1279.16837664     A.U. after   32 cycles
 SCF Done:  E(UB3LYP) =  -1279.16870230     A.U. after   24 cycles
 SCF Done:  E(UB3LYP) =  -1279.16870849     A.U. after   25 cycles
 SCF Done:  E(UB3LYP) =  -1279.16871761     A.U. after   30 cycles
 SCF Done:  E(UB3LYP) =  -1279.16872232     A.U. after   26 cycles
 SCF Done:  E(UB3LYP) =  -1279.16872148     A.U. after   24 cycles
 SCF Done:  E(UB3LYP) =  -1279.16872190     A.U. after   22 cycles
 SCF Done:  E(UB3LYP) =  -1279.16872195     A.U. after   26 cycles
 SCF Done:  E(UB3LYP) =  -1279.16872192     A.U. after   26 cycles
 SCF Done:  E(UB3LYP) =  -1279.16872195     A.U. after   22 cycles
 Optimization completed.
    -- Stationary point found.
 Normal termination of Gaussian 16 at Fri Dec 29 04:51:33 2023.

 ----------------------------------------------------------------------
 #P Geom=AllCheck Guess=TCheck SCRF=Check GenChk UB3LYP/6-311++G(d,p) F
 req
 ----------------------------------------------------------------------

 Structure from the checkpoint file:  "297-an.chk"
 -------
 Reduced
 -------
 Charge = -2 Multiplicity = 1

                          Input orientation:
 ---------------------------------------------------------------------
 Center     Atomic      Atomic             Coordinates (Angstroms)
 Number     Number       Type             X           Y           Z
 ---------------------------------------------------------------------
      1          6           0       -0.799267    2.857538    0.356989
      2          6           0       -1.490743    2.959250   -0.832469
      3          6           0       -1.024694    2.282188   -1.987832
      4          6           0        0.388243    2.081884    0.465849
      5          6           0        0.861531    1.391397   -0.710748
      6          6           0        0.130224    1.518201   -1.905602
      7          6           0        1.089913    1.989691    1.706172
      8          6           0        2.260071    1.185999    1.702732
      9          6           0        2.754952    0.502331    0.571784
     10          6           0        2.082048    0.565582   -0.703741
     11          8           0        0.752095    2.568770    2.831546
     12          8           0        2.478068   -0.042177   -1.743264
     13          8           0        2.876751    1.143245    2.921996
     14          1           0       -1.138874    3.366739    1.253351
     15          1           0       -2.397202    3.560371   -0.884671
     16          1           0       -1.568481    2.360254   -2.926541
     17          1           0        0.515674    0.984117   -2.768616
     18          1           0        2.251587    1.723332    3.431775
     19         16           0        4.316291   -0.344897    0.685036
     20          6           0        3.942841   -2.085268    0.787444
     21          6           0        2.649926   -2.612310    0.663032
     22          6           0        5.001159   -2.982111    0.994973
     23          6           0        2.436514   -3.984201    0.751002
     24          6           0        4.773796   -4.354653    1.078176
     25          6           0        3.486620   -4.888950    0.959627
     26          6           0        3.235736   -6.377386    1.048992
     27          1           0        1.824949   -1.931930    0.489802
     28          1           0        6.012607   -2.598130    1.096467
     29          1           0        1.421545   -4.362817    0.648353
     30          1           0        5.616071   -5.023756    1.244068
     31          1           0        4.158635   -6.929000    1.254147
     32          1           0        2.818029   -6.778974    0.117215
     33          1           0        2.525643   -6.625868    1.847953
 ---------------------------------------------------------------------

 SCF Done:  E(UB3LYP) =  -1279.16872195     A.U. after    4 cycles

 Alpha  occ. eigenvalues --  -88.62373 -18.89563 -18.80906 -18.80877 -10.00009
 Alpha  occ. eigenvalues --   -9.99914  -9.99133  -9.98647  -9.98190  -9.98057
 Alpha  occ. eigenvalues --   -9.97499  -9.97469  -9.97119  -9.95146  -9.95114
 Alpha  occ. eigenvalues --   -9.94480  -9.94142  -9.94064  -9.93987  -9.93118
 Alpha  occ. eigenvalues --   -9.92828  -7.70910  -5.67319  -5.66891  -5.66344
 Alpha  occ. eigenvalues --   -0.81232  -0.73236  -0.70872  -0.66954  -0.61882
 Alpha  occ. eigenvalues --   -0.60128  -0.56559  -0.55356  -0.53453  -0.51614
 Alpha  occ. eigenvalues --   -0.50014  -0.45989  -0.42552  -0.41676  -0.39090
 Alpha  occ. eigenvalues --   -0.37593  -0.35882  -0.32709  -0.30336  -0.29481
 Alpha  occ. eigenvalues --   -0.28013  -0.26708  -0.25635  -0.24997  -0.23684
 Alpha  occ. eigenvalues --   -0.22858  -0.22186  -0.21758  -0.21279  -0.20319
 Alpha  occ. eigenvalues --   -0.19314  -0.17537  -0.17256  -0.16450  -0.15265
 Alpha  occ. eigenvalues --   -0.14901  -0.14685  -0.13782  -0.13597  -0.12198
 Alpha  occ. eigenvalues --   -0.10855  -0.10065  -0.08756  -0.08009  -0.07718
 Alpha  occ. eigenvalues --   -0.06344  -0.02060  -0.01055  -0.00023   0.00737
 Alpha  occ. eigenvalues --    0.01462   0.01887   0.10711
 Alpha virt. eigenvalues --    0.11798   0.14363   0.15175   0.15815   0.15960
 Alpha virt. eigenvalues --    0.17000   0.17554   0.17881   0.18829   0.18969
 Alpha virt. eigenvalues --    0.19475   0.19980   0.20378   0.20774   0.21486

  Beta  occ. eigenvalues --  -88.62373 -18.89563 -18.80906 -18.80877 -10.00009
  Beta  occ. eigenvalues --   -9.99914  -9.99133  -9.98647  -9.98190  -9.98057
  Beta  occ. eigenvalues --   -9.97499  -9.97469  -9.97119  -9.95146  -9.95114
  Beta  occ. eigenvalues --   -9.94480  -9.94142  -9.94064  -9.93987  -9.93118
  Beta  occ. eigenvalues --   -9.92828  -7.70910  -5.67319  -5.66891  -5.66344
  Beta  occ. eigenvalues --   -0.81232  -0.73236  -0.70872  -0.66954  -0.61882
  Beta  occ. eigenvalues --   -0.60128  -0.56559  -0.55356  -0.53453  -0.51614
  Beta  occ. eigenvalues --   -0.50014  -0.45989  -0.42552  -0.41676  -0.39090
  Beta  occ. eigenvalues --   -0.37593  -0.35882  -0.32709  -0.30336  -0.29481
  Beta  occ. eigenvalues --   -0.28013  -0.26708  -0.25635  -0.24997  -0.23684
  Beta  occ. eigenvalues --   -0.22858  -0.22186  -0.21758  -0.21279  -0.20319
  Beta  occ. eigenvalues --   -0.19314  -0.17537  -0.17256  -0.16450  -0.15265
  Beta  occ. eigenvalues --   -0.14901  -0.14685  -0.13782  -0.13597  -0.12198
  Beta  occ. eigenvalues --   -0.10855  -0.10065  -0.08756  -0.08009  -0.07718
  Beta  occ. eigenvalues --   -0.06344  -0.02060  -0.01055  -0.00023   0.00737
  Beta  occ. eigenvalues --    0.01462   0.01887   0.10711
  Beta virt. eigenvalues --    0.11798   0.14363   0.15175   0.15815   0.15960
  Beta virt. eigenvalues --    0.17000   0.17554   0.17881   0.18829   0.18969
  Beta virt. eigenvalues --    0.19475   0.19980   0.20378   0.20774   0.21486

 Mulliken charges and spin densities:
               1          2
     1  C   -0.217871  -0.000000
     2  C   -0.444858   0.000000
     3  C   -0.454655  -0.000000
     4  C    0.504689   0.000000
     5  C    0.209803  -0.000000
     6  C   -0.071169  -0.000000
     7  C   -1.229774   0.000000
     8  C   -0.679813  -0.000000
     9  C    2.639343  -0.000000
    10  C   -1.072234   0.000000
    11  O   -0.580623  -0.000000
    12  O   -0.404844   0.000000
    13  O   -0.224115   0.000000
    14  H    0.152354  -0.000000
    15  H    0.080999  -0.000000
    16  H    0.082506  -0.000000
    17  H    0.154381   0.000000
    18  H    0.250933  -0.000000
    19  S   -0.008976   0.000000
    20  C    0.039295   0.000000
    21  C   -0.199479   0.000000
    22  C   -0.027644   0.000000
    23  C   -0.550269  -0.000000
    24  C   -0.200304   0.000000
    25  C   -1.283380  -0.000000
    26  C    1.721502  -0.000000
    27  H    0.201683   0.000000
    28  H    0.107728  -0.000000
    29  H    0.151752  -0.000000
    30  H   -0.031152   0.000000
    31  H   -0.626306  -0.000000
    32  H    0.026817   0.000000
    33  H   -0.016320   0.000000
 Sum of Mulliken charges =  -2.00000   0.00000

 Dipole moment (field-independent basis, Debye):
    X=            -20.0804    Y=              1.3092    Z=             -5.8560  Tot=             20.9578
 Quadrupole moment (field-independent basis, Debye-Ang):
   XX=           -220.7608   YY=           -254.5530   ZZ=           -186.2868
   XY=             47.7965   XZ=            -14.8940   YZ=              0.4196

  Exact polarizability: 847.454-689.4862583.660 140.346-247.909 385.255
 Approx polarizability:1852.734**************** 399.968-990.933 622.970

                      1                      2                      3
                      A                      A                      A
 Frequencies --     11.7607                27.6914                31.0618
 Red. masses --      6.3074                 3.7205                 5.7582
 Frc consts  --      0.0005                 0.0017                 0.0033
 IR Inten    --      0.8618                 0.2021                 0.3232

                      4                      5                      6
                      A                      A                      A
 Frequencies --     85.5630                89.6107               111.4235
 Red. masses --      3.5078                 2.1332                 2.8915
 Frc consts  --      0.0151                 0.0101                 0.0212
 IR Inten    --      2.0179                 9.0391                10.4034

                      7                      8                      9
                      A                      A                      A
 Frequencies --    115.4435               156.0095               181.7556
 Red. masses --      2.6012                 5.9808                 7.1368
 Frc consts  --      0.0204                 0.0858                 0.1389
 IR Inten    --     13.0111                 1.2489                 1.3248

                     10                     11                     12
                      A                      A                      A
 Frequencies --    197.4238               207.6299               262.7601
 Red. masses --      7.4470                 7.4405                 6.3835
 Frc consts  --      0.1710                 0.1890                 0.2597
 IR Inten    --      1.8797                 2.7550                 2.5488

                     13                     14                     15
                      A                      A                      A
 Frequencies --    293.9780               297.6109               336.5516
 Red. masses --      4.5586                 5.9595                 4.7271
 Frc consts  --      0.2321                 0.3110                 0.3155
 IR Inten    --      6.3774                 6.2341                 3.9436

                     16                     17                     18
                      A                      A                      A
 Frequencies --    348.4946               365.4306               374.4448
 Red. masses --      4.6167                 9.8365                 5.9234
 Frc consts  --      0.3303                 0.7739                 0.4893
 IR Inten    --     20.6747                 2.3276                 3.7348

                     19                     20                     21
                      A                      A                      A
 Frequencies --    392.5142               415.2161               429.8385
 Red. masses --      9.9942                 2.9835                 9.2820
 Frc consts  --      0.9072                 0.3031                 1.0104
 IR Inten    --     80.2800                 1.2264               200.1028

                     22                     23                     24
                      A                      A                      A
 Frequencies --    433.5114               469.6141               487.0159
 Red. masses --      5.3737                 4.2032                 2.7120
 Frc consts  --      0.5950                 0.5461                 0.3790
 IR Inten    --     73.1797               173.6171                34.0576

                     25                     26                     27
                      A                      A                      A
 Frequencies --    497.4271               536.4954               582.2554
 Red. masses --      8.8270                 5.2757                 8.5705
 Frc consts  --      1.2868                 0.8947                 1.7119
 IR Inten    --    553.1532                 5.9958                 5.1960

                     28                     29                     30
                      A                      A                      A
 Frequencies --    622.9399               651.9222               659.6475
 Red. masses --      5.5449                 6.9963                 6.7793
 Frc consts  --      1.2678                 1.7519                 1.7380
 IR Inten    --     10.8900                 5.6876                 0.9468

                     31                     32                     33
                      A                      A                      A
 Frequencies --    685.8314               693.6653               711.8596
 Red. masses --      6.0434                 1.8070                 7.2302
 Frc consts  --      1.6748                 0.5123                 2.1587
 IR Inten    --      3.7176                57.6888                17.3270

                     34                     35                     36
                      A                      A                      A
 Frequencies --    713.5047               741.7061               773.8145
 Red. masses --      3.5845                 2.8915                 3.2993
 Frc consts  --      1.0752                 0.9372                 1.1640
 IR Inten    --      0.4946                13.4467                 1.8184

                     37                     38                     39
                      A                      A                      A
 Frequencies --    801.8087               803.1259               808.1011
 Red. masses --      1.5911                 3.8260                 1.3278
 Frc consts  --      0.6027                 1.4540                 0.5109
 IR Inten    --      7.6056                 4.3519                28.6503

                     40                     41                     42
                      A                      A                      A
 Frequencies --    820.5961               821.0368               834.0967
 Red. masses --      1.4417                 5.9874                 1.2922
 Frc consts  --      0.5720                 2.3780                 0.5297
 IR Inten    --     10.2071                38.4820                 4.8981

                     43                     44                     45
                      A                      A                      A
 Frequencies --    887.7138               927.3236               947.5805
 Red. masses --      7.4027                 1.2878                 1.2635
 Frc consts  --      3.4370                 0.6525                 0.6685
 IR Inten    --     68.8134                 0.9345                 1.6161

                     46                     47                     48
                      A                      A                      A
 Frequencies --    960.7732               968.5605               991.9220
 Red. masses --      1.3231                 1.3274                 1.4152
 Frc consts  --      0.7196                 0.7337                 0.8204
 IR Inten    --      0.5676                 1.4980                90.7382

                     49                     50                     51
                      A                      A                      A
 Frequencies --   1011.4565              1029.7745              1035.1703
 Red. masses --      3.7294                 3.0492                 2.9908
 Frc consts  --      2.2479                 1.9051                 1.8883
 IR Inten    --    398.2191                34.7869               116.3918

                     52                     53                     54
                      A                      A                      A
 Frequencies --   1062.4819              1079.6655              1090.2002
 Red. masses --      1.4973                 4.5327                 2.5689
 Frc consts  --      0.9959                 3.1130                 1.7989
 IR Inten    --     10.6847               146.3435               147.9599

                     55                     56                     57
                      A                      A                      A
 Frequencies --   1129.3155              1131.0237              1142.9885
 Red. masses --      1.3985                 1.3717                 3.8107
 Frc consts  --      1.0508                 1.0339                 2.9332
 IR Inten    --     29.7029               129.5775               423.3633

                     58                     59                     60
                      A                      A                      A
 Frequencies --   1177.1885              1198.4845              1219.2910
 Red. masses --      2.2294                 1.1452                 3.0465
 Frc consts  --      1.8202                 0.9692                 2.6685
 IR Inten    --     46.4066                 2.8048               234.0045

                     61                     62                     63
                      A                      A                      A
 Frequencies --   1223.4542              1249.2356              1309.2371
 Red. masses --      2.9593                 2.1612                 4.0323
 Frc consts  --      2.6098                 1.9872                 4.0723
 IR Inten    --     48.7848                20.5341                15.9421

                     64                     65                     66
                      A                      A                      A
 Frequencies --   1328.2407              1337.4668              1341.9414
 Red. masses --      1.5765                 6.0007                 2.1970
 Frc consts  --      1.6387                 6.3244                 2.3310
 IR Inten    --    128.7494              1681.2502                53.4894

                     67                     68                     69
                      A                      A                      A
 Frequencies --   1399.6939              1409.0832              1423.0193
 Red. masses --      1.4935                 3.5779                 2.7234
 Frc consts  --      1.7239                 4.1856                 3.2492
 IR Inten    --   2203.5101              2828.3273                34.9518

                     70                     71                     72
                      A                      A                      A
 Frequencies --   1433.1686              1448.7521              1481.2092
 Red. masses --      3.5591                 3.4653                 1.0470
 Frc consts  --      4.3071                 4.2853                 1.3534
 IR Inten    --    117.4076               529.9211               112.6501

                     73                     74                     75
                      A                      A                      A
 Frequencies --   1490.5149              1493.4026              1508.1867
 Red. masses --      1.8990                 1.5620                 4.1312
 Frc consts  --      2.4857                 2.0525                 5.5365
 IR Inten    --   1228.0236               170.2161               939.7248

                     76                     77                     78
                      A                      A                      A
 Frequencies --   1514.8700              1542.1657              1567.4324
 Red. masses --      2.6386                 3.0556                 3.4338
 Frc consts  --      3.5675                 4.2816                 4.9705
 IR Inten    --     63.7292               805.3250              2372.9050

                     79                     80                     81
                      A                      A                      A
 Frequencies --   1585.6595              1601.5377              1629.2556
 Red. masses --      5.4808                 5.9081                 5.5499
 Frc consts  --      8.1192                 8.9283                 8.6799
 IR Inten    --     39.2828              1851.1727                 5.9642

                     82                     83                     84
                      A                      A                      A
 Frequencies --   2985.0787              3021.2153              3059.7129
 Red. masses --      1.0377                 1.0998                 1.0980
 Frc consts  --      5.4482                 5.9148                 6.0566
 IR Inten    --     14.5886                47.7017                20.3097

                     85                     86                     87
                      A                      A                      A
 Frequencies --   3097.2267              3112.1906              3122.1061
 Red. masses --      1.0834                 1.0868                 1.0885
 Frc consts  --      6.1231                 6.2021                 6.2514
 IR Inten    --    102.5591                52.3552                25.8321

                     88                     89                     90
                      A                      A                      A
 Frequencies --   3123.4051              3142.0494              3160.2856
 Red. masses --      1.0901                 1.0916                 1.0905
 Frc consts  --      6.2655                 6.3495                 6.4167
 IR Inten    --    249.3865               100.3247                27.9935

                     91                     92                     93
                      A                      A                      A
 Frequencies --   3163.0246              3188.0370              3291.2675
 Red. masses --      1.0917                 1.0914                 1.0634
 Frc consts  --      6.4352                 6.5356                 6.7872
 IR Inten    --    216.0142                12.3128                93.7104

 - Thermochemistry -
 -------------------
 Temperature   298.150 Kelvin.  Pressure   1.00000 Atm.
 Atom     1 has atomic number  6 and mass  12.00000

 Molecular mass:   296.05072 amu.
 Principal axes and moments of inertia in atomic units:
                           1         2         3
     Eigenvalues --  3281.12830********************
           X           -0.51324   0.44691   0.73271
           Y            0.84877   0.39085   0.35614
           Z           -0.12722   0.80468  -0.57992
 This molecule is an asymmetric top.
 Rotational symmetry number  1.
 Warning -- assumption of classical behavior for rotation
           may cause significant error
 Rotational temperatures (Kelvin)      0.02640     0.00766     0.00694
 Rotational constants (GHZ):           0.55004     0.15963     0.14453
 Zero-point vibrational energy     631964.6 (Joules/Mol)
                                  151.04316 (Kcal/Mol)
 Warning -- explicit consideration of  27 degrees of freedom as
           vibrations may cause significant error
 Vibrational temperatures:     16.92    39.84    44.69   123.11   128.93
          (Kelvin)            160.31   166.10   224.46   261.51   284.05
                              298.73   378.05   422.97   428.20   484.22
                              501.41   525.77   538.74   564.74   597.40
                              618.44   623.73   675.67   700.71   715.69
                              771.90   837.74   896.27   937.97   949.09
                              986.76   998.03  1024.21  1026.57  1067.15
                             1113.35  1153.62  1155.52  1162.68  1180.65
                             1181.29  1200.08  1277.22  1334.21  1363.36
                             1382.34  1393.54  1427.15  1455.26  1481.62
                             1489.38  1528.67  1553.40  1568.55  1624.83
                             1627.29  1644.51  1693.71  1724.35  1754.29
                             1760.28  1797.37  1883.70  1911.04  1924.32
                             1930.75  2013.85  2027.36  2047.41  2062.01
                             2084.43  2131.13  2144.52  2148.67  2169.94
                             2179.56  2218.83  2255.19  2281.41  2304.26
                             2344.14  4294.86  4346.85  4402.24  4456.22
                             4477.75  4492.01  4493.88  4520.71  4546.95
                             4550.89  4586.87  4735.40

 Zero-point correction=                           0.240703 (Hartree/Particle)
 Thermal correction to Energy=                    0.258674
 Thermal correction to Enthalpy=                  0.259618
 Thermal correction to Gibbs Free Energy=         0.192377
 Sum of electronic and zero-point Energies=          -1278.928019
 Sum of electronic and thermal Energies=             -1278.910048
 Sum of electronic and thermal Enthalpies=           -1278.909104
 Sum of electronic and thermal Free Energies=        -1278.976344

                     E (Thermal)             CV                S
                      KCal/Mol        Cal/Mol-Kelvin    Cal/Mol-Kelvin
 Total                  162.320             69.659            141.519
 Electronic               0.000              0.000              0.000
 Translational            0.889              2.981             42.953
 Rotational               0.889              2.981             34.492
 Vibrational            160.543             63.698             64.074
 Vibration     1          0.593              1.987              7.689
 Vibration     2          0.593              1.984              5.988
 Vibration     3          0.594              1.983              5.760
 Vibration     4          0.601              1.959              3.759
 Vibration     5          0.602              1.957              3.669
 Vibration     6          0.607              1.940              3.244
 Vibration     7          0.608              1.937              3.175
 Vibration     8          0.620              1.896              2.598
 Vibration     9          0.630              1.865              2.310
 Vibration    10          0.637              1.843              2.157
 Vibration    11          0.641              1.829              2.064
 Vibration    12          0.670              1.741              1.643
 Vibration    13          0.689              1.685              1.451
 Vibration    14          0.691              1.678              1.430
 Vibration    15          0.717              1.602              1.228
 Vibration    16          0.726              1.578              1.173
 Vibration    17          0.739              1.543              1.099
 Vibration    18          0.746              1.525              1.062
 Vibration    19          0.760              1.486              0.991
 Vibration    20          0.779              1.437              0.908
 Vibration    21          0.791              1.405              0.859
 Vibration    22          0.794              1.397              0.847
 Vibration    23          0.827              1.317              0.739
 Vibration    24          0.843              1.279              0.691
 Vibration    25          0.853              1.256              0.665
 Vibration    26          0.892              1.169              0.573
 Vibration    27          0.939              1.070              0.481

                           ! Non-Optimized Parameters !
 Normal termination of Gaussian 16 at Fri Dec 29 06:39:29 2023.
