 Gaussian 16, Revision A.03,
 Gaussian 16:  ES64L-G16RevA.03 25-Dec-2016

 --------------------------------------
 #P UB3LYP/6-311++G(d,p) nosym opt freq
 --------------------------------------

 --------
 Oxidized
 --------
 Symbolic Z-matrix:
 Charge =  0 Multiplicity = 1

 SCF Done:  E(UB3LYP) =  -649.628414210     A.U. after   15 cycles
 SCF Done:  E(UB3LYP) =  -649.636593377     A.U. after   14 cycles
 SCF Done:  E(UB3LYP) =  -649.639567422     A.U. after   14 cycles
 SCF Done:  E(UB3LYP) =  -649.640265963     A.U. after   14 cycles
 SCF Done:  E(UB3LYP) =  -649.641210599     A.U. after   12 cycles
 SCF Done:  E(UB3LYP) =  -649.641502506     A.U. after   12 cycles
 SCF Done:  E(UB3LYP) =  -649.641615459     A.U. after   12 cycles
 SCF Done:  E(UB3LYP) =  -649.641746611     A.U. after   11 cycles
 SCF Done:  E(UB3LYP) =  -649.641863489     A.U. after   12 cycles
 SCF Done:  E(UB3LYP) =  -649.641917394     A.U. after   12 cycles
 SCF Done:  E(UB3LYP) =  -649.641937012     A.U. after   11 cycles
 SCF Done:  E(UB3LYP) =  -649.641939719     A.U. after    9 cycles
 Optimization completed.
    -- Stationary point found.
 Normal termination of Gaussian 16 at Wed Dec 20 02:23:48 2023.

 ----------------------------------------------------------------------
 #P Geom=AllCheck Guess=TCheck SCRF=Check GenChk UB3LYP/6-311++G(d,p) F
 req
 ----------------------------------------------------------------------

 Structure from the checkpoint file:  "100.chk"
 --------
 Oxidized
 --------
 Charge =  0 Multiplicity = 1

                          Input orientation:
 ---------------------------------------------------------------------
 Center     Atomic      Atomic             Coordinates (Angstroms)
 Number     Number       Type             X           Y           Z
 ---------------------------------------------------------------------
      1          6           0        2.448334    3.334745    2.882137
      2          6           0        3.569064    3.282617    1.995967
      3          6           0        3.459766    2.696261    0.759986
      4          6           0        2.143964    2.077275    0.279776
      5          6           0        1.023213    2.129465    1.165920
      6          6           0        1.132518    2.715797    2.401912
      7          8           0        2.465525    3.842131    4.004722
      8          8           0        2.126778    1.569888   -0.842812
      9          7           0        0.154353    2.820899    3.308555
     10          6           0       -1.203034    2.329053    3.142938
     11          6           0       -2.043387    2.621305    4.380496
     12          7           0        4.437925    2.591167   -0.146662
     13          6           0        5.795328    3.082952    0.018979
     14          6           0        6.635776    2.790388   -1.218443
     15          1           0        4.491918    3.723971    2.349649
     16          1           0        0.100340    1.688162    0.812221
     17          1           0        0.433060    3.289536    4.165849
     18          1           0       -1.174409    1.249673    2.948991
     19          1           0       -1.651773    2.798859    2.258955
     20          1           0       -1.623751    2.136380    5.265998
     21          1           0       -3.059326    2.246326    4.241475
     22          1           0       -2.104359    3.696123    4.571248
     23          1           0        4.159232    2.122478   -1.003932
     24          1           0        6.243940    2.613295    0.903104
     25          1           0        5.766766    4.162375    0.212696
     26          1           0        6.696671    1.715527   -1.408978
     27          1           0        7.651734    3.165308   -1.079398
     28          1           0        6.216265    3.275174   -2.104079
 ---------------------------------------------------------------------

 SCF Done:  E(UB3LYP) =  -649.641939719     A.U. after    1 cycles

 Alpha  occ. eigenvalues --  -19.10692 -19.10692 -14.35566 -14.35565 -10.26111
 Alpha  occ. eigenvalues --  -10.26111 -10.24107 -10.24106 -10.22739 -10.22739
 Alpha  occ. eigenvalues --  -10.18482 -10.18482 -10.16816 -10.16815  -1.04348
 Alpha  occ. eigenvalues --   -1.04050  -0.96537  -0.96526  -0.83198  -0.79569
 Alpha  occ. eigenvalues --   -0.77352  -0.74193  -0.68610  -0.66845  -0.64553
 Alpha  occ. eigenvalues --   -0.61168  -0.59390  -0.54578  -0.52537  -0.51718
 Alpha  occ. eigenvalues --   -0.49271  -0.49193  -0.49015  -0.45864  -0.44678
 Alpha  occ. eigenvalues --   -0.43633  -0.43465  -0.42933  -0.40702  -0.40627
 Alpha  occ. eigenvalues --   -0.40430  -0.39984  -0.39195  -0.38830  -0.38774
 Alpha  occ. eigenvalues --   -0.37343  -0.34012  -0.32382  -0.27117  -0.26155
 Alpha  occ. eigenvalues --   -0.24558  -0.21862
 Alpha virt. eigenvalues --   -0.09722  -0.01441  -0.01216   0.00741   0.00794
 Alpha virt. eigenvalues --    0.00975   0.01590   0.01693   0.01979   0.02706
 Alpha virt. eigenvalues --    0.02951   0.04191   0.04539   0.05103   0.05158

  Beta  occ. eigenvalues --  -19.10692 -19.10692 -14.35566 -14.35565 -10.26111
  Beta  occ. eigenvalues --  -10.26111 -10.24107 -10.24106 -10.22739 -10.22739
  Beta  occ. eigenvalues --  -10.18482 -10.18482 -10.16816 -10.16815  -1.04348
  Beta  occ. eigenvalues --   -1.04050  -0.96537  -0.96526  -0.83198  -0.79569
  Beta  occ. eigenvalues --   -0.77352  -0.74193  -0.68610  -0.66845  -0.64553
  Beta  occ. eigenvalues --   -0.61168  -0.59390  -0.54578  -0.52537  -0.51718
  Beta  occ. eigenvalues --   -0.49271  -0.49193  -0.49015  -0.45864  -0.44678
  Beta  occ. eigenvalues --   -0.43633  -0.43465  -0.42933  -0.40702  -0.40627
  Beta  occ. eigenvalues --   -0.40430  -0.39984  -0.39195  -0.38830  -0.38774
  Beta  occ. eigenvalues --   -0.37343  -0.34012  -0.32382  -0.27117  -0.26155
  Beta  occ. eigenvalues --   -0.24558  -0.21862
  Beta virt. eigenvalues --   -0.09722  -0.01441  -0.01216   0.00741   0.00794
  Beta virt. eigenvalues --    0.00975   0.01590   0.01693   0.01979   0.02706
  Beta virt. eigenvalues --    0.02951   0.04191   0.04539   0.05103   0.05158

 Mulliken charges and spin densities:
               1          2
     1  C   -0.131985  -0.000000
     2  C   -0.048226  -0.000000
     3  C   -0.017417   0.000000
     4  C   -0.131995   0.000000
     5  C   -0.048223   0.000000
     6  C   -0.017407  -0.000000
     7  O   -0.311656  -0.000000
     8  O   -0.311656   0.000000
     9  N   -0.104655   0.000000
    10  C   -0.015540   0.000000
    11  C   -0.739833  -0.000000
    12  N   -0.104652  -0.000000
    13  C   -0.015537  -0.000000
    14  C   -0.739836   0.000000
    15  H    0.203549   0.000000
    16  H    0.203549   0.000000
    17  H    0.358245  -0.000000
    18  H    0.171090  -0.000000
    19  H    0.171434  -0.000000
    20  H    0.154827   0.000000
    21  H    0.155384   0.000000
    22  H    0.154781   0.000000
    23  H    0.358246  -0.000000
    24  H    0.171413  -0.000000
    25  H    0.171111  -0.000000
    26  H    0.154783   0.000000
    27  H    0.155384   0.000000
    28  H    0.154825   0.000000
 Sum of Mulliken charges =  -0.00000   0.00000

 Dipole moment (field-independent basis, Debye):
    X=              0.0000    Y=             -0.0001    Z=              0.0001  Tot=              0.0001
 Quadrupole moment (field-independent basis, Debye-Ang):
   XX=            -58.8854   YY=            -89.0687   ZZ=            -91.9747
   XY=              0.9270   XZ=            -16.4783   YZ=             -7.8052

  Exact polarizability: 181.129   4.121 103.479 -53.132  26.395 185.966
 Approx polarizability: 218.085  -5.571 168.371 -66.935  70.107 341.417

                      1                      2                      3
                      A                      A                      A
 Frequencies --     28.1333                48.3223                72.3094
 Red. masses --      3.3766                 2.3688                 2.2507
 Frc consts  --      0.0016                 0.0033                 0.0069
 IR Inten    --      1.9199                 0.0000                 6.9848

                      4                      5                      6
                      A                      A                      A
 Frequencies --     94.3457               110.7464               116.6793
 Red. masses --      3.5154                 4.3461                 2.3530
 Frc consts  --      0.0184                 0.0314                 0.0189
 IR Inten    --      1.5377                 0.0671                 0.0000

                      7                      8                      9
                      A                      A                      A
 Frequencies --    140.1683               176.7190               185.9819
 Red. masses --      4.2433                 3.8429                 6.0697
 Frc consts  --      0.0491                 0.0707                 0.1237
 IR Inten    --      0.0000                 0.2740                 0.0000

                     10                     11                     12
                      A                      A                      A
 Frequencies --    246.7550               259.8653               261.8216
 Red. masses --      4.2711                 1.2073                 1.2508
 Frc consts  --      0.1532                 0.0480                 0.0505
 IR Inten    --      0.0000                 0.0000                 0.9096

                     13                     14                     15
                      A                      A                      A
 Frequencies --    328.1991               365.4456               375.2145
 Red. masses --      3.7204                 3.8328                 4.8086
 Frc consts  --      0.2361                 0.3016                 0.3989
 IR Inten    --      7.2891                 0.0000                38.9027

                     16                     17                     18
                      A                      A                      A
 Frequencies --    456.7125               461.4773               507.8131
 Red. masses --     10.1383                 2.8334                 6.6027
 Frc consts  --      1.2459                 0.3555                 1.0032
 IR Inten    --      0.0000                 1.2023                 9.7818

                     19                     20                     21
                      A                      A                      A
 Frequencies --    524.5514               548.1368               617.0495
 Red. masses --      8.1789                 6.5068                 1.0827
 Frc consts  --      1.3259                 1.1518                 0.2429
 IR Inten    --      0.0000                 0.0000               130.7138

                     22                     23                     24
                      A                      A                      A
 Frequencies --    620.6132               651.0905               731.2005
 Red. masses --      1.0736                 4.8445                 5.9335
 Frc consts  --      0.2436                 1.2100                 1.8691
 IR Inten    --      0.0000                 0.0000                 0.9533

                     25                     26                     27
                      A                      A                      A
 Frequencies --    750.4331               756.1704               763.7885
 Red. masses --      5.5358                 1.9870                 4.7689
 Frc consts  --      1.8368                 0.6694                 1.6391
 IR Inten    --      0.0000                 0.0000                 2.2658

                     28                     29                     30
                      A                      A                      A
 Frequencies --    804.8187               816.3283               825.1213
 Red. masses --      1.9330                 1.2679                 1.2041
 Frc consts  --      0.7377                 0.4978                 0.4830
 IR Inten    --      0.0000                26.5734                 0.0000

                     31                     32                     33
                      A                      A                      A
 Frequencies --    836.9404               881.1643               924.3068
 Red. masses --      1.4538                 2.3769                 1.8039
 Frc consts  --      0.6000                 1.0874                 0.9080
 IR Inten    --     44.1541                26.9263                 0.0000

                     34                     35                     36
                      A                      A                      A
 Frequencies --    934.4916              1062.8340              1072.0766
 Red. masses --      2.1412                 2.8781                 2.5976
 Frc consts  --      1.1017                 1.9155                 1.7591
 IR Inten    --      0.9244                 0.0000                 7.7918

                     37                     38                     39
                      A                      A                      A
 Frequencies --   1153.4734              1158.6976              1164.3612
 Red. masses --      2.8394                 2.2842                 1.5164
 Frc consts  --      2.2258                 1.8069                 1.2113
 IR Inten    --     11.2944                 0.0000                 0.0000

                     40                     41                     42
                      A                      A                      A
 Frequencies --   1164.4145              1231.0569              1238.3016
 Red. masses --      1.5168                 1.6220                 2.5872
 Frc consts  --      1.2117                 1.4483                 2.3374
 IR Inten    --      2.0575                 0.0000               129.0695

                     43                     44                     45
                      A                      A                      A
 Frequencies --   1274.7630              1303.0155              1303.2186
 Red. masses --      1.9855                 1.1001                 1.0998
 Frc consts  --      1.9010                 1.1005                 1.1005
 IR Inten    --      0.0000                 0.0000                 0.6448

                     46                     47                     48
                      A                      A                      A
 Frequencies --   1318.3708              1361.3307              1369.7372
 Red. masses --      1.5842                 4.0514                 2.9545
 Frc consts  --      1.6223                 4.4237                 3.2660
 IR Inten    --    183.7729               110.8367                 0.0000

                     49                     50                     51
                      A                      A                      A
 Frequencies --   1390.1236              1396.6621              1421.6780
 Red. masses --      1.3797                 1.5965                 1.2938
 Frc consts  --      1.5709                 1.8348                 1.5407
 IR Inten    --     78.6567                 0.0000                58.6488

                     52                     53                     54
                      A                      A                      A
 Frequencies --   1422.4653              1496.3827              1496.3860
 Red. masses --      1.3236                 1.0372                 1.0372
 Frc consts  --      1.5780                 1.3683                 1.3683
 IR Inten    --      0.0000                 0.0000                16.8962

                     55                     56                     57
                      A                      A                      A
 Frequencies --   1500.8569              1501.9196              1520.1506
 Red. masses --      1.0651                 1.0487                 1.1015
 Frc consts  --      1.4136                 1.3937                 1.4998
 IR Inten    --     89.8156                 0.0000               139.5211

                     58                     59                     60
                      A                      A                      A
 Frequencies --   1521.3626              1542.0261              1553.1546
 Red. masses --      1.0857                 1.9777                 2.1516
 Frc consts  --      1.4806                 2.7707                 3.0580
 IR Inten    --      0.0001               510.2129                 0.0000

                     61                     62                     63
                      A                      A                      A
 Frequencies --   1628.4822              1640.7249              1673.5192
 Red. masses --      6.9987                 8.2288                 8.7867
 Frc consts  --     10.9354                13.0514                14.4990
 IR Inten    --   1350.6288                 0.0001                 0.0000

                     64                     65                     66
                      A                      A                      A
 Frequencies --   1697.5559              2999.8443              2999.8965
 Red. masses --     11.0687                 1.0574                 1.0574
 Frc consts  --     18.7930                 5.6065                 5.6068
 IR Inten    --    270.8334                52.0814                 0.2045

                     67                     68                     69
                      A                      A                      A
 Frequencies --   3021.9827              3022.0667              3032.6209
 Red. masses --      1.1057                 1.1058                 1.0358
 Frc consts  --      5.9496                 5.9502                 5.6124
 IR Inten    --      0.0847                38.1556                42.4358

                     70                     71                     72
                      A                      A                      A
 Frequencies --   3032.6696              3096.9553              3096.9865
 Red. masses --      1.0358                 1.1033                 1.1033
 Frc consts  --      5.6127                 6.2348                 6.2349
 IR Inten    --      0.0001                 0.0177                55.4983

                     73                     74                     75
                      A                      A                      A
 Frequencies --   3107.9660              3107.9895              3194.9478
 Red. masses --      1.1009                 1.1009                 1.0903
 Frc consts  --      6.2655                 6.2654                 6.5573
 IR Inten    --     43.6336                 0.0931                10.8731

                     76                     77                     78
                      A                      A                      A
 Frequencies --   3196.4504              3518.5399              3522.0258
 Red. masses --      1.0903                 1.0758                 1.0766
 Frc consts  --      6.5632                 7.8473                 7.8681
 IR Inten    --      0.0000                 0.0001               186.0687

 - Thermochemistry -
 -------------------
 Temperature   298.150 Kelvin.  Pressure   1.00000 Atm.
 Atom     1 has atomic number  6 and mass  12.00000

 Molecular mass:   194.10553 amu.
 Principal axes and moments of inertia in atomic units:
                           1         2         3
     Eigenvalues --  1089.198645640.973046685.17988
           X            0.82619   0.49430  -0.27033
           Y            0.00221   0.47698   0.87891
           Z           -0.56339   0.72674  -0.39299
 This molecule is an asymmetric top.
 Rotational symmetry number  1.
 Warning -- assumption of classical behavior for rotation
           may cause significant error
 Rotational temperatures (Kelvin)      0.07952     0.01535     0.01296
 Rotational constants (GHZ):           1.65694     0.31993     0.26996
 Zero-point vibrational energy     608617.9 (Joules/Mol)
                                  145.46316 (Kcal/Mol)
 Warning -- explicit consideration of  22 degrees of freedom as
           vibrations may cause significant error
 Vibrational temperatures:     40.48    69.53   104.04   135.74   159.34
          (Kelvin)            167.88   201.67   254.26   267.59   355.03
                              373.89   376.70   472.21   525.79   539.85
                              657.11   663.96   730.63   754.71   788.65
                              887.80   892.92   936.77  1052.03  1079.71
                             1087.96  1098.92  1157.95  1174.51  1187.17
                             1204.17  1267.80  1329.87  1344.53  1529.18
                             1542.48  1659.59  1667.11  1675.26  1675.33
                             1771.22  1781.64  1834.10  1874.75  1875.04
                             1896.84  1958.65  1970.75  2000.08  2009.49
                             2045.48  2046.61  2152.96  2152.97  2159.40
                             2160.93  2187.16  2188.90  2218.63  2234.64
                             2343.02  2360.64  2407.82  2442.40  4316.11
                             4316.18  4347.96  4348.08  4363.27  4363.34
                             4455.83  4455.87  4471.67  4471.70  4596.82
                             4598.98  5062.39  5067.41

 Zero-point correction=                           0.231810 (Hartree/Particle)
 Thermal correction to Energy=                    0.246341
 Thermal correction to Enthalpy=                  0.247285
 Thermal correction to Gibbs Free Energy=         0.189292
 Sum of electronic and zero-point Energies=           -649.410129
 Sum of electronic and thermal Energies=              -649.395599
 Sum of electronic and thermal Enthalpies=            -649.394655
 Sum of electronic and thermal Free Energies=         -649.452648

                     E (Thermal)             CV                S
                      KCal/Mol        Cal/Mol-Kelvin    Cal/Mol-Kelvin
 Total                  154.581             53.228            122.058
 Electronic               0.000              0.000              0.000
 Translational            0.889              2.981             41.695
 Rotational               0.889              2.981             32.085
 Vibrational            152.804             47.267             48.277
 Vibration     1          0.593              1.984              5.957
 Vibration     2          0.595              1.978              4.885
 Vibration     3          0.598              1.967              4.089
 Vibration     4          0.603              1.953              3.568
 Vibration     5          0.607              1.941              3.256
 Vibration     6          0.608              1.936              3.155
 Vibration     7          0.615              1.913              2.802
 Vibration     8          0.628              1.871              2.363
 Vibration     9          0.632              1.859              2.268
 Vibration    10          0.661              1.768              1.754
 Vibration    11          0.668              1.746              1.663
 Vibration    12          0.669              1.743              1.650
 Vibration    13          0.711              1.619              1.269
 Vibration    14          0.739              1.543              1.099
 Vibration    15          0.746              1.523              1.058
 Vibration    16          0.815              1.346              0.776
 Vibration    17          0.819              1.335              0.762
 Vibration    18          0.863              1.233              0.639
 Vibration    19          0.880              1.196              0.599
 Vibration    20          0.903              1.144              0.548
 Vibration    21          0.977              0.996              0.421
 Vibration    22          0.981              0.988              0.416

 Optimization completed.
    -- Stationary point found.
 Normal termination of Gaussian 16 at Wed Dec 20 03:21:37 2023.
