 Gaussian 16, Revision A.03,
 Gaussian 16:  ES64L-G16RevA.03 25-Dec-2016

 --------------------------------------
 #P UB3LYP/6-311++G(d,p) nosym opt freq
 --------------------------------------

 -------
 Radical
 -------
 Symbolic Z-matrix:
 Charge = -1 Multiplicity = 2

 SCF Done:  E(UB3LYP) =  -728.310789239     A.U. after   23 cycles
 SCF Done:  E(UB3LYP) =  -728.335084269     A.U. after   19 cycles
 SCF Done:  E(UB3LYP) =  -728.339513407     A.U. after   17 cycles
 SCF Done:  E(UB3LYP) =  -728.340467020     A.U. after   16 cycles
 SCF Done:  E(UB3LYP) =  -728.340521555     A.U. after   13 cycles
 SCF Done:  E(UB3LYP) =  -728.340526668     A.U. after   13 cycles
 SCF Done:  E(UB3LYP) =  -728.340527329     A.U. after   10 cycles
 Optimization completed.
    -- Stationary point found.
 Normal termination of Gaussian 16 at Thu Dec 21 06:21:01 2023.

 ----------------------------------------------------------------------
 #P Geom=AllCheck Guess=TCheck SCRF=Check GenChk UB3LYP/6-311++G(d,p) F
 req
 ----------------------------------------------------------------------

 Structure from the checkpoint file:  "123-rad.chk"
 -------
 Radical
 -------
 Charge = -1 Multiplicity = 2

                          Input orientation:
 ---------------------------------------------------------------------
 Center     Atomic      Atomic             Coordinates (Angstroms)
 Number     Number       Type             X           Y           Z
 ---------------------------------------------------------------------
      1          6           0       -2.889488   -1.924587   -0.139110
      2          6           0       -2.399767   -0.495956   -0.050396
      3          6           0       -3.355368    0.505525    0.050004
      4          6           0       -3.004060    1.865916    0.137361
      5          6           0       -1.676026    2.225729    0.123666
      6          6           0       -0.662391    1.249323    0.023552
      7          6           0        0.725305    1.723967    0.016585
      8          8           0        1.007454    2.946987    0.095765
      9          6           0        1.760976    0.701806   -0.087397
     10          6           0        3.120997    1.084778   -0.100281
     11          6           0        4.126133    0.144314   -0.197289
     12          6           0        3.798768   -1.227313   -0.285681
     13          6           0        2.475745   -1.621712   -0.274746
     14          6           0        1.429523   -0.677418   -0.176263
     15          6           0        0.041808   -1.156459   -0.169491
     16          8           0       -0.200582   -2.388521   -0.250374
     17          6           0       -1.011613   -0.139552   -0.065715
     18          1           0       -3.984437   -1.939153   -0.108902
     19          1           0       -2.498613   -2.536463    0.676051
     20          1           0       -2.547923   -2.412128   -1.054104
     21          1           0       -4.405128    0.224879    0.060884
     22          1           0       -3.780291    2.621814    0.214695
     23          1           0       -1.360913    3.260280    0.188604
     24          1           0        3.339241    2.144301   -0.030912
     25          1           0        5.166627    0.455924   -0.205771
     26          1           0        4.588011   -1.969646   -0.362100
     27          1           0        2.196011   -2.666634   -0.341257
 ---------------------------------------------------------------------

 SCF Done:  E(UB3LYP) =  -728.340527329     A.U. after    1 cycles

 Alpha  occ. eigenvalues --  -18.94331 -18.94279 -10.09635 -10.09251 -10.06555
 Alpha  occ. eigenvalues --  -10.05692 -10.05640 -10.05416 -10.05239 -10.05127
 Alpha  occ. eigenvalues --  -10.04967 -10.04925 -10.04783 -10.04746 -10.04665
 Alpha  occ. eigenvalues --  -10.04503 -10.04351  -0.87156  -0.86796  -0.73865
 Alpha  occ. eigenvalues --   -0.73097  -0.66367  -0.65052  -0.62842  -0.61718
 Alpha  occ. eigenvalues --   -0.56955  -0.53785  -0.51208  -0.49590  -0.45786
 Alpha  occ. eigenvalues --   -0.42563  -0.41363  -0.39896  -0.34885  -0.34682
 Alpha  occ. eigenvalues --   -0.34080  -0.33622  -0.30494  -0.30297  -0.29488
 Alpha  occ. eigenvalues --   -0.28612  -0.28182  -0.28164  -0.27827  -0.25937
 Alpha  occ. eigenvalues --   -0.25222  -0.24755  -0.23667  -0.22660  -0.22361
 Alpha  occ. eigenvalues --   -0.21429  -0.20986  -0.14127  -0.13413  -0.12708
 Alpha  occ. eigenvalues --   -0.12622  -0.11214  -0.10377  -0.01264
 Alpha virt. eigenvalues --    0.07069   0.08230   0.08368   0.09634   0.09732
 Alpha virt. eigenvalues --    0.10317   0.11128   0.11498   0.12501   0.12828
 Alpha virt. eigenvalues --    0.13532   0.14079   0.14687   0.15763   0.16217

  Beta  occ. eigenvalues --  -18.93732 -18.93682 -10.09503 -10.09113 -10.06564
  Beta  occ. eigenvalues --  -10.05645 -10.05587 -10.05360 -10.05159 -10.05065
  Beta  occ. eigenvalues --  -10.04974 -10.04941 -10.04683 -10.04651 -10.04578
  Beta  occ. eigenvalues --  -10.04510 -10.04351  -0.86135  -0.85751  -0.73610
  Beta  occ. eigenvalues --   -0.72982  -0.65977  -0.64910  -0.62663  -0.61515
  Beta  occ. eigenvalues --   -0.56758  -0.53150  -0.51046  -0.49328  -0.45705
  Beta  occ. eigenvalues --   -0.42358  -0.41132  -0.39765  -0.34622  -0.34587
  Beta  occ. eigenvalues --   -0.33915  -0.33527  -0.30268  -0.30039  -0.29332
  Beta  occ. eigenvalues --   -0.28497  -0.28008  -0.27364  -0.27298  -0.25664
  Beta  occ. eigenvalues --   -0.25117  -0.23628  -0.22607  -0.22229  -0.22134
  Beta  occ. eigenvalues --   -0.20790  -0.20278  -0.12973  -0.12131  -0.11998
  Beta  occ. eigenvalues --   -0.11547  -0.10664  -0.09828
  Beta virt. eigenvalues --    0.04672   0.07907   0.08225   0.08360   0.09628
  Beta virt. eigenvalues --    0.10308   0.10798   0.11128   0.11659   0.12495
  Beta virt. eigenvalues --    0.12820   0.13597   0.14079   0.14668   0.15826

 Mulliken charges and spin densities:
               1          2
     1  C   -0.553580   0.006161
     2  C    0.840395   0.010390
     3  C   -0.440684   0.051074
     4  C   -0.301420   0.046511
     5  C   -0.024413   0.018660
     6  C    0.476353   0.057795
     7  C   -0.796783   0.068159
     8  O   -0.363249   0.223480
     9  C    0.165459   0.029962
    10  C    0.016870   0.019188
    11  C   -0.389062   0.034583
    12  C   -0.436137   0.042488
    13  C    0.116186   0.013477
    14  C    0.129489   0.048217
    15  C   -0.891763   0.063401
    16  O   -0.340402   0.221514
    17  C    0.452527   0.064601
    18  H    0.105656  -0.000565
    19  H    0.162038  -0.000475
    20  H    0.162058  -0.000477
    21  H    0.063466  -0.004344
    22  H    0.137705  -0.003592
    23  H    0.150225  -0.001361
    24  H    0.154219  -0.001384
    25  H    0.120954  -0.002996
    26  H    0.122091  -0.003677
    27  H    0.161802  -0.000791
 Sum of Mulliken charges =  -1.00000   1.00000

 Dipole moment (field-independent basis, Debye):
    X=             -1.7173    Y=             -1.6472    Z=              0.3429  Tot=              2.4041
 Quadrupole moment (field-independent basis, Debye-Ang):
   XX=           -116.2056   YY=           -132.0021   ZZ=           -106.6120
   XY=             -4.9348   XZ=              0.0815   YZ=             -1.5399

  Exact polarizability: 329.004 -15.583 233.770  -7.861   9.976 101.899
 Approx polarizability: 490.824 -14.643 436.997 -10.798  20.163 163.293

                      1                      2                      3
                      A                      A                      A
 Frequencies --     47.3607                69.2402               129.9278
 Red. masses --      6.2839                 4.1174                 4.5564
 Frc consts  --      0.0083                 0.0116                 0.0453
 IR Inten    --      6.4054                 0.1215                 0.0106

                      4                      5                      6
                      A                      A                      A
 Frequencies --    165.0594               199.1113               217.6119
 Red. masses --      7.6194                 1.8013                 4.4197
 Frc consts  --      0.1223                 0.0421                 0.1233
 IR Inten    --      2.1135                 1.1709                 4.0138

                      7                      8                      9
                      A                      A                      A
 Frequencies --    229.4346               252.5878               312.5103
 Red. masses --      1.4945                 4.2016                 5.9011
 Frc consts  --      0.0464                 0.1579                 0.3396
 IR Inten    --      0.0587                 0.7080                 0.2891

                     10                     11                     12
                      A                      A                      A
 Frequencies --    346.1445               383.9424               392.3059
 Red. masses --      5.2906                 6.4470                11.6649
 Frc consts  --      0.3735                 0.5599                 1.0577
 IR Inten    --      0.8879                 0.2076                 6.9705

                     13                     14                     15
                      A                      A                      A
 Frequencies --    416.4064               435.5378               446.8018
 Red. masses --      6.1911                 3.3589                 4.4277
 Frc consts  --      0.6325                 0.3754                 0.5208
 IR Inten    --      0.0003                 0.2739                 0.8886

                     16                     17                     18
                      A                      A                      A
 Frequencies --    492.6165               502.5908               525.9327
 Red. masses --     10.2774                 4.0074                 3.6411
 Frc consts  --      1.4694                 0.5964                 0.5934
 IR Inten    --      0.1855                 0.1299                 5.2410

                     19                     20                     21
                      A                      A                      A
 Frequencies --    551.0055               613.2931               643.5295
 Red. masses --      5.2962                 6.4081                 4.4380
 Frc consts  --      0.9474                 1.4201                 1.0829
 IR Inten    --      2.0248                14.1913                 0.8780

                     22                     23                     24
                      A                      A                      A
 Frequencies --    663.1994               696.3260               704.5229
 Red. masses --      6.4214                 7.0467                 2.0783
 Frc consts  --      1.6641                 2.0131                 0.6078
 IR Inten    --      3.1869                 0.4034                81.7470

                     25                     26                     27
                      A                      A                      A
 Frequencies --    737.8093               767.6240               791.9411
 Red. masses --      3.5845                 1.4229                 2.1046
 Frc consts  --      1.1496                 0.4940                 0.7777
 IR Inten    --      0.1410                 0.0588                40.2999

                     28                     29                     30
                      A                      A                      A
 Frequencies --    793.8016               817.0744               862.8984
 Red. masses --      6.0076                 3.4945                 6.2798
 Frc consts  --      2.2304                 1.3745                 2.7549
 IR Inten    --      3.3965                 3.1336                14.3153

                     31                     32                     33
                      A                      A                      A
 Frequencies --    868.5201               889.0638               931.8090
 Red. masses --      1.5636                 1.3680                 5.8364
 Frc consts  --      0.6949                 0.6371                 2.9857
 IR Inten    --      0.0224                 0.0672                 2.8301

                     34                     35                     36
                      A                      A                      A
 Frequencies --    980.5033               980.9966               983.8256
 Red. masses --      1.3104                 2.7825                 1.2832
 Frc consts  --      0.7423                 1.5777                 0.7318
 IR Inten    --      0.3937                 6.6235                 0.0149

                     37                     38                     39
                      A                      A                      A
 Frequencies --    984.5940              1032.1792              1042.5116
 Red. masses --      1.3338                 2.0631                 2.1261
 Frc consts  --      0.7618                 1.2950                 1.3614
 IR Inten    --      3.7121                29.5381                 4.5927

                     40                     41                     42
                      A                      A                      A
 Frequencies --   1054.3121              1100.0946              1110.1655
 Red. masses --      1.5311                 1.9462                 2.0807
 Frc consts  --      1.0028                 1.3877                 1.5109
 IR Inten    --      1.5971                28.1717                12.5248

                     43                     44                     45
                      A                      A                      A
 Frequencies --   1140.7506              1169.9744              1184.0508
 Red. masses --      1.4564                 1.2951                 2.3933
 Frc consts  --      1.1166                 1.0445                 1.9769
 IR Inten    --     29.0280                 4.2571                 0.2479

                     46                     47                     48
                      A                      A                      A
 Frequencies --   1203.3762              1226.3726              1243.0235
 Red. masses --      2.2494                 2.7808                 2.6093
 Frc consts  --      1.9192                 2.4641                 2.3753
 IR Inten    --      6.0641                24.8794                17.8734

                     49                     50                     51
                      A                      A                      A
 Frequencies --   1254.9007              1333.6526              1353.5484
 Red. masses --      1.9060                 4.7040                 3.3252
 Frc consts  --      1.7685                 4.9295                 3.5894
 IR Inten    --     59.0105                 9.1683                10.6683

                     52                     53                     54
                      A                      A                      A
 Frequencies --   1365.3970              1406.5486              1415.6372
 Red. masses --     10.7425                 2.9014                 1.2755
 Frc consts  --     11.7997                 3.3820                 1.5060
 IR Inten    --     11.7107               213.9934                 0.8940

                     55                     56                     57
                      A                      A                      A
 Frequencies --   1429.9111              1464.1218              1476.0828
 Red. masses --      2.2888                 1.0460                 1.7442
 Frc consts  --      2.7573                 1.3211                 2.2391
 IR Inten    --    205.8241                 4.9010                41.8776

                     58                     59                     60
                      A                      A                      A
 Frequencies --   1483.6654              1488.4043              1528.1299
 Red. masses --      2.5932                 1.7105                 4.6817
 Frc consts  --      3.3633                 2.2326                 6.4414
 IR Inten    --      2.3106                 2.7326               483.9762

                     61                     62                     63
                      A                      A                      A
 Frequencies --   1535.7233              1564.9469              1610.8161
 Red. masses --      7.3112                 5.9238                 5.8810
 Frc consts  --     10.1593                 8.5477                 8.9907
 IR Inten    --     23.4730               106.2272                 0.8645

                     64                     65                     66
                      A                      A                      A
 Frequencies --   1619.1447              1626.5241              3013.1732
 Red. masses --      7.2139                 6.1617                 1.0437
 Frc consts  --     11.1428                 9.6044                 5.5833
 IR Inten    --      0.7507                12.8082                96.2305

                     67                     68                     69
                      A                      A                      A
 Frequencies --   3086.2954              3093.5833              3128.1754
 Red. masses --      1.0925                 1.0989                 1.0850
 Frc consts  --      6.1311                 6.1963                 6.2558
 IR Inten    --     17.9264                15.2246                30.9077

                     70                     71                     72
                      A                      A                      A
 Frequencies --   3132.4773              3149.2069              3151.8258
 Red. masses --      1.0846                 1.0920                 1.0912
 Frc consts  --      6.2706                 6.3808                 6.3869
 IR Inten    --     17.8942                69.8437                48.6264

                     73                     74                     75
                      A                      A                      A
 Frequencies --   3182.4535              3185.5326              3187.7719
 Red. masses --      1.0915                 1.0924                 1.0921
 Frc consts  --      6.5131                 6.5312                 6.5385
 IR Inten    --     13.0616                32.9336                13.0574

 - Thermochemistry -
 -------------------
 Temperature   298.150 Kelvin.  Pressure   1.00000 Atm.
 Atom     1 has atomic number  6 and mass  12.00000

 Molecular mass:   222.06808 amu.
 Principal axes and moments of inertia in atomic units:
                           1         2         3
     Eigenvalues --  2047.335624447.364776483.86242
           X            0.99651   0.07807   0.02945
           Y           -0.07580   0.99456  -0.07148
           Z           -0.03487   0.06900   0.99701
 This molecule is an asymmetric top.
 Rotational symmetry number  1.
 Warning -- assumption of classical behavior for rotation
           may cause significant error
 Rotational temperatures (Kelvin)      0.04231     0.01948     0.01336
 Rotational constants (GHZ):           0.88151     0.40580     0.27834
 Zero-point vibrational energy     535938.5 (Joules/Mol)
                                  128.09238 (Kcal/Mol)
 Warning -- explicit consideration of  20 degrees of freedom as
           vibrations may cause significant error
 Vibrational temperatures:     68.14    99.62   186.94   237.48   286.48
          (Kelvin)            313.10   330.11   363.42   449.63   498.02
                              552.41   564.44   599.12   626.64   642.85
                              708.77   723.12   756.70   792.77   882.39
                              925.90   954.20  1001.86  1013.65  1061.54
                             1104.44  1139.43  1142.10  1175.59  1241.52
                             1249.61  1279.16  1340.67  1410.73  1411.44
                             1415.51  1416.61  1485.08  1499.94  1516.92
                             1582.79  1597.28  1641.29  1683.33  1703.58
                             1731.39  1764.48  1788.43  1805.52  1918.83
                             1947.45  1964.50  2023.71  2036.79  2057.32
                             2106.54  2123.75  2134.66  2141.48  2198.64
                             2209.56  2251.61  2317.61  2329.59  2340.21
                             4335.28  4440.49  4450.98  4500.75  4506.94
                             4531.01  4534.77  4578.84  4583.27  4586.49

 Zero-point correction=                           0.204128 (Hartree/Particle)
 Thermal correction to Energy=                    0.216883
 Thermal correction to Enthalpy=                  0.217827
 Thermal correction to Gibbs Free Energy=         0.164382
 Sum of electronic and zero-point Energies=           -728.136399
 Sum of electronic and thermal Energies=              -728.123644
 Sum of electronic and thermal Enthalpies=            -728.122700
 Sum of electronic and thermal Free Energies=         -728.176146

                     E (Thermal)             CV                S
                      KCal/Mol        Cal/Mol-Kelvin    Cal/Mol-Kelvin
 Total                  136.096             52.078            112.486
 Electronic               0.000              0.000              1.377
 Translational            0.889              2.981             42.096
 Rotational               0.889              2.981             32.446
 Vibrational            134.319             46.117             36.567
 Vibration     1          0.595              1.979              4.925
 Vibration     2          0.598              1.969              4.175
 Vibration     3          0.612              1.923              2.947
 Vibration     4          0.623              1.885              2.491
 Vibration     5          0.637              1.841              2.141
 Vibration     6          0.646              1.814              1.979
 Vibration     7          0.652              1.796              1.883
 Vibration     8          0.664              1.758              1.712
 Vibration     9          0.701              1.650              1.349
 Vibration    10          0.724              1.583              1.184
 Vibration    11          0.753              1.504              1.024
 Vibration    12          0.760              1.487              0.991
 Vibration    13          0.780              1.435              0.904
 Vibration    14          0.796              1.393              0.841
 Vibration    15          0.806              1.368              0.806
 Vibration    16          0.848              1.266              0.677
 Vibration    17          0.858              1.244              0.652
 Vibration    18          0.881              1.193              0.596
 Vibration    19          0.906              1.137              0.542
 Vibration    20          0.973              1.004              0.427

                           ! Non-Optimized Parameters !
 Normal termination of Gaussian 16 at Thu Dec 21 07:28:54 2023.
