 Gaussian 16, Revision A.03,
 Gaussian 16:  ES64L-G16RevA.03 25-Dec-2016

 ----------------------------------------------------------------------
 #P UB3LYP/6-311++G(d,p) nosym opt freq SCRF=(PCM,Solvent=n,n-DiMethylF
 ormamide)
 ----------------------------------------------------------------------

 --------
 Oxidized
 --------
 Symbolic Z-matrix:
 Charge =  0 Multiplicity = 1

 SCF Done:  E(UB3LYP) =  -609.510788022     A.U. after   15 cycles
 SCF Done:  E(UB3LYP) =  -609.510976991     A.U. after   12 cycles
 SCF Done:  E(UB3LYP) =  -609.510816970     A.U. after   13 cycles
 SCF Done:  E(UB3LYP) =  -609.511107893     A.U. after   12 cycles
 SCF Done:  E(UB3LYP) =  -609.511079833     A.U. after   12 cycles
 SCF Done:  E(UB3LYP) =  -609.511128740     A.U. after   12 cycles
 SCF Done:  E(UB3LYP) =  -609.511131072     A.U. after   11 cycles
 SCF Done:  E(UB3LYP) =  -609.511134926     A.U. after   10 cycles
 SCF Done:  E(UB3LYP) =  -609.511135198     A.U. after   10 cycles
 Optimization completed.
    -- Stationary point found.
 Normal termination of Gaussian 16 at Sat Feb 10 10:49:31 2024.

 ----------------------------------------------------------------------
 #P Geom=AllCheck Guess=TCheck SCRF=Check GenChk UB3LYP/6-311++G(d,p) F
 req
 ----------------------------------------------------------------------

 Structure from the checkpoint file:  "096.chk"
 --------
 Oxidized
 --------
 Charge =  0 Multiplicity = 1

                          Input orientation:
 ---------------------------------------------------------------------
 Center     Atomic      Atomic             Coordinates (Angstroms)
 Number     Number       Type             X           Y           Z
 ---------------------------------------------------------------------
      1          6           0        1.938550    3.913989    5.534816
      2          6           0        2.833278    3.426786    4.457175
      3          6           0        2.476480    2.434464    3.632004
      4          6           0        1.163592    1.768991    3.770923
      5          6           0        0.274646    2.221089    4.870980
      6          6           0        0.635585    3.197556    5.719310
      7          8           0        2.244293    4.883643    6.208195
      8          8           0        0.812127    0.874839    3.014312
      9          1           0        3.781710    3.943450    4.365742
     10          1           0        3.117991    2.085270    2.831302
     11          1           0       -0.673179    1.703844    4.962830
     12          6           0       -0.222762    3.557323    6.896492
     13          8           0        0.205485    3.696407    8.018742
     14          8           0       -1.509028    3.660374    6.552844
     15          6           0       -2.446811    3.929689    7.624902
     16          1           0       -3.420717    3.976703    7.146146
     17          1           0       -2.204970    4.878964    8.101765
     18          1           0       -2.415250    3.124468    8.358357
 ---------------------------------------------------------------------

 SCF Done:  E(UB3LYP) =  -609.511135198     A.U. after    1 cycles

 Alpha  occ. eigenvalues --  -19.19276 -19.15417 -19.15413 -19.13879 -10.33284
 Alpha  occ. eigenvalues --  -10.30274 -10.29886 -10.23930 -10.23351 -10.23015
 Alpha  occ. eigenvalues --  -10.22203 -10.22067  -1.13515  -1.08479  -1.08159
 Alpha  occ. eigenvalues --   -1.04783  -0.88184  -0.81998  -0.75276  -0.72371
 Alpha  occ. eigenvalues --   -0.66737  -0.63263  -0.58487  -0.55076  -0.53748
 Alpha  occ. eigenvalues --   -0.51553  -0.50473  -0.49805  -0.48793  -0.46357
 Alpha  occ. eigenvalues --   -0.46189  -0.44839  -0.44077  -0.43195  -0.42399
 Alpha  occ. eigenvalues --   -0.41188  -0.38152  -0.33261  -0.32886  -0.32121
 Alpha  occ. eigenvalues --   -0.31047  -0.30283  -0.28707
 Alpha virt. eigenvalues --   -0.14954  -0.06215  -0.02355  -0.00546   0.00263
 Alpha virt. eigenvalues --    0.00801   0.01413   0.02308   0.03157   0.03360
 Alpha virt. eigenvalues --    0.04312   0.04975   0.05451   0.06167   0.06939

  Beta  occ. eigenvalues --  -19.19276 -19.15417 -19.15413 -19.13879 -10.33284
  Beta  occ. eigenvalues --  -10.30274 -10.29886 -10.23930 -10.23351 -10.23015
  Beta  occ. eigenvalues --  -10.22203 -10.22067  -1.13515  -1.08479  -1.08159
  Beta  occ. eigenvalues --   -1.04783  -0.88184  -0.81998  -0.75276  -0.72371
  Beta  occ. eigenvalues --   -0.66737  -0.63263  -0.58487  -0.55076  -0.53748
  Beta  occ. eigenvalues --   -0.51553  -0.50473  -0.49805  -0.48793  -0.46357
  Beta  occ. eigenvalues --   -0.46189  -0.44839  -0.44077  -0.43195  -0.42399
  Beta  occ. eigenvalues --   -0.41188  -0.38152  -0.33261  -0.32886  -0.32121
  Beta  occ. eigenvalues --   -0.31047  -0.30283  -0.28707
  Beta virt. eigenvalues --   -0.14954  -0.06215  -0.02355  -0.00546   0.00263
  Beta virt. eigenvalues --    0.00801   0.01413   0.02308   0.03157   0.03360
  Beta virt. eigenvalues --    0.04312   0.04975   0.05451   0.06167   0.06939

 Mulliken charges and spin densities:
               1          2
     1  C   -0.948552  -0.000000
     2  C    0.129614   0.000000
     3  C    0.219874  -0.000000
     4  C   -0.420992   0.000000
     5  C   -0.420982  -0.000000
     6  C    1.236729   0.000000
     7  O   -0.250536   0.000000
     8  O   -0.272488  -0.000000
     9  H    0.249053   0.000000
    10  H    0.251876  -0.000000
    11  H    0.247553   0.000000
    12  C    0.029666  -0.000000
    13  O   -0.283774   0.000000
    14  O   -0.065312  -0.000000
    15  C   -0.262333  -0.000000
    16  H    0.177890   0.000000
    17  H    0.188135   0.000000
    18  H    0.194581   0.000000
 Sum of Mulliken charges =  -0.00000  -0.00000

 Dipole moment (field-independent basis, Debye):
    X=             -1.6901    Y=             -0.3813    Z=             -1.3856  Tot=              2.2185
 Quadrupole moment (field-independent basis, Debye-Ang):
   XX=            -54.5437   YY=            -80.3805   ZZ=            -93.3977
   XY=            -11.1634   XZ=            -24.6861   YZ=            -16.2194

  Exact polarizability: 130.639  20.908 144.155  -2.129  59.756 151.659
 Approx polarizability: 140.440  36.188 192.000  20.157  88.575 188.880

                      1                      2                      3
                      A                      A                      A
 Frequencies --     40.9919                75.2342               103.3977
 Red. masses --      6.0460                 6.5144                 4.4588
 Frc consts  --      0.0060                 0.0217                 0.0281
 IR Inten    --      6.7301                13.3518                 2.5175

                      4                      5                      6
                      A                      A                      A
 Frequencies --    123.3328               149.4517               197.1689
 Red. masses --      2.8845                 1.3380                 5.0715
 Frc consts  --      0.0259                 0.0176                 0.1162
 IR Inten    --      3.5711                 0.1287                 9.3985

                      7                      8                      9
                      A                      A                      A
 Frequencies --    239.1233               273.7105               303.9368
 Red. masses --      6.0093                 6.5568                 4.7302
 Frc consts  --      0.2025                 0.2894                 0.2575
 IR Inten    --      3.4698                 3.1249                19.6359

                     10                     11                     12
                      A                      A                      A
 Frequencies --    335.6586               425.9929               459.1553
 Red. masses --      4.8803                 8.7612                 4.6825
 Frc consts  --      0.3240                 0.9367                 0.5816
 IR Inten    --     13.2950                27.1931                 6.8872

                     13                     14                     15
                      A                      A                      A
 Frequencies --    468.8218               533.7932               586.5378
 Red. masses --     10.1080                 5.0261                 3.4787
 Frc consts  --      1.3090                 0.8438                 0.7051
 IR Inten    --      3.3869                 9.9189                 7.4409

                     16                     17                     18
                      A                      A                      A
 Frequencies --    645.0865               736.1355               779.7296
 Red. masses --      5.3975                 4.4862                 6.4942
 Frc consts  --      1.3234                 1.4323                 2.3263
 IR Inten    --      9.2891                 8.0727                12.0545

                     19                     20                     21
                      A                      A                      A
 Frequencies --    787.0890               817.1087               855.5365
 Red. masses --      3.2819                 5.3456                 2.8225
 Frc consts  --      1.1979                 2.1028                 1.2172
 IR Inten    --      1.2185                 7.6361                49.0483

                     22                     23                     24
                      A                      A                      A
 Frequencies --    880.0620               939.1065               954.4120
 Red. masses --      4.0872                 2.6928                 2.3488
 Frc consts  --      1.8651                 1.3992                 1.2606
 IR Inten    --     28.7566                55.2671                15.3215

                     25                     26                     27
                      A                      A                      A
 Frequencies --   1015.8491              1057.2300              1123.6250
 Red. masses --      1.2632                 4.8740                 1.5271
 Frc consts  --      0.7680                 3.2098                 1.1360
 IR Inten    --      0.1434               229.0200                18.0297

                     28                     29                     30
                      A                      A                      A
 Frequencies --   1167.9382              1203.0754              1221.3873
 Red. masses --      1.2788                 1.6133                 1.9857
 Frc consts  --      1.0278                 1.3758                 1.7453
 IR Inten    --      2.1371                 4.6256                75.7480

                     31                     32                     33
                      A                      A                      A
 Frequencies --   1254.3776              1299.0697              1362.8954
 Red. masses --      2.6894                 2.9906                 2.3863
 Frc consts  --      2.4933                 2.9735                 2.6115
 IR Inten    --    572.6250                21.9944               151.3563

                     34                     35                     36
                      A                      A                      A
 Frequencies --   1394.5871              1468.3403              1476.2416
 Red. masses --      2.0975                 1.2118                 1.0445
 Frc consts  --      2.4035                 1.5393                 1.3412
 IR Inten    --     10.9690                25.2991                17.0018

                     37                     38                     39
                      A                      A                      A
 Frequencies --   1484.1806              1645.5307              1674.4779
 Red. masses --      1.0467                 8.2704                 9.9220
 Frc consts  --      1.3585                13.1944                16.3910
 IR Inten    --     14.7379                22.2047                23.8678

                     40                     41                     42
                      A                      A                      A
 Frequencies --   1700.1080              1710.7289              1760.4856
 Red. masses --     11.6435                 8.9858                11.5207
 Frc consts  --     19.8284                15.4941                21.0375
 IR Inten    --    748.0339               233.0416               655.0424

                     43                     44                     45
                      A                      A                      A
 Frequencies --   3062.0650              3142.1608              3175.7268
 Red. masses --      1.0292                 1.1083                 1.1069
 Frc consts  --      5.6858                 6.4469                 6.5770
 IR Inten    --     29.4865                20.2163                12.2036

                     46                     47                     48
                      A                      A                      A
 Frequencies --   3186.0249              3196.9926              3201.8201
 Red. masses --      1.0879                 1.0932                 1.0995
 Frc consts  --      6.5064                 6.5830                 6.6412
 IR Inten    --      1.9717                 0.1834                 1.1883

 - Thermochemistry -
 -------------------
 Temperature   298.150 Kelvin.  Pressure   1.00000 Atm.
 Atom     1 has atomic number  6 and mass  12.00000

 Molecular mass:   166.02661 amu.
 Principal axes and moments of inertia in atomic units:
                           1         2         3
     Eigenvalues --  1132.083342694.385513647.21738
           X           -0.59571   0.72991  -0.33522
           Y            0.33855   0.60664   0.71928
           Z            0.72837   0.31499  -0.60849
 This molecule is an asymmetric top.
 Rotational symmetry number  1.
 Warning -- assumption of classical behavior for rotation
           may cause significant error
 Rotational temperatures (Kelvin)      0.07651     0.03215     0.02375
 Rotational constants (GHZ):           1.59418     0.66982     0.49483
 Zero-point vibrational energy     333133.0 (Joules/Mol)
                                   79.62070 (Kcal/Mol)
 Warning -- explicit consideration of  15 degrees of freedom as
           vibrations may cause significant error
 Vibrational temperatures:     58.98   108.25   148.77   177.45   215.03
          (Kelvin)            283.68   344.05   393.81   437.30   482.94
                              612.91   660.62   674.53   768.01   843.90
                              928.14  1059.13  1121.86  1132.45  1175.64
                             1230.93  1266.21  1351.16  1373.19  1461.58
                             1521.12  1616.65  1680.40  1730.96  1757.30
                             1804.77  1869.07  1960.90  2006.50  2112.61
                             2123.98  2135.40  2367.55  2409.20  2446.08
                             2461.36  2532.95  4405.63  4520.87  4569.16
                             4583.98  4599.76  4606.70

 Zero-point correction=                           0.126884 (Hartree/Particle)
 Thermal correction to Energy=                    0.137782
 Thermal correction to Enthalpy=                  0.138726
 Thermal correction to Gibbs Free Energy=         0.089172
 Sum of electronic and zero-point Energies=           -609.384252
 Sum of electronic and thermal Energies=              -609.373353
 Sum of electronic and thermal Enthalpies=            -609.372409
 Sum of electronic and thermal Free Energies=         -609.421964

                     E (Thermal)             CV                S
                      KCal/Mol        Cal/Mol-Kelvin    Cal/Mol-Kelvin
 Total                   86.459             38.802            104.296
 Electronic               0.000              0.000              0.000
 Translational            0.889              2.981             41.229
 Rotational               0.889              2.981             30.787
 Vibrational             84.682             32.840             32.280
 Vibration     1          0.594              1.981              5.211
 Vibration     2          0.599              1.966              4.012
 Vibration     3          0.605              1.946              3.389
 Vibration     4          0.610              1.930              3.047
 Vibration     5          0.618              1.903              2.679
 Vibration     6          0.637              1.844              2.159
 Vibration     7          0.657              1.781              1.809
 Vibration     8          0.676              1.722              1.573
 Vibration     9          0.695              1.666              1.395
 Vibration    10          0.717              1.604              1.233
 Vibration    11          0.788              1.414              0.872
 Vibration    12          0.817              1.341              0.769
 Vibration    13          0.826              1.319              0.741
 Vibration    14          0.889              1.175              0.579
 Vibration    15          0.944              1.061              0.473

 Optimization completed.
    -- Stationary point found.
 Normal termination of Gaussian 16 at Sat Feb 10 10:59:40 2024.
