 Q-Chem 5.4, Q-Chem, Inc., Pleasanton, CA (2021)
 Q-Chem 5.4.0 for Intel X86 EM64T Linux

User input:
--------------------------------------------------------------
$molecule
0 1
I                 -3.3692520000     -1.0643850000     -0.1527130000
C                 -1.4119390000     -0.3340070000     -0.0622530000
C                 -1.0789590000      0.9714770000     -0.0284220000
I                 -2.4466600000      2.5529750000     -0.0588390000
C                  0.3589140000      1.4069810000      0.0364080000
O                  0.6574130000      2.5784800000      0.0667690000
C                  1.4119360000      0.3340230000      0.0622210000
C                  1.0789850000     -0.9714940000      0.0283950000
I                  2.4466410000     -2.5529900000      0.0589170000
C                 -0.3589220000     -1.4069850000     -0.0365230000
O                 -0.6574500000     -2.5784870000     -0.0667360000
I                  3.3692910000      1.0644130000      0.1527750000
$end
$rem
MAX_SCF_CYCLES=200
BASIS  =  6-311++G(d,p)
GUI  =  2
JOB_TYPE  =  SP
METHOD  =  B3LYP
SOLVENT_METHOD = COSMO
$end
$solvent
dielectric 37.219
opticaldielectric 1.43
$end

--------------------------------------------------------------

             Standard Nuclear Orientation (Angstroms)
    I     Atom           X                Y                Z
 ----------------------------------------------------------------
    1      I       3.0036897196    -1.8670774326     0.0000104169
    2      C       1.2864455565    -0.6738541935     0.0000271831
    3      C       1.2863347153     0.6738507734     0.0000608977
    4      I       3.0034368593     1.8672607458    -0.0000303231
    5      C      -0.0001585919     1.4524908665     0.0001163474
    6      O       0.0000385669     2.6618019560     0.0001320801
    7      C      -1.2864306561     0.6738608606     0.0000548393
    8      C      -1.2863562448    -0.6738687848     0.0000167841
    9      I      -3.0034180243    -1.8672852962     0.0000013186
   10      C       0.0001763017    -1.4525068935     0.0000480831
   11      O       0.0000012628    -2.6618243334    -0.0001167280
   12      I      -3.0037158210     1.8671084594    -0.0000204242
 ----------------------------------------------------------------

    8  -28057.1982497156      7.36e-06  Convergence criterion met
 Total energy in the final basis set =   -28057.1982497156
    4  -28057.2108200603      8.37e-06  Convergence criterion met
 Total energy in the final basis set =   -28057.2108200603

                    Orbital Energies (a.u.)
 --------------------------------------------------------------

 Alpha MOs
 -- Occupied --
***********************************-176.3204-176.3204-176.3204-176.3204
********-165.7242-165.7242-165.7242-165.7221-165.7221-165.7221-165.7221
********-165.7218-165.7218-165.7218 -35.8169 -35.8169 -35.8169 -35.8169
-31.3102 -31.3102 -31.3102 -31.3102 -31.3043 -31.3043 -31.3043 -31.3043
-31.3035 -31.3035 -31.3035 -31.3035 -22.9607 -22.9607 -22.9606 -22.9606
-22.9594 -22.9594 -22.9594 -22.9594 -22.9589 -22.9589 -22.9589 -22.9589
-22.9547 -22.9547 -22.9547 -22.9547 -22.9547 -22.9547 -22.9547 -22.9547
-19.1633 -19.1633 -10.3201 -10.3201 -10.2709 -10.2709 -10.2701 -10.2701
 -6.3663  -6.3663  -6.3663  -6.3663  -4.7790  -4.7790  -4.7789  -4.7789
 -4.7645  -4.7645  -4.7645  -4.7645  -4.7629  -4.7629  -4.7629  -4.7629
 -2.0448  -2.0448  -2.0448  -2.0448  -2.0406  -2.0406  -2.0406  -2.0406
 -2.0393  -2.0393  -2.0393  -2.0393  -2.0269  -2.0268  -2.0268  -2.0268
 -2.0267  -2.0267  -2.0267  -2.0266  -1.1031  -1.1014  -0.8946  -0.8381
 -0.7481  -0.7208  -0.6976  -0.6562  -0.6546  -0.6068  -0.5873  -0.5626
 -0.5009  -0.4917  -0.4804  -0.4481  -0.4276  -0.4205  -0.4132  -0.3931
 -0.3729  -0.3579  -0.3205  -0.3097  -0.3067  -0.2977  -0.2968  -0.2935
 -0.2764  -0.2690  -0.2599  -0.2570

          Ground-State Mulliken Net Atomic Charges

     Atom                 Charge (a.u.)
  ----------------------------------------
      1 I                     0.117326
      2 C                     0.721934
      3 C                     0.721775
      4 I                     0.117340
      5 C                    -1.536872
      6 O                    -0.141277
      7 C                     0.721795
      8 C                     0.721628
      9 I                     0.117331
     10 C                    -1.537055
     11 O                    -0.141203
     12 I                     0.117278
  ----------------------------------------
  Sum of atomic charges =     0.000000

                    Cartesian Multipole Moments
 -----------------------------------------------------------------
    Charge (ESU x 10^10)
                 0.0000
    Dipole Moment (Debye)
         X       0.0002      Y       0.0003      Z       0.0003
       Tot       0.0005
    Quadrupole Moments (Debye-Ang)
        XX    -140.8299     XY       0.0038     YY    -170.3346
        XZ      -0.0002     YZ      -0.0009     ZZ    -156.8123

 Total job time:  25.67s(wall), 193.97s(cpu)
        *  Thank you very much for using Q-Chem.  Have a nice day.  *
