 Gaussian 16, Revision A.03,
 Gaussian 16:  ES64L-G16RevA.03 25-Dec-2016

 ----------------------------------------------------------------------
 #P UB3LYP/6-311++G(d,p) nosym opt freq SCRF=(PCM,Solvent=n,n-DiMethylF
 ormamide)
 ----------------------------------------------------------------------

 -------
 Radical
 -------
 Symbolic Z-matrix:
 Charge = -1 Multiplicity = 2

 SCF Done:  E(UB3LYP) =  -650.938228233     A.U. after   19 cycles
 SCF Done:  E(UB3LYP) =  -650.938536718     A.U. after   15 cycles
 SCF Done:  E(UB3LYP) =  -650.938556453     A.U. after   13 cycles
 Optimization completed.
    -- Stationary point found.
 Normal termination of Gaussian 16 at Sun Feb 11 15:16:42 2024.

 ----------------------------------------------------------------------
 #P Geom=AllCheck Guess=TCheck SCRF=Check GenChk UB3LYP/6-311++G(d,p) F
 req
 ----------------------------------------------------------------------

 Structure from the checkpoint file:  "335-rad.chk"
 -------
 Radical
 -------
 Charge = -1 Multiplicity = 2

                          Input orientation:
 ---------------------------------------------------------------------
 Center     Atomic      Atomic             Coordinates (Angstroms)
 Number     Number       Type             X           Y           Z
 ---------------------------------------------------------------------
      1          8           0        0.126000    0.417586    2.691216
      2          6           0        0.067011    0.221669    1.426753
      3          6           0       -1.195028    0.114008    0.718718
      4          6           0       -2.446493    0.218274    1.375821
      5          6           0       -3.646117    0.110426    0.676288
      6          6           0       -3.642918   -0.104879   -0.703642
      7          6           0       -2.417449   -0.211781   -1.383183
      8          6           0       -1.228614   -0.103420   -0.679270
      9          8           0       -0.066562   -0.218923   -1.415432
     10          6           0        1.159618   -0.123486   -0.788376
     11          6           0        2.277221   -0.250019   -1.597967
     12          6           0        3.561341   -0.165122   -1.033229
     13          6           0        3.694011    0.046396    0.340878
     14          6           0        2.565260    0.172523    1.147080
     15          6           0        1.257240    0.092058    0.606958
     16          1           0       -2.441293    0.385871    2.445958
     17          1           0       -4.588316    0.194364    1.207894
     18          1           0       -4.572946   -0.189899   -1.253487
     19          1           0       -2.381766   -0.378529   -2.453883
     20          1           0        2.140980   -0.413686   -2.661031
     21          1           0        4.435758   -0.263950   -1.665765
     22          1           0        4.681997    0.113107    0.784525
     23          1           0        2.661068    0.337410    2.213179
 ---------------------------------------------------------------------

 SCF Done:  E(UB3LYP) =  -650.938556453     A.U. after    1 cycles

 Alpha  occ. eigenvalues --  -19.16917 -19.05251 -10.23246 -10.23245 -10.20248
 Alpha  occ. eigenvalues --  -10.16810 -10.16807 -10.16511 -10.16510 -10.16428
 Alpha  occ. eigenvalues --  -10.16427 -10.16360 -10.16360 -10.16032 -10.16031
 Alpha  occ. eigenvalues --   -1.08756  -0.96953  -0.85524  -0.84216  -0.76800
 Alpha  occ. eigenvalues --   -0.76211  -0.73858  -0.72337  -0.64879  -0.63347
 Alpha  occ. eigenvalues --   -0.59010  -0.58497  -0.54607  -0.54184  -0.49056
 Alpha  occ. eigenvalues --   -0.47720  -0.46100  -0.45308  -0.45217  -0.42596
 Alpha  occ. eigenvalues --   -0.42589  -0.41145  -0.39360  -0.38445  -0.37381
 Alpha  occ. eigenvalues --   -0.37276  -0.36802  -0.34903  -0.34481  -0.32968
 Alpha  occ. eigenvalues --   -0.32285  -0.26036  -0.25083  -0.25005  -0.22675
 Alpha  occ. eigenvalues --   -0.22287  -0.10742
 Alpha virt. eigenvalues --   -0.01674  -0.00883  -0.00234   0.00492   0.00551
 Alpha virt. eigenvalues --    0.01280   0.02146   0.02453   0.04066   0.04417
 Alpha virt. eigenvalues --    0.04443   0.04546   0.05376   0.06459   0.06826

  Beta  occ. eigenvalues --  -19.16819 -19.04763 -10.23153 -10.23152 -10.19835
  Beta  occ. eigenvalues --  -10.16887 -10.16884 -10.16457 -10.16456 -10.16439
  Beta  occ. eigenvalues --  -10.16438 -10.16263 -10.16262 -10.15800 -10.15800
  Beta  occ. eigenvalues --   -1.08573  -0.96000  -0.85314  -0.83959  -0.76365
  Beta  occ. eigenvalues --   -0.75972  -0.73594  -0.72122  -0.64192  -0.63314
  Beta  occ. eigenvalues --   -0.58746  -0.58172  -0.54413  -0.53860  -0.48881
  Beta  occ. eigenvalues --   -0.47606  -0.45957  -0.45174  -0.44642  -0.42471
  Beta  occ. eigenvalues --   -0.42459  -0.40989  -0.38863  -0.38330  -0.37185
  Beta  occ. eigenvalues --   -0.36209  -0.35669  -0.34807  -0.34346  -0.32144
  Beta  occ. eigenvalues --   -0.31666  -0.25388  -0.24164  -0.23513  -0.22245
  Beta  occ. eigenvalues --   -0.21443
  Beta virt. eigenvalues --   -0.04981  -0.01017  -0.00231   0.00076   0.00484
  Beta virt. eigenvalues --    0.01267   0.01279   0.02151   0.02440   0.04096
  Beta virt. eigenvalues --    0.04432   0.04535   0.04569   0.06514   0.06725

 Mulliken charges and spin densities:
               1          2
     1  O   -0.580128   0.188639
     2  C   -0.285770   0.265086
     3  C    1.049890  -0.065363
     4  C    0.174774   0.209950
     5  C   -0.282319  -0.067892
     6  C   -0.388972   0.174031
     7  C   -0.420856  -0.015592
     8  C   -0.826871   0.051062
     9  O   -0.123504   0.020917
    10  C   -0.827368   0.051187
    11  C   -0.420414  -0.015667
    12  C   -0.389149   0.174376
    13  C   -0.281945  -0.068005
    14  C    0.174841   0.210164
    15  C    1.049293  -0.065318
    16  H    0.169985  -0.014388
    17  H    0.167963   0.004320
    18  H    0.172913  -0.013104
    19  H    0.178451  -0.000604
    20  H    0.178464  -0.000602
    21  H    0.172918  -0.013129
    22  H    0.167961   0.004329
    23  H    0.169843  -0.014397
 Sum of Mulliken charges =  -1.00000   1.00000

 Dipole moment (field-independent basis, Debye):
    X=             -0.3360    Y=             -1.1023    Z=             -7.1065  Tot=              7.1993
 Quadrupole moment (field-independent basis, Debye-Ang):
   XX=            -95.5754   YY=            -96.4858   ZZ=           -111.1057
   XY=             -0.1113   XZ=             -0.7246   YZ=             -2.3225

  Exact polarizability: 565.160  -2.705 130.879 -13.335  22.359 271.529
 Approx polarizability: 542.487  -2.120 146.202  -9.808  28.387 324.774

                      1                      2                      3
                      A                      A                      A
 Frequencies --     54.8508               114.4408               151.9151
 Red. masses --      6.4504                 3.8823                 6.2532
 Frc consts  --      0.0114                 0.0300                 0.0850
 IR Inten    --      5.0741                 0.0025                 3.2951

                      4                      5                      6
                      A                      A                      A
 Frequencies --    232.9705               253.6745               258.1113
 Red. masses --      4.8150                 4.8969                 6.8197
 Frc consts  --      0.1540                 0.1857                 0.2677
 IR Inten    --      7.6000                 0.0028                 0.1393

                      7                      8                      9
                      A                      A                      A
 Frequencies --    308.9401               376.3964               386.1149
 Red. masses --      8.2956                 3.9615                 6.9310
 Frc consts  --      0.4665                 0.3307                 0.6088
 IR Inten    --      2.0109                 0.0143                 3.6319

                     10                     11                     12
                      A                      A                      A
 Frequencies --    446.0271               451.2813               516.7973
 Red. masses --      6.6027                 3.2552                10.9487
 Frc consts  --      0.7739                 0.3906                 1.7229
 IR Inten    --     11.3291                 0.0163                 2.4660

                     13                     14                     15
                      A                      A                      A
 Frequencies --    534.9666               536.1924               598.3170
 Red. masses --      4.1039                 3.8863                 8.0494
 Frc consts  --      0.6920                 0.6583                 1.6978
 IR Inten    --      0.6939                13.1569                 0.0298

                     16                     17                     18
                      A                      A                      A
 Frequencies --    616.6777               627.6603               658.6064
 Red. masses --      4.4021                 6.9830                 6.6611
 Frc consts  --      0.9863                 1.6208                 1.7024
 IR Inten    --     38.7298                 8.1810                 0.8675

                     19                     20                     21
                      A                      A                      A
 Frequencies --    697.3630               704.9200               729.8081
 Red. masses --      6.2044                 4.0220                 2.7876
 Frc consts  --      1.7777                 1.1775                 0.8748
 IR Inten    --      2.1387                 0.0115                83.3893

                     22                     23                     24
                      A                      A                      A
 Frequencies --    734.6930               735.7665               830.2268
 Red. masses --      1.2821                 1.5765                 1.3936
 Frc consts  --      0.4077                 0.5028                 0.5660
 IR Inten    --      1.9743               188.7363                 0.1131

                     25                     26                     27
                      A                      A                      A
 Frequencies --    831.5217               836.6332               859.8231
 Red. masses --      1.4664                 6.0398                 6.3483
 Frc consts  --      0.5974                 2.4908                 2.7652
 IR Inten    --      1.1714                34.4577               267.2553

                     28                     29                     30
                      A                      A                      A
 Frequencies --    895.5678               897.0917               930.4665
 Red. masses --      1.3681                 1.3514                 6.4395
 Frc consts  --      0.6465                 0.6408                 3.2848
 IR Inten    --     23.1618                 0.2856                 0.1074

                     31                     32                     33
                      A                      A                      A
 Frequencies --    957.5409               957.7730              1037.0676
 Red. masses --      1.2606                 1.2595                 2.2423
 Frc consts  --      0.6810                 0.6807                 1.4209
 IR Inten    --      0.4448                 0.2854                16.6867

                     34                     35                     36
                      A                      A                      A
 Frequencies --   1040.8139              1093.1086              1109.8918
 Red. masses --      1.8575                 1.9568                 1.7955
 Frc consts  --      1.1855                 1.3776                 1.3032
 IR Inten    --    222.9423                27.7803                87.7610

                     37                     38                     39
                      A                      A                      A
 Frequencies --   1154.7031              1158.4989              1180.1424
 Red. masses --      1.1359                 1.1407                 3.5830
 Frc consts  --      0.8924                 0.9020                 2.9401
 IR Inten    --     13.0683                 0.9234                 9.7907

                     40                     41                     42
                      A                      A                      A
 Frequencies --   1185.1910              1206.5466              1260.7331
 Red. masses --      3.0146                 2.5533                 2.7886
 Frc consts  --      2.4949                 2.1900                 2.6115
 IR Inten    --      0.3596              1114.7175               656.0002

                     43                     44                     45
                      A                      A                      A
 Frequencies --   1272.8436              1283.1563              1341.3068
 Red. masses --      4.4128                 1.6654                 6.2821
 Frc consts  --      4.2123                 1.6156                 6.6590
 IR Inten    --    648.4862                18.0296                 3.3968

                     46                     47                     48
                      A                      A                      A
 Frequencies --   1360.2987              1439.5221              1456.4651
 Red. masses --      5.8488                 2.0857                 3.8791
 Frc consts  --      6.3765                 2.5465                 4.8482
 IR Inten    --      0.4366               256.4498               327.1827

                     49                     50                     51
                      A                      A                      A
 Frequencies --   1467.7843              1476.6903              1521.4397
 Red. masses --      2.7549                 2.4761                 4.4562
 Frc consts  --      3.4968                 3.1812                 6.0775
 IR Inten    --    280.1457                43.0488               530.7354

                     52                     53                     54
                      A                      A                      A
 Frequencies --   1540.0717              1567.9694              1584.0396
 Red. masses --      4.1845                 5.2444                 6.3223
 Frc consts  --      5.8476                 7.5966                 9.3467
 IR Inten    --    428.7990                11.0567                98.3932

                     55                     56                     57
                      A                      A                      A
 Frequencies --   1629.8602              3156.4798              3156.9657
 Red. masses --      6.9232                 1.0860                 1.0863
 Frc consts  --     10.8356                 6.3748                 6.3791
 IR Inten    --      2.1319                69.8065                 5.1999

                     58                     59                     60
                      A                      A                      A
 Frequencies --   3171.4797              3171.6154              3185.1956
 Red. masses --      1.0887                 1.0888                 1.0932
 Frc consts  --      6.4518                 6.4531                 6.5346
 IR Inten    --     42.6258                 9.9385                16.3020

                     61                     62                     63
                      A                      A                      A
 Frequencies --   3185.4526              3191.5793              3192.3894
 Red. masses --      1.0934                 1.0933                 1.0929
 Frc consts  --      6.5370                 6.5614                 6.5624
 IR Inten    --     41.7422                18.2114                 9.3345

 - Thermochemistry -
 -------------------
 Temperature   298.150 Kelvin.  Pressure   1.00000 Atm.
 Atom     1 has atomic number  8 and mass  15.99491

 Molecular mass:   196.05243 amu.
 Principal axes and moments of inertia in atomic units:
                           1         2         3
     Eigenvalues --  1245.746333920.742925166.48819
           X            0.99892   0.04647   0.00148
           Y           -0.00858   0.15304   0.98818
           Z           -0.04569   0.98713  -0.15327
 This molecule is an asymmetric top.
 Rotational symmetry number  1.
 Warning -- assumption of classical behavior for rotation
           may cause significant error
 Rotational temperatures (Kelvin)      0.06953     0.02209     0.01676
 Rotational constants (GHZ):           1.44872     0.46031     0.34932
 Zero-point vibrational energy     445623.5 (Joules/Mol)
                                  106.50658 (Kcal/Mol)
 Warning -- explicit consideration of  16 degrees of freedom as
           vibrations may cause significant error
 Vibrational temperatures:     78.92   164.65   218.57   335.19   364.98
          (Kelvin)            371.36   444.50   541.55   555.53   641.73
                              649.29   743.56   769.70   771.46   860.84
                              887.26   903.06   947.59  1003.35  1014.22
                             1050.03  1057.06  1058.60  1194.51  1196.37
                             1203.73  1237.09  1288.52  1290.71  1338.73
                             1377.69  1378.02  1492.11  1497.50  1572.74
                             1596.89  1661.36  1666.82  1697.96  1705.23
                             1735.95  1813.91  1831.34  1846.18  1929.84
                             1957.17  2071.15  2095.53  2111.81  2124.63
                             2189.01  2215.82  2255.96  2279.08  2345.01
                             4541.47  4542.17  4563.05  4563.25  4582.79
                             4583.16  4591.97  4593.14

 Zero-point correction=                           0.169729 (Hartree/Particle)
 Thermal correction to Energy=                    0.180337
 Thermal correction to Enthalpy=                  0.181281
 Thermal correction to Gibbs Free Energy=         0.132647
 Sum of electronic and zero-point Energies=           -650.768827
 Sum of electronic and thermal Energies=              -650.758220
 Sum of electronic and thermal Enthalpies=            -650.757276
 Sum of electronic and thermal Free Energies=         -650.805910

                     E (Thermal)             CV                S
                      KCal/Mol        Cal/Mol-Kelvin    Cal/Mol-Kelvin
 Total                  113.163             44.288            102.359
 Electronic               0.000              0.000              1.377
 Translational            0.889              2.981             41.725
 Rotational               0.889              2.981             31.601
 Vibrational            111.385             38.326             27.656
 Vibration     1          0.596              1.976              4.634
 Vibration     2          0.607              1.937              3.192
 Vibration     3          0.619              1.901              2.648
 Vibration     4          0.654              1.790              1.856
 Vibration     5          0.665              1.757              1.705
 Vibration     6          0.667              1.749              1.675
 Vibration     7          0.698              1.657              1.368
 Vibration     8          0.747              1.520              1.054
 Vibration     9          0.755              1.500              1.015
 Vibration    10          0.805              1.370              0.808
 Vibration    11          0.810              1.358              0.792
 Vibration    12          0.872              1.213              0.617
 Vibration    13          0.890              1.173              0.576
 Vibration    14          0.891              1.170              0.574
 Vibration    15          0.956              1.035              0.453
 Vibration    16          0.976              0.997              0.422

 Optimization completed.
    -- Stationary point found.
 Normal termination of Gaussian 16 at Sun Feb 11 15:59:14 2024.
