 Q-Chem 5.4, Q-Chem, Inc., Pleasanton, CA (2021)
 Q-Chem 5.4.0 for Intel X86 EM64T Linux

User input:
--------------------------------------------------------------
$molecule
-2 1
N                 -2.7866990000     -2.0736430000      0.3379190000
C                 -2.4900330000     -0.7119450000      0.1730520000
C                 -3.5254260000      0.2117540000      0.0691740000
C                 -3.2555480000      1.5794770000     -0.1836430000
C                 -1.9583770000      2.0067280000     -0.3359310000
C                 -0.8636130000      1.1050290000     -0.2172860000
C                  0.4692120000      1.6422860000     -0.3589570000
O                  0.6865760000      2.8894100000     -0.6000870000
C                  1.5405500000      0.6891250000     -0.2064210000
C                  2.8637520000      1.1788220000     -0.3369720000
C                  3.9660110000      0.3691310000     -0.2113710000
C                  3.7765750000     -1.0171370000      0.0434730000
C                  2.5013020000     -1.5173870000      0.1811590000
Cl                 2.4713220000     -3.3028410000      0.4358980000
C                  1.3083820000     -0.7327530000      0.0911160000
C                 -0.0290490000     -1.2417100000      0.2825490000
O                 -0.2551930000     -2.4667580000      0.6523600000
C                 -1.1092710000     -0.2940830000      0.0628400000
H                 -3.5978800000     -2.2380130000      0.9191220000
H                 -1.9143190000     -2.5719140000      0.6110150000
H                 -4.5524860000     -0.1447480000      0.1400930000
H                 -4.0830350000      2.2832610000     -0.2678010000
H                 -1.7100900000      3.0419620000     -0.5410250000
H                  2.9509900000      2.2406640000     -0.5426470000
H                  4.9737040000      0.7663950000     -0.3138810000
H                  4.6226450000     -1.6911120000      0.1162540000
$end
$rem
MAX_SCF_CYCLES=200
BASIS  =  6-311++G(d,p)
GUI  =  2
JOB_TYPE  =  SP
METHOD  =  B3LYP
SOLVENT_METHOD = PCM
$end
$pcm
theory = CPCM
$end
$solvent
dielectric 37.219
opticaldielectric 1.43
$end

--------------------------------------------------------------

             Standard Nuclear Orientation (Angstroms)
    I     Atom           X                Y                Z
 ----------------------------------------------------------------
    1      N      -2.7866990000    -2.0736430000     0.3379190000
    2      C      -2.4900330000    -0.7119450000     0.1730520000
    3      C      -3.5254260000     0.2117540000     0.0691740000
    4      C      -3.2555480000     1.5794770000    -0.1836430000
    5      C      -1.9583770000     2.0067280000    -0.3359310000
    6      C      -0.8636130000     1.1050290000    -0.2172860000
    7      C       0.4692120000     1.6422860000    -0.3589570000
    8      O       0.6865760000     2.8894100000    -0.6000870000
    9      C       1.5405500000     0.6891250000    -0.2064210000
   10      C       2.8637520000     1.1788220000    -0.3369720000
   11      C       3.9660110000     0.3691310000    -0.2113710000
   12      C       3.7765750000    -1.0171370000     0.0434730000
   13      C       2.5013020000    -1.5173870000     0.1811590000
   14      Cl      2.4713220000    -3.3028410000     0.4358980000
   15      C       1.3083820000    -0.7327530000     0.0911160000
   16      C      -0.0290490000    -1.2417100000     0.2825490000
   17      O      -0.2551930000    -2.4667580000     0.6523600000
   18      C      -1.1092710000    -0.2940830000     0.0628400000
   19      H      -3.5978800000    -2.2380130000     0.9191220000
   20      H      -1.9143190000    -2.5719140000     0.6110150000
   21      H      -4.5524860000    -0.1447480000     0.1400930000
   22      H      -4.0830350000     2.2832610000    -0.2678010000
   23      H      -1.7100900000     3.0419620000    -0.5410250000
   24      H       2.9509900000     2.2406640000    -0.5426470000
   25      H       4.9737040000     0.7663950000    -0.3138810000
   26      H       4.6226450000    -1.6911120000     0.1162540000
 ----------------------------------------------------------------

    9   -1204.1915125583      5.20e-06  Convergence criterion met
 Total energy in the final basis set =    -1204.1915125583

                    Orbital Energies (a.u.)
 --------------------------------------------------------------

 Alpha MOs
 -- Occupied --
******** -19.0293 -19.0241 -14.2781 -10.2171 -10.1913 -10.1906 -10.1774
-10.1573 -10.1570 -10.1544 -10.1497 -10.1489 -10.1472 -10.1446 -10.1404
-10.1379 -10.1354  -9.4453  -7.2094  -7.2007  -7.1998  -0.9537  -0.9421
 -0.8831  -0.8590  -0.8137  -0.8044  -0.7569  -0.7149  -0.7125  -0.7016
 -0.6420  -0.6098  -0.6006  -0.5518  -0.5332  -0.5164  -0.4980  -0.4721
 -0.4494  -0.4455  -0.4427  -0.4195  -0.4141  -0.4056  -0.3935  -0.3860
 -0.3733  -0.3656  -0.3636  -0.3578  -0.3422  -0.3346  -0.3225  -0.3220
 -0.3135  -0.3059  -0.2973  -0.2818  -0.2346  -0.2278  -0.2214  -0.2084
 -0.2012  -0.1891  -0.1118

          Ground-State Mulliken Net Atomic Charges

     Atom                 Charge (a.u.)
  ----------------------------------------
      1 N                    -0.482923
      2 C                     0.123090
      3 C                    -0.373038
      4 C                    -0.381312
      5 C                    -0.156979
      6 C                     0.292002
      7 C                    -0.582261
      8 O                    -0.672608
      9 C                     0.231993
     10 C                     0.153901
     11 C                    -0.752312
     12 C                    -0.273504
     13 C                     0.947782
     14 Cl                    0.262254
     15 C                    -0.093136
     16 C                    -1.507964
     17 O                    -0.532758
     18 C                     0.213978
     19 H                     0.262762
     20 H                     0.324624
     21 H                     0.158802
     22 H                     0.176150
     23 H                     0.138212
     24 H                     0.152225
     25 H                     0.177962
     26 H                     0.193059
  ----------------------------------------
  Sum of atomic charges =    -2.000000

                    Cartesian Multipole Moments
 -----------------------------------------------------------------
    Charge (ESU x 10^10)
                -9.6064
    Dipole Moment (Debye)
         X      -2.7175      Y      -0.6135      Z       1.3072
       Tot       3.0774
    Quadrupole Moments (Debye-Ang)
        XX    -136.0579     XY       1.5582     YY    -178.6104
        XZ      -4.0241     YZ       8.2398     ZZ    -125.8556

 Total job time:  222.92s(wall), 378.57s(cpu)
        *  Thank you very much for using Q-Chem.  Have a nice day.  *
