 Gaussian 16, Revision A.03,
 Gaussian 16:  ES64L-G16RevA.03 25-Dec-2016

 ----------------------------------------------------------------------
 #P UB3LYP/6-311++G(d,p) nosym opt freq SCRF=(PCM,Solvent=n,n-DiMethylF
 ormamide)
 ----------------------------------------------------------------------

 --------
 Oxidized
 --------
 Symbolic Z-matrix:
 Charge =  0 Multiplicity = 1

 SCF Done:  E(UB3LYP) =  -1454.50341592     A.U. after   15 cycles
 SCF Done:  E(UB3LYP) =  -1454.50351077     A.U. after   11 cycles
 SCF Done:  E(UB3LYP) =  -1454.50352100     A.U. after   11 cycles
 SCF Done:  E(UB3LYP) =  -1454.50352124     A.U. after    9 cycles
 Optimization completed.
    -- Stationary point found.
 Normal termination of Gaussian 16 at Sat Feb 10 23:28:07 2024.

 ----------------------------------------------------------------------
 #P Geom=AllCheck Guess=TCheck SCRF=Check GenChk UB3LYP/6-311++G(d,p) F
 req
 ----------------------------------------------------------------------

 Structure from the checkpoint file:  "231.chk"
 --------
 Oxidized
 --------
 Charge =  0 Multiplicity = 1

                          Input orientation:
 ---------------------------------------------------------------------
 Center     Atomic      Atomic             Coordinates (Angstroms)
 Number     Number       Type             X           Y           Z
 ---------------------------------------------------------------------
      1          6           0        5.918015   -5.215054    1.070821
      2          6           0        6.792032   -5.078232   -0.004027
      3          6           0        6.563963   -4.099348   -0.972653
      4          6           0        4.809561   -4.372874    1.181762
      5          6           0        4.579890   -3.388113    0.207065
      6          6           0        5.461362   -3.255857   -0.868089
      7          6           0        3.889491   -4.538058    2.334799
      8          6           0        2.707772   -3.614060    2.404019
      9          6           0        2.486737   -2.668530    1.467533
     10          6           0        3.408911   -2.480259    0.297367
     11          8           0        4.064229   -5.379625    3.195766
     12          8           0        3.186100   -1.615854   -0.529176
     13          1           0        6.083853   -5.970118    1.828287
     14          1           0        7.650185   -5.734103   -0.087084
     15          1           0        5.273386   -2.493278   -1.612753
     16         17           0        1.659861   -3.843933    3.758288
     17          1           0        7.245024   -3.994564   -1.808521
     18         17           0        1.133781   -1.595943    1.530894
 ---------------------------------------------------------------------

 SCF Done:  E(UB3LYP) =  -1454.50352124     A.U. after    1 cycles

 Alpha  occ. eigenvalues -- -101.58570-101.58570 -19.15125 -19.15124 -10.30622
 Alpha  occ. eigenvalues --  -10.30620 -10.28485 -10.28411 -10.22156 -10.22105
 Alpha  occ. eigenvalues --  -10.20767 -10.20763 -10.20605 -10.20552  -9.50018
 Alpha  occ. eigenvalues --   -9.50016  -7.26503  -7.26502  -7.25531  -7.25530
 Alpha  occ. eigenvalues --   -7.25404  -7.25403  -1.08799  -1.08589  -0.93859
 Alpha  occ. eigenvalues --   -0.89941  -0.88434  -0.82669  -0.78976  -0.77046
 Alpha  occ. eigenvalues --   -0.70837  -0.65981  -0.64436  -0.60557  -0.57236
 Alpha  occ. eigenvalues --   -0.54062  -0.51740  -0.49917  -0.47904  -0.47841
 Alpha  occ. eigenvalues --   -0.47110  -0.46115  -0.45917  -0.45432  -0.43919
 Alpha  occ. eigenvalues --   -0.41108  -0.39543  -0.38181  -0.38073  -0.36368
 Alpha  occ. eigenvalues --   -0.35561  -0.33339  -0.30797  -0.30146  -0.29774
 Alpha  occ. eigenvalues --   -0.28776  -0.28190
 Alpha virt. eigenvalues --   -0.14169  -0.06717  -0.04724  -0.02683  -0.00463
 Alpha virt. eigenvalues --    0.01119   0.01234   0.01319   0.01997   0.03152
 Alpha virt. eigenvalues --    0.04167   0.04337   0.04384   0.04772   0.06408

  Beta  occ. eigenvalues -- -101.58570-101.58570 -19.15125 -19.15124 -10.30622
  Beta  occ. eigenvalues --  -10.30620 -10.28485 -10.28411 -10.22156 -10.22105
  Beta  occ. eigenvalues --  -10.20767 -10.20763 -10.20605 -10.20552  -9.50018
  Beta  occ. eigenvalues --   -9.50016  -7.26503  -7.26502  -7.25531  -7.25530
  Beta  occ. eigenvalues --   -7.25404  -7.25403  -1.08799  -1.08589  -0.93859
  Beta  occ. eigenvalues --   -0.89941  -0.88434  -0.82669  -0.78976  -0.77046
  Beta  occ. eigenvalues --   -0.70837  -0.65981  -0.64436  -0.60557  -0.57236
  Beta  occ. eigenvalues --   -0.54062  -0.51740  -0.49917  -0.47904  -0.47841
  Beta  occ. eigenvalues --   -0.47110  -0.46115  -0.45917  -0.45432  -0.43919
  Beta  occ. eigenvalues --   -0.41108  -0.39543  -0.38181  -0.38073  -0.36368
  Beta  occ. eigenvalues --   -0.35561  -0.33339  -0.30797  -0.30146  -0.29774
  Beta  occ. eigenvalues --   -0.28776  -0.28190
  Beta virt. eigenvalues --   -0.14169  -0.06717  -0.04724  -0.02683  -0.00463
  Beta virt. eigenvalues --    0.01119   0.01234   0.01319   0.01997   0.03152
  Beta virt. eigenvalues --    0.04167   0.04337   0.04384   0.04772   0.06408

 Mulliken charges and spin densities:
               1          2
     1  C    0.065487  -0.000000
     2  C   -0.393884   0.000000
     3  C   -0.394027  -0.000000
     4  C    0.562825  -0.000000
     5  C    0.563013   0.000000
     6  C    0.065050   0.000000
     7  C   -1.680208   0.000000
     8  C    0.776007  -0.000000
     9  C    0.776974   0.000000
    10  C   -1.680600  -0.000000
    11  O   -0.216228  -0.000000
    12  O   -0.216288   0.000000
    13  H    0.199002  -0.000000
    14  H    0.215803   0.000000
    15  H    0.198875  -0.000000
    16  Cl   0.471254   0.000000
    17  H    0.215821   0.000000
    18  Cl   0.471126   0.000000
 Sum of Mulliken charges =  -0.00000   0.00000

 Dipole moment (field-independent basis, Debye):
    X=              3.9022    Y=             -1.4018    Z=             -2.3354  Tot=              4.7588
 Quadrupole moment (field-independent basis, Debye-Ang):
   XX=            -52.3627   YY=            -89.2469   ZZ=           -102.1430
   XY=            -21.6790   XZ=            -12.7776   YZ=             16.4415

  Exact polarizability: 214.242 -60.202 193.753 -48.489 -59.224 218.053
 Approx polarizability: 235.762 -69.223 247.321 -41.450 -94.027 271.334

                      1                      2                      3
                      A                      A                      A
 Frequencies --     45.3080                70.7417               115.5521
 Red. masses --     11.1953                15.4865                 4.9303
 Frc consts  --      0.0135                 0.0457                 0.0388
 IR Inten    --      7.3516                 0.0001                 0.0006

                      4                      5                      6
                      A                      A                      A
 Frequencies --    163.0625               211.4937               216.9357
 Red. masses --      7.9139                29.9147                 8.8277
 Frc consts  --      0.1240                 0.7884                 0.2448
 IR Inten    --      3.8295                 0.0137                 0.5517

                      7                      8                      9
                      A                      A                      A
 Frequencies --    267.7276               288.2138               335.6040
 Red. masses --      7.8218                 9.4694                13.7412
 Frc consts  --      0.3303                 0.4635                 0.9119
 IR Inten    --      2.7724                 1.3681                 0.1131

                     10                     11                     12
                      A                      A                      A
 Frequencies --    355.8346               390.4837               426.5635
 Red. masses --     16.2674                12.0068                 6.6304
 Frc consts  --      1.2136                 1.0787                 0.7108
 IR Inten    --      3.6958                25.6188                 0.0258

                     13                     14                     15
                      A                      A                      A
 Frequencies --    429.2883               482.4409               516.7552
 Red. masses --      3.3330                13.4836                 5.8268
 Frc consts  --      0.3619                 1.8490                 0.9167
 IR Inten    --      1.6133                22.4498                 0.0008

                     16                     17                     18
                      A                      A                      A
 Frequencies --    556.1283               649.4732               694.8284
 Red. masses --      8.8213                 7.3410                 4.9476
 Frc consts  --      1.6074                 1.8244                 1.4074
 IR Inten    --      2.5204                52.3963                 0.0103

                     19                     20                     21
                      A                      A                      A
 Frequencies --    706.6487               724.4970               791.3165
 Red. masses --      8.3505                 2.5279                 6.7238
 Frc consts  --      2.4568                 0.7818                 2.4807
 IR Inten    --      0.0114               103.8820                 0.0251

                     22                     23                     24
                      A                      A                      A
 Frequencies --    807.7780               818.8864               857.9861
 Red. masses --      1.8436                 9.1496                 9.3592
 Frc consts  --      0.7088                 3.6149                 4.0593
 IR Inten    --     25.8245               253.0753                 8.0473

                     25                     26                     27
                      A                      A                      A
 Frequencies --    877.9132               914.5160              1003.5170
 Red. masses --      8.8628                 1.3771                 1.3887
 Frc consts  --      4.0246                 0.6786                 0.8240
 IR Inten    --     77.2658                 0.0002                 2.0253

                     28                     29                     30
                      A                      A                      A
 Frequencies --   1026.6126              1047.3539              1103.2753
 Red. masses --      1.3409                 2.9976                 4.4085
 Frc consts  --      0.8326                 1.9373                 3.1616
 IR Inten    --      0.0001                 4.0087               118.8185

                     31                     32                     33
                      A                      A                      A
 Frequencies --   1103.9862              1136.4122              1185.3706
 Red. masses --      3.0349                 2.4239                 1.1138
 Frc consts  --      2.1793                 1.8444                 0.9221
 IR Inten    --      3.1663               291.3178                 6.5719

                     34                     35                     36
                      A                      A                      A
 Frequencies --   1242.0384              1273.9017              1305.6540
 Red. masses --      2.3114                 5.3615                 2.1009
 Frc consts  --      2.1008                 5.1264                 2.1101
 IR Inten    --     90.0824               676.1942                 5.2705

                     37                     38                     39
                      A                      A                      A
 Frequencies --   1362.9041              1480.9525              1506.8997
 Red. masses --      7.9052                 2.2948                 2.6250
 Frc consts  --      8.6515                 2.9653                 3.5119
 IR Inten    --      9.7881                 0.0648                15.7036

                     40                     41                     42
                      A                      A                      A
 Frequencies --   1595.3724              1619.3309              1623.5904
 Red. masses --      9.1165                 5.7425                 7.9404
 Frc consts  --     13.6711                 8.8720                12.3324
 IR Inten    --    190.3849               196.2857                75.7734

                     43                     44                     45
                      A                      A                      A
 Frequencies --   1713.5901              1714.2172              3184.5247
 Red. masses --     12.5700                12.9849                 1.0879
 Frc consts  --     21.7470                22.4812                 6.5000
 IR Inten    --    962.5168                37.9766                 2.7731

                     46                     47                     48
                      A                      A                      A
 Frequencies --   3196.2588              3207.7111              3210.6727
 Red. masses --      1.0916                 1.0929                 1.0959
 Frc consts  --      6.5705                 6.6254                 6.6559
 IR Inten    --      7.2471                 1.2845                14.3128

 - Thermochemistry -
 -------------------
 Temperature   298.150 Kelvin.  Pressure   1.00000 Atm.
 Atom     1 has atomic number  6 and mass  12.00000

 Molecular mass:   225.95883 amu.
 Principal axes and moments of inertia in atomic units:
                           1         2         3
     Eigenvalues --  1995.667684019.082656014.71634
           X            0.82301  -0.16369   0.54393
           Y           -0.29090   0.70102   0.65112
           Z           -0.48788  -0.69411   0.52933
 This molecule is an asymmetric top.
 Rotational symmetry number  1.
 Warning -- assumption of classical behavior for rotation
           may cause significant error
 Rotational temperatures (Kelvin)      0.04340     0.02155     0.01440
 Rotational constants (GHZ):           0.90433     0.44904     0.30005
 Zero-point vibrational energy     296435.4 (Joules/Mol)
                                   70.84975 (Kcal/Mol)
 Warning -- explicit consideration of  16 degrees of freedom as
           vibrations may cause significant error
 Vibrational temperatures:     65.19   101.78   166.25   234.61   304.29
          (Kelvin)            312.12   385.20   414.68   482.86   511.97
                              561.82   613.73   617.65   694.12   743.50
                              800.14   934.45   999.70  1016.71  1042.39
                             1138.53  1162.21  1178.19  1234.45  1263.12
                             1315.78  1443.84  1477.07  1506.91  1587.37
                             1588.39  1635.04  1705.48  1787.02  1832.86
                             1878.54  1960.91  2130.76  2168.09  2295.38
                             2329.86  2335.98  2465.47  2466.38  4581.82
                             4598.70  4615.18  4619.44

 Zero-point correction=                           0.112906 (Hartree/Particle)
 Thermal correction to Energy=                    0.124054
 Thermal correction to Enthalpy=                  0.124998
 Thermal correction to Gibbs Free Energy=         0.074514
 Sum of electronic and zero-point Energies=          -1454.390615
 Sum of electronic and thermal Energies=             -1454.379468
 Sum of electronic and thermal Enthalpies=           -1454.378524
 Sum of electronic and thermal Free Energies=        -1454.429007

                     E (Thermal)             CV                S
                      KCal/Mol        Cal/Mol-Kelvin    Cal/Mol-Kelvin
 Total                   77.845             41.816            106.251
 Electronic               0.000              0.000              0.000
 Translational            0.889              2.981             42.148
 Rotational               0.889              2.981             32.245
 Vibrational             76.067             35.855             31.858
 Vibration     1          0.595              1.979              5.012
 Vibration     2          0.598              1.968              4.133
 Vibration     3          0.608              1.937              3.173
 Vibration     4          0.623              1.888              2.514
 Vibration     5          0.643              1.823              2.031
 Vibration     6          0.646              1.815              1.985
 Vibration     7          0.673              1.732              1.611
 Vibration     8          0.685              1.696              1.484
 Vibration     9          0.717              1.604              1.233
 Vibration    10          0.731              1.563              1.140
 Vibration    11          0.758              1.491              0.998
 Vibration    12          0.788              1.412              0.870
 Vibration    13          0.791              1.406              0.861
 Vibration    14          0.839              1.289              0.704
 Vibration    15          0.872              1.213              0.618
 Vibration    16          0.912              1.126              0.532

                           ! Non-Optimized Parameters !
 Normal termination of Gaussian 16 at Sat Feb 10 23:39:37 2024.
