 Gaussian 16, Revision A.03,
 Gaussian 16:  ES64L-G16RevA.03 25-Dec-2016

 ----------------------------------------------------------------------
 #P UB3LYP/6-311++G(d,p) nosym opt freq SCRF=(PCM,Solvent=n,n-DiMethylF
 ormamide)
 ----------------------------------------------------------------------

 -------
 Reduced
 -------
 Symbolic Z-matrix:
 Charge = -2 Multiplicity = 1

 SCF Done:  E(UB3LYP) =  -859.113112597     A.U. after   17 cycles
 SCF Done:  E(UB3LYP) =  -859.114506955     A.U. after   13 cycles
 SCF Done:  E(UB3LYP) =  -859.114711779     A.U. after   14 cycles
 SCF Done:  E(UB3LYP) =  -859.114917573     A.U. after   12 cycles
 SCF Done:  E(UB3LYP) =  -859.114961898     A.U. after   11 cycles
 SCF Done:  E(UB3LYP) =  -859.114980973     A.U. after   11 cycles
 SCF Done:  E(UB3LYP) =  -859.114986278     A.U. after   11 cycles
 SCF Done:  E(UB3LYP) =  -859.114988375     A.U. after   10 cycles
 SCF Done:  E(UB3LYP) =  -859.114989081     A.U. after   11 cycles
 SCF Done:  E(UB3LYP) =  -859.114989320     A.U. after   10 cycles
 Optimization completed.
    -- Stationary point found.
 Normal termination of Gaussian 16 at Sat Feb 10 18:34:51 2024.

 ----------------------------------------------------------------------
 #P Geom=AllCheck Guess=TCheck SCRF=Check GenChk UB3LYP/6-311++G(d,p) F
 req
 ----------------------------------------------------------------------

 Structure from the checkpoint file:  "155-an.chk"
 -------
 Reduced
 -------
 Charge = -2 Multiplicity = 1

                          Input orientation:
 ---------------------------------------------------------------------
 Center     Atomic      Atomic             Coordinates (Angstroms)
 Number     Number       Type             X           Y           Z
 ---------------------------------------------------------------------
      1          6           0       -2.243563    3.235469    4.100047
      2          6           0       -3.463648    2.682602    4.374103
      3          6           0       -3.896549    1.531589    3.661975
      4          6           0       -3.095078    0.970717    2.684900
      5          6           0       -1.798793    1.521470    2.338553
      6          6           0       -1.378635    2.694702    3.100303
      7          6           0       -0.118662    3.348769    2.899795
      8          6           0       -0.939238    0.969167    1.318149
      9          6           0        0.734699    2.810545    1.877587
     10          6           0        0.337062    1.635383    1.132866
     11          6           0        2.026648    3.397514    1.576179
     12          6           0        2.874151    2.805026    0.649830
     13          6           0        2.477720    1.639867   -0.048246
     14          6           0        1.241243    1.083323    0.176945
     15          8           0        0.221352    4.383615    3.645355
     16          8           0       -1.233277   -0.059493    0.583732
     17          7           0        2.390656    4.596038    2.191549
     18          8           0       -3.504513   -0.149138    2.004616
     19          6           0       -4.766533   -0.720627    2.317483
     20          1           0       -1.892863    4.109734    4.633607
     21          1           0       -4.110915    3.109826    5.134150
     22          1           0       -4.859090    1.101140    3.898799
     23          1           0        3.838883    3.263433    0.449144
     24          1           0        3.157047    1.195119   -0.770276
     25          1           0        0.920292    0.199251   -0.359041
     26          1           0        1.784348    4.791228    2.999697
     27          1           0        3.384150    4.740432    2.306045
     28          1           0       -4.870803   -1.583877    1.660407
     29          1           0       -5.589077   -0.022147    2.126763
     30          1           0       -4.816318   -1.053844    3.360220
 ---------------------------------------------------------------------

 SCF Done:  E(UB3LYP) =  -859.114989320     A.U. after    1 cycles

 Alpha  occ. eigenvalues --  -19.13258 -19.01969 -19.00954 -14.27917 -10.21343
 Alpha  occ. eigenvalues --  -10.20792 -10.18797 -10.17433 -10.17289 -10.14598
 Alpha  occ. eigenvalues --  -10.14396 -10.14204 -10.14047 -10.13986 -10.13592
 Alpha  occ. eigenvalues --  -10.13510 -10.13393 -10.13302 -10.13004  -1.04696
 Alpha  occ. eigenvalues --   -0.93359  -0.92423  -0.88188  -0.82063  -0.80298
 Alpha  occ. eigenvalues --   -0.75033  -0.73366  -0.70621  -0.69757  -0.67733
 Alpha  occ. eigenvalues --   -0.63498  -0.60059  -0.59388  -0.55196  -0.53022
 Alpha  occ. eigenvalues --   -0.52030  -0.49842  -0.47957  -0.45712  -0.45446
 Alpha  occ. eigenvalues --   -0.45430  -0.43851  -0.43463  -0.41734  -0.41172
 Alpha  occ. eigenvalues --   -0.39632  -0.38233  -0.37617  -0.36547  -0.35748
 Alpha  occ. eigenvalues --   -0.35598  -0.34937  -0.33148  -0.32403  -0.32161
 Alpha  occ. eigenvalues --   -0.31924  -0.31055  -0.30388  -0.29074  -0.27582
 Alpha  occ. eigenvalues --   -0.22135  -0.21478  -0.20450  -0.20099  -0.18605
 Alpha  occ. eigenvalues --   -0.18250  -0.10377
 Alpha virt. eigenvalues --   -0.01343  -0.00019   0.00380   0.00558   0.01203
 Alpha virt. eigenvalues --    0.02026   0.02269   0.03221   0.03780   0.03918
 Alpha virt. eigenvalues --    0.04189   0.04310   0.05377   0.05750   0.06437

  Beta  occ. eigenvalues --  -19.13258 -19.01969 -19.00954 -14.27917 -10.21343
  Beta  occ. eigenvalues --  -10.20792 -10.18797 -10.17433 -10.17289 -10.14598
  Beta  occ. eigenvalues --  -10.14396 -10.14204 -10.14047 -10.13986 -10.13592
  Beta  occ. eigenvalues --  -10.13510 -10.13393 -10.13302 -10.13004  -1.04696
  Beta  occ. eigenvalues --   -0.93359  -0.92423  -0.88188  -0.82063  -0.80298
  Beta  occ. eigenvalues --   -0.75033  -0.73366  -0.70621  -0.69757  -0.67733
  Beta  occ. eigenvalues --   -0.63498  -0.60059  -0.59388  -0.55196  -0.53022
  Beta  occ. eigenvalues --   -0.52030  -0.49842  -0.47957  -0.45712  -0.45446
  Beta  occ. eigenvalues --   -0.45430  -0.43851  -0.43463  -0.41734  -0.41172
  Beta  occ. eigenvalues --   -0.39632  -0.38233  -0.37617  -0.36547  -0.35748
  Beta  occ. eigenvalues --   -0.35598  -0.34937  -0.33148  -0.32403  -0.32161
  Beta  occ. eigenvalues --   -0.31924  -0.31055  -0.30388  -0.29074  -0.27582
  Beta  occ. eigenvalues --   -0.22135  -0.21478  -0.20450  -0.20099  -0.18605
  Beta  occ. eigenvalues --   -0.18250  -0.10377
  Beta virt. eigenvalues --   -0.01343  -0.00019   0.00380   0.00558   0.01203
  Beta virt. eigenvalues --    0.02026   0.02269   0.03221   0.03780   0.03918
  Beta virt. eigenvalues --    0.04189   0.04310   0.05377   0.05750   0.06437

 Mulliken charges and spin densities:
               1          2
     1  C   -0.271385   0.000000
     2  C   -0.515396  -0.000000
     3  C   -0.218105   0.000000
     4  C   -0.037787   0.000000
     5  C    0.101516  -0.000000
     6  C    0.266994   0.000000
     7  C   -0.399446  -0.000000
     8  C   -0.468487   0.000000
     9  C    0.141510   0.000000
    10  C    0.541041   0.000000
    11  C    0.136038   0.000000
    12  C   -0.252663  -0.000000
    13  C   -0.496366  -0.000000
    14  C   -0.229627  -0.000000
    15  O   -0.660635   0.000000
    16  O   -0.675533  -0.000000
    17  N   -0.457487  -0.000000
    18  O   -0.156412  -0.000000
    19  C   -0.272330   0.000000
    20  H    0.139465   0.000000
    21  H    0.164879  -0.000000
    22  H    0.157455   0.000000
    23  H    0.132160  -0.000000
    24  H    0.154995  -0.000000
    25  H    0.139987   0.000000
    26  H    0.303814   0.000000
    27  H    0.249574   0.000000
    28  H    0.186624   0.000000
    29  H    0.148764  -0.000000
    30  H    0.146846  -0.000000
 Sum of Mulliken charges =  -2.00000   0.00000

 Dipole moment (field-independent basis, Debye):
    X=              3.9418    Y=            -20.7961    Z=            -18.1474  Tot=             27.8808
 Quadrupole moment (field-independent basis, Debye-Ang):
   XX=           -124.8921   YY=           -200.5921   ZZ=           -177.5688
   XY=              4.9191   XZ=              7.9314   YZ=            -59.9824

  Exact polarizability: 506.873  72.551 339.741-137.199  90.826 336.595
 Approx polarizability: 547.355  76.369 393.081-146.697 119.628 383.921

                      1                      2                      3
                      A                      A                      A
 Frequencies --     48.2169                56.0388                80.7430
 Red. masses --      4.0130                 6.0313                 5.2059
 Frc consts  --      0.0055                 0.0112                 0.0200
 IR Inten    --     13.2732                17.0568                 0.0708

                      4                      5                      6
                      A                      A                      A
 Frequencies --    127.7690               158.6840               172.7026
 Red. masses --      5.1017                 5.8468                 4.4293
 Frc consts  --      0.0491                 0.0867                 0.0778
 IR Inten    --      0.4755                 6.9031                25.9184

                      7                      8                      9
                      A                      A                      A
 Frequencies --    195.1907               230.1733               267.8830
 Red. masses --      3.3457                 3.1843                 4.6817
 Frc consts  --      0.0751                 0.0994                 0.1979
 IR Inten    --      0.2902                 8.2478                 9.7385

                     10                     11                     12
                      A                      A                      A
 Frequencies --    276.5402               303.3133               323.6941
 Red. masses --      1.7048                 2.5428                 3.8532
 Frc consts  --      0.0768                 0.1378                 0.2379
 IR Inten    --      5.0917                 5.2950                 0.7863

                     13                     14                     15
                      A                      A                      A
 Frequencies --    361.1454               381.1996               392.8161
 Red. masses --      8.6147                 7.1545                 6.8053
 Frc consts  --      0.6620                 0.6125                 0.6187
 IR Inten    --      0.3022                 3.8834                 9.9386

                     16                     17                     18
                      A                      A                      A
 Frequencies --    403.5139               416.7880               434.9499
 Red. masses --      3.9576                 4.3667                 1.6232
 Frc consts  --      0.3797                 0.4469                 0.1809
 IR Inten    --     32.5588                73.6248               291.4353

                     19                     20                     21
                      A                      A                      A
 Frequencies --    477.1516               495.2451               505.0042
 Red. masses --      5.5520                 4.0853                 7.7153
 Frc consts  --      0.7448                 0.5904                 1.1593
 IR Inten    --      8.9813                 4.3485                11.6899

                     22                     23                     24
                      A                      A                      A
 Frequencies --    545.9701               555.6662               586.0469
 Red. masses --      4.7070                 5.6844                 4.5841
 Frc consts  --      0.8267                 1.0341                 0.9276
 IR Inten    --     10.9986                 3.0681                16.5177

                     25                     26                     27
                      A                      A                      A
 Frequencies --    588.8779               626.7157               658.7155
 Red. masses --      5.8293                 5.0251                 3.6013
 Frc consts  --      1.1910                 1.1629                 0.9207
 IR Inten    --     54.3792                16.5266                 4.6266

                     28                     29                     30
                      A                      A                      A
 Frequencies --    698.3023               698.4183               738.7184
 Red. masses --      4.7866                 2.1599                 1.3815
 Frc consts  --      1.3752                 0.6208                 0.4442
 IR Inten    --     27.0916               138.1236                21.8038

                     31                     32                     33
                      A                      A                      A
 Frequencies --    746.1670               768.7747               774.7529
 Red. masses --      2.6820                 3.9691                 2.2418
 Frc consts  --      0.8798                 1.3821                 0.7928
 IR Inten    --     81.9501               140.8929                61.7769

                     34                     35                     36
                      A                      A                      A
 Frequencies --    788.3538               820.9572               826.1906
 Red. masses --      1.9555                 3.7775                 1.8922
 Frc consts  --      0.7161                 1.5000                 0.7610
 IR Inten    --    167.4867                 2.1630                 1.4656

                     37                     38                     39
                      A                      A                      A
 Frequencies --    835.6530               838.4882               893.4986
 Red. masses --      2.2878                 3.0455                 5.6801
 Frc consts  --      0.9413                 1.2615                 2.6717
 IR Inten    --     35.8938                71.9956                36.6617

                     40                     41                     42
                      A                      A                      A
 Frequencies --    948.9007               953.4986               961.1390
 Red. masses --      5.8688                 1.2509                 1.2668
 Frc consts  --      3.1134                 0.6700                 0.6895
 IR Inten    --     57.5016                 2.2375                 2.2283

                     43                     44                     45
                      A                      A                      A
 Frequencies --   1012.2548              1056.6469              1075.2568
 Red. masses --      4.8327                 3.0931                 3.1986
 Frc consts  --      2.9175                 2.0347                 2.1789
 IR Inten    --    265.0930               463.5538               432.4737

                     46                     47                     48
                      A                      A                      A
 Frequencies --   1087.5988              1121.2579              1158.1211
 Red. masses --      2.2230                 1.8089                 2.1440
 Frc consts  --      1.5493                 1.3399                 1.6943
 IR Inten    --    451.1957               610.3716                35.7744

                     49                     50                     51
                      A                      A                      A
 Frequencies --   1159.8327              1161.4157              1168.0762
 Red. masses --      1.9252                 1.2808                 1.2545
 Frc consts  --      1.5258                 1.0179                 1.0085
 IR Inten    --     86.8988                 1.7829                85.1732

                     52                     53                     54
                      A                      A                      A
 Frequencies --   1189.9249              1219.3976              1232.5690
 Red. masses --      1.6679                 1.8735                 3.1352
 Frc consts  --      1.3914                 1.6413                 2.8063
 IR Inten    --     97.5231               174.3695                77.4876

                     55                     56                     57
                      A                      A                      A
 Frequencies --   1240.1788              1271.5406              1300.1736
 Red. masses --      2.8164                 3.9185                 4.4256
 Frc consts  --      2.5522                 3.7328                 4.4078
 IR Inten    --     67.0929               422.8344                25.8047

                     58                     59                     60
                      A                      A                      A
 Frequencies --   1342.2159              1348.1033              1375.7677
 Red. masses --      4.0218                 6.7254                 2.4416
 Frc consts  --      4.2689                 7.2014                 2.7228
 IR Inten    --    853.1698              1606.2329               174.6971

                     61                     62                     63
                      A                      A                      A
 Frequencies --   1421.7058              1428.8362              1458.5532
 Red. masses --      3.0412                 5.0953                 1.9520
 Frc consts  --      3.6217                 6.1289                 2.4466
 IR Inten    --     47.7595                42.4868               483.7180

                     64                     65                     66
                      A                      A                      A
 Frequencies --   1466.7920              1473.4770              1479.4891
 Red. masses --      2.9404                 1.5245                 1.0468
 Frc consts  --      3.7273                 1.9501                 1.3500
 IR Inten    --     90.5188               110.8663                 9.6229

                     67                     68                     69
                      A                      A                      A
 Frequencies --   1487.7486              1498.5023              1536.0399
 Red. masses --      3.9930                 1.0918                 4.1816
 Frc consts  --      5.2073                 1.4444                 5.8129
 IR Inten    --      5.2500                76.1238               598.9923

                     70                     71                     72
                      A                      A                      A
 Frequencies --   1574.5250              1581.8977              1607.0880
 Red. masses --      1.3411                 7.0862                 4.1809
 Frc consts  --      1.9589                10.4477                 6.3621
 IR Inten    --    274.5694                23.7627                45.8259

                     73                     74                     75
                      A                      A                      A
 Frequencies --   1609.5958              2994.9445              3049.6430
 Red. masses --      5.1033                 1.0340                 1.1054
 Frc consts  --      7.7899                 5.4644                 6.0573
 IR Inten    --    105.7387               131.3980                75.6572

                     76                     77                     78
                      A                      A                      A
 Frequencies --   3114.0023              3128.6668              3145.4017
 Red. masses --      1.0992                 1.0852                 1.0875
 Frc consts  --      6.2799                 6.2586                 6.3394
 IR Inten    --     43.4661                59.3173                50.6154

                     79                     80                     81
                      A                      A                      A
 Frequencies --   3146.9389              3188.6764              3190.2856
 Red. masses --      1.0921                 1.0906                 1.0907
 Frc consts  --      6.3723                 6.5334                 6.5408
 IR Inten    --     78.9220                52.9567                29.6919

                     82                     83                     84
                      A                      A                      A
 Frequencies --   3207.4461              3232.2603              3603.0132
 Red. masses --      1.0898                 1.0686                 1.0825
 Frc consts  --      6.6056                 6.5776                 8.2799
 IR Inten    --     31.6425               475.4408                32.2492

 - Thermochemistry -
 -------------------
 Temperature   298.150 Kelvin.  Pressure   1.00000 Atm.
 Atom     1 has atomic number  6 and mass  12.00000

 Molecular mass:   253.07389 amu.
 Principal axes and moments of inertia in atomic units:
                           1         2         3
     Eigenvalues --  2515.741446199.665598699.16042
           X            0.89804  -0.11775   0.42387
           Y            0.37069   0.72139  -0.58496
           Z           -0.23689   0.68244   0.69149
 This molecule is an asymmetric top.
 Rotational symmetry number  1.
 Warning -- assumption of classical behavior for rotation
           may cause significant error
 Rotational temperatures (Kelvin)      0.03443     0.01397     0.00996
 Rotational constants (GHZ):           0.71738     0.29110     0.20746
 Zero-point vibrational energy     586818.7 (Joules/Mol)
                                  140.25304 (Kcal/Mol)
 Warning -- explicit consideration of  25 degrees of freedom as
           vibrations may cause significant error
 Vibrational temperatures:     69.37    80.63   116.17   183.83   228.31
          (Kelvin)            248.48   280.84   331.17   385.42   397.88
                              436.40   465.72   519.61   548.46   565.17
                              580.57   599.66   625.80   686.51   712.55
                              726.59   785.53   799.48   843.19   847.26
                              901.70   947.74  1004.70  1004.87  1062.85
                             1073.57  1106.10  1114.70  1134.27  1181.17
                             1188.70  1202.32  1206.40  1285.55  1365.26
                             1371.87  1382.86  1456.41  1520.28  1547.05
                             1564.81  1613.24  1666.28  1668.74  1671.02
                             1680.60  1712.04  1754.44  1773.39  1784.34
                             1829.46  1870.66  1931.15  1939.62  1979.42
                             2045.52  2055.78  2098.53  2110.39  2120.00
                             2128.65  2140.54  2156.01  2210.02  2265.39
                             2276.00  2312.24  2315.85  4309.06  4387.76
                             4480.35  4501.45  4525.53  4527.74  4587.79
                             4590.11  4614.80  4650.50  5183.93

 Zero-point correction=                           0.223507 (Hartree/Particle)
 Thermal correction to Energy=                    0.238578
 Thermal correction to Enthalpy=                  0.239523
 Thermal correction to Gibbs Free Energy=         0.181725
 Sum of electronic and zero-point Energies=           -858.891482
 Sum of electronic and thermal Energies=              -858.876411
 Sum of electronic and thermal Enthalpies=            -858.875467
 Sum of electronic and thermal Free Energies=         -858.933264

                     E (Thermal)             CV                S
                      KCal/Mol        Cal/Mol-Kelvin    Cal/Mol-Kelvin
 Total                  149.710             61.189            121.645
 Electronic               0.000              0.000              0.000
 Translational            0.889              2.981             42.486
 Rotational               0.889              2.981             33.272
 Vibrational            147.933             55.228             45.887
 Vibration     1          0.595              1.978              4.889
 Vibration     2          0.596              1.975              4.592
 Vibration     3          0.600              1.962              3.873
 Vibration     4          0.611              1.925              2.979
 Vibration     5          0.621              1.893              2.565
 Vibration     6          0.626              1.876              2.406
 Vibration     7          0.636              1.847              2.178
 Vibration     8          0.652              1.795              1.878
 Vibration     9          0.673              1.732              1.610
 Vibration    10          0.678              1.717              1.555
 Vibration    11          0.695              1.667              1.399
 Vibration    12          0.708              1.628              1.291
 Vibration    13          0.735              1.552              1.117
 Vibration    14          0.751              1.510              1.034
 Vibration    15          0.760              1.486              0.989
 Vibration    16          0.769              1.463              0.950
 Vibration    17          0.780              1.434              0.903
 Vibration    18          0.796              1.394              0.843
 Vibration    19          0.834              1.301              0.718
 Vibration    20          0.851              1.261              0.670
 Vibration    21          0.860              1.239              0.646
 Vibration    22          0.901              1.149              0.553
 Vibration    23          0.911              1.127              0.533
 Vibration    24          0.943              1.062              0.474
 Vibration    25          0.946              1.055              0.469

 Optimization completed.
    -- Stationary point found.
 Normal termination of Gaussian 16 at Sat Feb 10 19:22:42 2024.
