 Q-Chem 5.4, Q-Chem, Inc., Pleasanton, CA (2021)
 Q-Chem 5.4.0 for Intel X86 EM64T Linux

User input:
--------------------------------------------------------------
$molecule
-1 2
C                 -2.9597210000     -2.0551890000     -0.0357990000
C                 -2.3313840000     -0.6781440000     -0.0489020000
C                 -3.1883410000      0.4065900000     -0.0968780000
C                 -2.7116480000      1.7246430000     -0.1130340000
C                 -1.3587620000      2.0111430000     -0.0820110000
C                 -0.9609060000      3.4714150000     -0.1037800000
C                 -0.4269470000      0.9235390000     -0.0319180000
C                  1.0158090000      1.2032680000      0.0016040000
O                  1.4859810000      2.3708900000     -0.0113810000
C                  1.9237200000      0.0574540000      0.0518110000
C                  3.3183490000      0.2830350000      0.0846750000
C                  4.2097360000     -0.7696300000      0.1322690000
C                  3.7292100000     -2.0981790000      0.1487900000
C                  2.3703600000     -2.3379550000      0.1173070000
C                  1.4423840000     -1.2733520000      0.0684120000
C                  0.0112150000     -1.5742210000      0.0363440000
O                 -0.3743010000     -2.7724000000      0.0532850000
C                 -0.9191160000     -0.4372640000     -0.0150470000
H                 -2.6796230000     -2.6222940000      0.8535120000
H                 -2.6298450000     -2.6615100000     -0.8810570000
H                 -4.0504650000     -1.9533120000     -0.0693540000
H                 -4.2603580000      0.2306440000     -0.1227430000
H                 -3.4233690000      2.5449190000     -0.1510500000
H                 -0.3270920000      3.7081240000     -0.9600440000
H                 -0.3748090000      3.7470700000      0.7745170000
H                 -1.8647370000      4.0901200000     -0.1426000000
H                  3.6557740000      1.3127020000      0.0709280000
H                  5.2787820000     -0.5788030000      0.1570160000
H                  4.4290750000     -2.9280480000      0.1862150000
H                  1.9710290000     -3.3452560000      0.1289160000
$end
$rem
MAX_SCF_CYCLES=200
BASIS  =  6-311++G(d,p)
GUI  =  2
JOB_TYPE  =  SP
METHOD  =  B3LYP
SOLVENT_METHOD = COSMO
$end
$solvent
dielectric 37.219
opticaldielectric 1.43
$end

--------------------------------------------------------------

             Standard Nuclear Orientation (Angstroms)
    I     Atom           X                Y                Z
 ----------------------------------------------------------------
    1      C      -2.2879991677    -2.9386539023    -0.0006857139
    2      C      -2.1653631677    -1.4299484167    -0.0002666683
    3      C      -3.3408145060    -0.7008126617    -0.0004884574
    4      C      -3.3407954296     0.7008866281    -0.0002785572
    5      C      -2.1653269100     1.4300086192     0.0000164932
    6      C      -2.2878910179     2.9386953447    -0.0000453026
    7      C      -0.9184639866     0.7236066335     0.0002367430
    8      C       0.3438646803     1.4768949044     0.0004131774
    9      O       0.3889373071     2.7348853151     0.0006120562
   10      C       1.5880263328     0.7076260726     0.0001032332
   11      C       2.8234791519     1.3936385159    -0.0002669806
   12      C       4.0203931710     0.7063712788    -0.0006552143
   13      C       4.0203470816    -0.7065054401    -0.0006295744
   14      C       2.8233923605    -1.3937144500    -0.0001774883
   15      C       1.5879878581    -0.7076493565     0.0001806436
   16      C       0.3437773843    -1.4768926718     0.0006674796
   17      O       0.3887887023    -2.7348735610     0.0014179735
   18      C      -0.9184912572    -0.7235629345     0.0002113154
   19      H      -1.8024637834    -3.3870474668     0.8677241129
   20      H      -1.8002633730    -3.3867420935    -0.8680006420
   21      H      -3.3490087843    -3.2133976437    -0.0020291040
   22      H      -4.2896318732    -1.2305219257    -0.0008636378
   23      H      -4.2895983881     1.2306201797    -0.0004349028
   24      H      -1.8010641485     3.3868202604    -0.8678719179
   25      H      -1.8012358124     3.3869619839     0.8677822861
   26      H      -3.3488624611     3.2135642335    -0.0002369048
   27      H       2.7905856343     2.4767713600    -0.0002690893
   28      H       4.9613277760     1.2490762348    -0.0009835794
   29      H       4.9612428970    -1.2492845537    -0.0009528810
   30      H       2.7904287742    -2.4768435831    -0.0001147468
 ----------------------------------------------------------------

    9    -767.6604496860      7.64e-06  Convergence criterion met
 Total energy in the final basis set =     -767.6604496860
    4    -767.7380673666      7.15e-06  Convergence criterion met
 Total energy in the final basis set =     -767.7380673666

                    Orbital Energies (a.u.)
 --------------------------------------------------------------

 Alpha MOs
 -- Occupied --
-19.0717 -19.0717 -10.2228 -10.2228 -10.1784 -10.1784 -10.1750 -10.1747
-10.1707 -10.1702 -10.1687 -10.1683 -10.1672 -10.1671 -10.1623 -10.1618
-10.1502 -10.1502  -1.0020  -0.9996  -0.8589  -0.8503  -0.7823  -0.7805
 -0.7477  -0.7345  -0.7058  -0.6745  -0.6374  -0.6279  -0.6148  -0.5719
 -0.5389  -0.5298  -0.5063  -0.4708  -0.4615  -0.4556  -0.4509  -0.4294
 -0.4220  -0.4168  -0.4097  -0.4058  -0.4022  -0.3961  -0.3872  -0.3842
 -0.3712  -0.3644  -0.3581  -0.3504  -0.3408  -0.3395  -0.3334  -0.3303
 -0.2651  -0.2549  -0.2461  -0.2400  -0.2391  -0.2311  -0.1381

 Beta MOs
 -- Occupied --
-19.0661 -19.0661 -10.2212 -10.2211 -10.1783 -10.1783 -10.1743 -10.1740
-10.1703 -10.1698 -10.1680 -10.1676 -10.1671 -10.1671 -10.1616 -10.1611
-10.1502 -10.1502  -0.9924  -0.9897  -0.8563  -0.8491  -0.7792  -0.7783
 -0.7457  -0.7327  -0.7055  -0.6683  -0.6349  -0.6262  -0.6122  -0.5707
 -0.5369  -0.5272  -0.5045  -0.4695  -0.4597  -0.4538  -0.4502  -0.4215
 -0.4214  -0.4122  -0.4076  -0.4024  -0.4003  -0.3898  -0.3863  -0.3829
 -0.3635  -0.3575  -0.3501  -0.3452  -0.3393  -0.3390  -0.3290  -0.3232
 -0.2487  -0.2448  -0.2406  -0.2342  -0.2323  -0.2261

          Ground-State Mulliken Net Atomic Charges

     Atom                 Charge (a.u.)    Spin (a.u.)
  --------------------------------------------------------
      1 C                    -0.359183       0.003742
      2 C                     0.899880       0.014673
      3 C                    -0.483862       0.048994
      4 C                    -0.484620       0.048946
      5 C                     0.899995       0.014695
      6 C                    -0.359493       0.003739
      7 C                     0.246477       0.044353
      8 C                    -0.969443       0.094165
      9 O                    -0.445646       0.202328
     10 C                     0.090377       0.040954
     11 C                     0.045632       0.024773
     12 C                    -0.542054       0.033826
     13 C                    -0.541933       0.033806
     14 C                     0.045219       0.024786
     15 C                     0.090384       0.040951
     16 C                    -0.969872       0.094195
     17 O                    -0.445634       0.202359
     18 C                     0.247994       0.044403
     19 H                     0.167084       0.000361
     20 H                     0.166658       0.000356
     21 H                     0.150557      -0.000346
     22 H                     0.151492      -0.004230
     23 H                     0.151601      -0.004228
     24 H                     0.167043       0.000360
     25 H                     0.166715       0.000358
     26 H                     0.150490      -0.000346
     27 H                     0.181951      -0.001128
     28 H                     0.200089      -0.002859
     29 H                     0.200128      -0.002858
     30 H                     0.181973      -0.001128
  --------------------------------------------------------
  Sum of atomic charges =    -1.000000

                    Cartesian Multipole Moments
 -----------------------------------------------------------------
    Charge (ESU x 10^10)
                -4.8032
    Dipole Moment (Debye)
         X      -1.9339      Y       0.0002      Z      -0.0045
       Tot       1.9339
    Quadrupole Moments (Debye-Ang)
        XX    -104.4804     XY       0.0023     YY    -140.1997
        XZ      -0.0018     YZ       0.0012     ZZ    -112.7704

 Total job time:  149.12s(wall), 812.63s(cpu)
        *  Thank you very much for using Q-Chem.  Have a nice day.  *
