 Gaussian 16, Revision A.03,
 Gaussian 16:  ES64L-G16RevA.03 25-Dec-2016

 --------------------------------------
 #P UB3LYP/6-311++G(d,p) nosym opt freq
 --------------------------------------

 -------
 Radical
 -------
 Symbolic Z-matrix:
 Charge = -1 Multiplicity = 2

 SCF Done:  E(UB3LYP) =  -767.660321172     A.U. after   19 cycles
 Optimization completed.
    -- Stationary point found.
 Normal termination of Gaussian 16 at Wed Dec 27 19:57:24 2023.

 ----------------------------------------------------------------------
 #P Geom=AllCheck Guess=TCheck SCRF=Check GenChk UB3LYP/6-311++G(d,p) F
 req
 ----------------------------------------------------------------------

 Structure from the checkpoint file:  "127-rad.chk"
 -------
 Radical
 -------
 Charge = -1 Multiplicity = 2

                          Input orientation:
 ---------------------------------------------------------------------
 Center     Atomic      Atomic             Coordinates (Angstroms)
 Number     Number       Type             X           Y           Z
 ---------------------------------------------------------------------
      1          6           0       -2.959721   -2.055189   -0.035799
      2          6           0       -2.331384   -0.678144   -0.048902
      3          6           0       -3.188341    0.406590   -0.096878
      4          6           0       -2.711648    1.724643   -0.113034
      5          6           0       -1.358762    2.011143   -0.082011
      6          6           0       -0.960906    3.471415   -0.103780
      7          6           0       -0.426947    0.923539   -0.031918
      8          6           0        1.015809    1.203268    0.001604
      9          8           0        1.485981    2.370890   -0.011381
     10          6           0        1.923720    0.057454    0.051811
     11          6           0        3.318349    0.283035    0.084675
     12          6           0        4.209736   -0.769630    0.132269
     13          6           0        3.729210   -2.098179    0.148790
     14          6           0        2.370360   -2.337955    0.117307
     15          6           0        1.442384   -1.273352    0.068412
     16          6           0        0.011215   -1.574221    0.036344
     17          8           0       -0.374301   -2.772400    0.053285
     18          6           0       -0.919116   -0.437264   -0.015047
     19          1           0       -2.679623   -2.622294    0.853512
     20          1           0       -2.629845   -2.661510   -0.881057
     21          1           0       -4.050465   -1.953312   -0.069354
     22          1           0       -4.260358    0.230644   -0.122743
     23          1           0       -3.423369    2.544919   -0.151050
     24          1           0       -0.327092    3.708124   -0.960044
     25          1           0       -0.374809    3.747070    0.774517
     26          1           0       -1.864737    4.090120   -0.142600
     27          1           0        3.655774    1.312702    0.070928
     28          1           0        5.278782   -0.578803    0.157016
     29          1           0        4.429075   -2.928048    0.186215
     30          1           0        1.971029   -3.345256    0.128916
 ---------------------------------------------------------------------

 SCF Done:  E(UB3LYP) =  -767.660321172     A.U. after    1 cycles

 Alpha  occ. eigenvalues --  -18.94134 -18.94133 -10.09457 -10.09456 -10.06169
 Alpha  occ. eigenvalues --  -10.06168 -10.05655 -10.05608 -10.05312 -10.05275
 Alpha  occ. eigenvalues --  -10.04878 -10.04877 -10.04865 -10.04814 -10.04587
 Alpha  occ. eigenvalues --  -10.04540 -10.04123 -10.04122  -0.87110  -0.86839
 Alpha  occ. eigenvalues --   -0.73855  -0.73157  -0.66503  -0.66233  -0.62752
 Alpha  occ. eigenvalues --   -0.61633  -0.59388  -0.55353  -0.52290  -0.51011
 Alpha  occ. eigenvalues --   -0.49666  -0.45410  -0.42001  -0.41289  -0.38723
 Alpha  occ. eigenvalues --   -0.35393  -0.34301  -0.34049  -0.33583  -0.30809
 Alpha  occ. eigenvalues --   -0.30304  -0.29149  -0.29130  -0.29025  -0.28096
 Alpha  occ. eigenvalues --   -0.27649  -0.27494  -0.26588  -0.25232  -0.24471
 Alpha  occ. eigenvalues --   -0.24226  -0.23105  -0.22491  -0.22306  -0.21239
 Alpha  occ. eigenvalues --   -0.21040  -0.13989  -0.13293  -0.12623  -0.12065
 Alpha  occ. eigenvalues --   -0.10894  -0.10194  -0.01131
 Alpha virt. eigenvalues --    0.07267   0.08194   0.08358   0.09269   0.09724
 Alpha virt. eigenvalues --    0.10297   0.10546   0.11365   0.12135   0.12279
 Alpha virt. eigenvalues --    0.13591   0.13688   0.13739   0.14217   0.15757

  Beta  occ. eigenvalues --  -18.93533 -18.93532 -10.09323 -10.09322 -10.06173
  Beta  occ. eigenvalues --  -10.06172 -10.05609 -10.05561 -10.05224 -10.05186
  Beta  occ. eigenvalues --  -10.04890 -10.04889 -10.04797 -10.04746 -10.04499
  Beta  occ. eigenvalues --  -10.04452 -10.04122 -10.04122  -0.86090  -0.85787
  Beta  occ. eigenvalues --   -0.73606  -0.73037  -0.66397  -0.65812  -0.62582
  Beta  occ. eigenvalues --   -0.61432  -0.59358  -0.54815  -0.51974  -0.50852
  Beta  occ. eigenvalues --   -0.49406  -0.45307  -0.41826  -0.41038  -0.38570
  Beta  occ. eigenvalues --   -0.35300  -0.34082  -0.33879  -0.33500  -0.30320
  Beta  occ. eigenvalues --   -0.30270  -0.28970  -0.28920  -0.28840  -0.27886
  Beta  occ. eigenvalues --   -0.27475  -0.26855  -0.26139  -0.25122  -0.24370
  Beta  occ. eigenvalues --   -0.22657  -0.22446  -0.22160  -0.21961  -0.20849
  Beta  occ. eigenvalues --   -0.20169  -0.12753  -0.12062  -0.11614  -0.11318
  Beta  occ. eigenvalues --   -0.10350  -0.09647
  Beta virt. eigenvalues --    0.04781   0.08122   0.08191   0.08350   0.09268
  Beta virt. eigenvalues --    0.10290   0.10545   0.10786   0.11502   0.12133
  Beta virt. eigenvalues --    0.12279   0.13642   0.13681   0.13828   0.14213

 Mulliken charges and spin densities:
               1          2
     1  C   -0.359975   0.004313
     2  C    1.039348   0.001354
     3  C   -0.497069   0.053054
     4  C   -0.496881   0.053055
     5  C    1.039285   0.001349
     6  C   -0.360033   0.004315
     7  C    0.242642   0.060465
     8  C   -1.165176   0.062708
     9  O   -0.331478   0.222480
    10  C    0.204721   0.053095
    11  C    0.054174   0.015964
    12  C   -0.476839   0.036376
    13  C   -0.476793   0.036395
    14  C    0.054227   0.015950
    15  C    0.204597   0.053100
    16  C   -1.165115   0.062700
    17  O   -0.331476   0.222465
    18  C    0.242914   0.060457
    19  H    0.164257  -0.000233
    20  H    0.164242  -0.000236
    21  H    0.102314  -0.000600
    22  H    0.074202  -0.004637
    23  H    0.074208  -0.004637
    24  H    0.164246  -0.000234
    25  H    0.164291  -0.000234
    26  H    0.102309  -0.000600
    27  H    0.163341  -0.000958
    28  H    0.121092  -0.003134
    29  H    0.121093  -0.003135
    30  H    0.163330  -0.000957
 Sum of Mulliken charges =  -1.00000   1.00000

 Dipole moment (field-independent basis, Debye):
    X=             -2.0961    Y=              0.7570    Z=             -0.0788  Tot=              2.2300
 Quadrupole moment (field-independent basis, Debye-Ang):
   XX=           -126.2209   YY=           -137.7440   ZZ=           -112.9113
   XY=             -4.8011   XZ=             -0.2603   YZ=              0.4296

  Exact polarizability: 332.914 -28.919 263.123   6.783  -4.237 109.336
 Approx polarizability: 508.544 -18.359 463.993   9.503  -6.935 177.193

                      1                      2                      3
                      A                      A                      A
 Frequencies --     36.9458                40.6293               108.3402
 Red. masses --      6.5880                 4.2692                 3.1508
 Frc consts  --      0.0053                 0.0042                 0.0218
 IR Inten    --      6.7355                 0.0151                 1.6841

                      4                      5                      6
                      A                      A                      A
 Frequencies --    125.2313               164.3398               212.7544
 Red. masses --      4.4085                 6.1814                 4.3566
 Frc consts  --      0.0407                 0.0984                 0.1162
 IR Inten    --      0.0000                 0.4766                 3.2437

                      7                      8                      9
                      A                      A                      A
 Frequencies --    233.9313               236.0642               251.8132
 Red. masses --      1.0737                 1.3062                 2.5693
 Frc consts  --      0.0346                 0.0429                 0.0960
 IR Inten    --      0.0016                 0.2084                 0.2729

                     10                     11                     12
                      A                      A                      A
 Frequencies --    317.9946               323.5062               331.9905
 Red. masses --      3.6015                 3.1679                 5.4448
 Frc consts  --      0.2146                 0.1953                 0.3536
 IR Inten    --      0.8707                 0.0000                 0.5155

                     13                     14                     15
                      A                      A                      A
 Frequencies --    360.1754               393.9501               406.4942
 Red. masses --      7.2202                 7.1498                 6.0697
 Frc consts  --      0.5519                 0.6538                 0.5909
 IR Inten    --      0.8496                 1.0399                 9.2574

                     16                     17                     18
                      A                      A                      A
 Frequencies --    415.0370               437.3180               468.3058
 Red. masses --      6.0970                 3.3246                 5.7612
 Frc consts  --      0.6188                 0.3746                 0.7444
 IR Inten    --      0.0001                 0.3007                 0.1606

                     19                     20                     21
                      A                      A                      A
 Frequencies --    478.4451               504.2150               509.2438
 Red. masses --      3.9599                 4.0014                 7.7915
 Frc consts  --      0.5341                 0.5994                 1.1905
 IR Inten    --      0.2034                 0.0000                 0.1499

                     22                     23                     24
                      A                      A                      A
 Frequencies --    562.4647               598.0916               643.2773
 Red. masses --      3.6198                 5.1011                 4.4136
 Frc consts  --      0.6747                 1.0751                 1.0761
 IR Inten    --     20.0130                15.1295                 0.0000

                     25                     26                     27
                      A                      A                      A
 Frequencies --    660.0212               705.7373               719.8380
 Red. masses --      6.5201                 6.4065                 2.0692
 Frc consts  --      1.6735                 1.8800                 0.6317
 IR Inten    --      3.7171                 0.5201                47.5659

                     28                     29                     30
                      A                      A                      A
 Frequencies --    739.1515               755.3598               784.2384
 Red. masses --      4.9800                 5.6700                 2.0733
 Frc consts  --      1.6030                 1.9061                 0.7513
 IR Inten    --      0.0001                 3.0935                11.3699

                     31                     32                     33
                      A                      A                      A
 Frequencies --    801.7030               811.2913               854.8638
 Red. masses --      1.2732                 4.6547                 6.4547
 Frc consts  --      0.4821                 1.8051                 2.7792
 IR Inten    --     32.6928                 0.0000                20.3346

                     34                     35                     36
                      A                      A                      A
 Frequencies --    868.4659               879.6914               906.9595
 Red. masses --      1.5403                 6.3003                 1.3196
 Frc consts  --      0.6845                 2.8726                 0.6395
 IR Inten    --      0.0000                 4.9139                 0.0000

                     37                     38                     39
                      A                      A                      A
 Frequencies --    945.2624               983.3283               984.0013
 Red. masses --      6.1812                 1.3619                 1.2614
 Frc consts  --      3.2541                 0.7759                 0.7196
 IR Inten    --      3.5720                 2.6336                 0.0043

                     40                     41                     42
                      A                      A                      A
 Frequencies --    985.2079              1034.5321              1045.0204
 Red. masses --      1.8109                 2.1163                 1.4103
 Frc consts  --      1.0356                 1.3345                 0.9074
 IR Inten    --      2.2441                27.2022                 0.6073

                     43                     44                     45
                      A                      A                      A
 Frequencies --   1052.4132              1054.8000              1081.2266
 Red. masses --      1.5205                 1.5283                 2.5432
 Frc consts  --      0.9922                 1.0018                 1.7517
 IR Inten    --      0.0044                 2.9471                 5.9187

                     46                     47                     48
                      A                      A                      A
 Frequencies --   1111.1245              1141.7133              1178.4464
 Red. masses --      2.0497                 1.5066                 1.6279
 Frc consts  --      1.4909                 1.1571                 1.3319
 IR Inten    --     12.4114                42.6357                29.1378

                     49                     50                     51
                      A                      A                      A
 Frequencies --   1198.8018              1218.5991              1223.8935
 Red. masses --      2.5806                 3.2489                 2.6959
 Frc consts  --      2.1851                 2.8425                 2.3793
 IR Inten    --      5.2393                10.0483                22.0164

                     52                     53                     54
                      A                      A                      A
 Frequencies --   1242.7244              1260.9231              1310.4155
 Red. masses --      2.1575                 2.0437                 9.2959
 Frc consts  --      1.9631                 1.9144                 9.4050
 IR Inten    --     51.1053                14.7832                 8.8577

                     55                     56                     57
                      A                      A                      A
 Frequencies --   1347.6160              1370.9930              1373.2086
 Red. masses --      2.6403                 4.6035                 4.5188
 Frc consts  --      2.8251                 5.0981                 5.0205
 IR Inten    --      1.2975                 0.0118                22.0280

                     58                     59                     60
                      A                      A                      A
 Frequencies --   1408.7157              1415.6535              1416.5457
 Red. masses --      2.5752                 1.2305                 1.4019
 Frc consts  --      3.0110                 1.4529                 1.6574
 IR Inten    --    346.8369                 0.1809                15.2053

                     61                     62                     63
                      A                      A                      A
 Frequencies --   1463.9207              1464.2567              1467.8157
 Red. masses --      1.0468                 1.0465                 1.3602
 Frc consts  --      1.3217                 1.3220                 1.7267
 IR Inten    --      0.2369                 8.9099                42.9612

                     64                     65                     66
                      A                      A                      A
 Frequencies --   1478.2873              1480.4580              1486.8377
 Red. masses --      1.7653                 2.3343                 1.4253
 Frc consts  --      2.2729                 3.0144                 1.8565
 IR Inten    --     46.4783                 0.6850                 0.3920

                     67                     68                     69
                      A                      A                      A
 Frequencies --   1530.4831              1534.9919              1575.4845
 Red. masses --      4.7466                 6.7188                 6.1856
 Frc consts  --      6.5508                 9.3272                 9.0460
 IR Inten    --    502.7941                 0.4456               119.8411

                     70                     71                     72
                      A                      A                      A
 Frequencies --   1599.3459              1621.0762              1625.1832
 Red. masses --      4.5461                 8.3021                 5.9853
 Frc consts  --      6.8514                12.8543                 9.3140
 IR Inten    --      3.6161                 0.0682                 8.7686

                     73                     74                     75
                      A                      A                      A
 Frequencies --   3008.5579              3009.1853              3085.2357
 Red. masses --      1.0462                 1.0461                 1.0895
 Frc consts  --      5.5794                 5.5811                 6.1104
 IR Inten    --    102.5531               111.7355                 1.2301

                     76                     77                     78
                      A                      A                      A
 Frequencies --   3085.4364              3095.5869              3095.7236
 Red. masses --      1.0896                 1.0991                 1.0991
 Frc consts  --      6.1114                 6.2053                 6.2058
 IR Inten    --     31.0164                 0.2395                31.7088

                     79                     80                     81
                      A                      A                      A
 Frequencies --   3124.9271              3132.0889              3146.0752
 Red. masses --      1.0850                 1.0847                 1.0930
 Frc consts  --      6.2423                 6.2694                 6.3741
 IR Inten    --     33.9417                18.6270                80.9577

                     82                     83                     84
                      A                      A                      A
 Frequencies --   3151.6001              3185.2484              3187.5389
 Red. masses --      1.0915                 1.0911                 1.0924
 Frc consts  --      6.3874                 6.5223                 6.5397
 IR Inten    --     53.7706                 9.2394                30.2452

 - Thermochemistry -
 -------------------
 Temperature   298.150 Kelvin.  Pressure   1.00000 Atm.
 Atom     1 has atomic number  6 and mass  12.00000

 Molecular mass:   236.08373 amu.
 Principal axes and moments of inertia in atomic units:
                           1         2         3
     Eigenvalues --  2612.509844694.633077285.45749
           X            0.94000   0.34007  -0.02742
           Y           -0.33954   0.94033   0.02234
           Z            0.03338  -0.01168   0.99937
 This molecule is an asymmetric top.
 Rotational symmetry number  1.
 Warning -- assumption of classical behavior for rotation
           may cause significant error
 Rotational temperatures (Kelvin)      0.03315     0.01845     0.01189
 Rotational constants (GHZ):           0.69081     0.38443     0.24772
 Zero-point vibrational energy     608112.0 (Joules/Mol)
                                  145.34226 (Kcal/Mol)
 Warning -- explicit consideration of  23 degrees of freedom as
           vibrations may cause significant error
 Vibrational temperatures:     53.16    58.46   155.88   180.18   236.45
          (Kelvin)            306.11   336.57   339.64   362.30   457.52
                              465.45   477.66   518.21   566.81   584.85
                              597.15   629.20   673.79   688.38   725.45
                              732.69   809.26   860.52   925.53   949.62
                             1015.40  1035.69  1063.47  1086.79  1128.34
                             1153.47  1167.27  1229.96  1249.53  1265.68
                             1304.91  1360.02  1414.79  1415.76  1417.49
                             1488.46  1503.55  1514.19  1517.62  1555.64
                             1598.66  1642.67  1695.52  1724.81  1753.29
                             1760.91  1788.00  1814.19  1885.40  1938.92
                             1972.55  1975.74  2026.83  2036.81  2038.09
                             2106.26  2106.74  2111.86  2126.93  2130.05
                             2139.23  2202.02  2208.51  2266.77  2301.10
                             2332.37  2338.28  4328.64  4329.55  4438.97
                             4439.25  4453.86  4454.06  4496.07  4506.38
                             4526.50  4534.45  4582.86  4586.16

 Zero-point correction=                           0.231618 (Hartree/Particle)
 Thermal correction to Energy=                    0.245921
 Thermal correction to Enthalpy=                  0.246865
 Thermal correction to Gibbs Free Energy=         0.189741
 Sum of electronic and zero-point Energies=           -767.428704
 Sum of electronic and thermal Energies=              -767.414400
 Sum of electronic and thermal Enthalpies=            -767.413456
 Sum of electronic and thermal Free Energies=         -767.470581

                     E (Thermal)             CV                S
                      KCal/Mol        Cal/Mol-Kelvin    Cal/Mol-Kelvin
 Total                  154.318             57.850            120.229
 Electronic               0.000              0.000              1.377
 Translational            0.889              2.981             42.279
 Rotational               0.889              2.981             32.857
 Vibrational            152.540             51.888             43.715
 Vibration     1          0.594              1.982              5.416
 Vibration     2          0.594              1.981              5.228
 Vibration     3          0.606              1.943              3.298
 Vibration     4          0.610              1.928              3.018
 Vibration     5          0.623              1.886              2.499
 Vibration     6          0.644              1.821              2.020
 Vibration     7          0.654              1.789              1.849
 Vibration     8          0.655              1.786              1.832
 Vibration     9          0.664              1.760              1.718
 Vibration    10          0.704              1.639              1.320
 Vibration    11          0.708              1.628              1.292
 Vibration    12          0.714              1.612              1.250
 Vibration    13          0.735              1.554              1.121
 Vibration    14          0.761              1.483              0.985
 Vibration    15          0.771              1.456              0.939
 Vibration    16          0.778              1.438              0.909
 Vibration    17          0.798              1.389              0.835
 Vibration    18          0.825              1.320              0.742
 Vibration    19          0.835              1.298              0.714
 Vibration    20          0.859              1.241              0.648
 Vibration    21          0.864              1.230              0.635
 Vibration    22          0.918              1.112              0.519
 Vibration    23          0.956              1.036              0.453

                           ! Non-Optimized Parameters !
 Normal termination of Gaussian 16 at Wed Dec 27 21:54:23 2023.
