 Q-Chem 5.4, Q-Chem, Inc., Pleasanton, CA (2021)
 Q-Chem 5.4.0 for Intel X86 EM64T Linux

User input:
--------------------------------------------------------------
$molecule
-1 2
C                  2.6102860000     -0.1804260000      0.7131090000
O                  1.8268020000      0.2338050000     -0.4042370000
C                  0.4531340000      0.1449460000     -0.2486360000
C                 -0.2889790000      1.2693750000     -0.4989140000
C                 -1.7359510000      1.2852590000     -0.4404910000
O                 -2.4119600000      2.3284180000     -0.6722590000
C                 -2.3504180000      0.0214710000     -0.0853050000
C                 -1.6079240000     -1.1029630000      0.1627650000
C                 -0.1648530000     -1.1380810000      0.0820960000
O                  0.5033140000     -2.1983510000      0.2693680000
H                  2.4066900000     -1.2215860000      0.9681150000
H                  3.6543230000     -0.0580000000      0.4143260000
H                  2.4100970000      0.4636700000      1.5812280000
H                  0.2165480000      2.1937530000     -0.7594060000
H                 -3.4352150000      0.0039900000     -0.0265590000
H                 -2.0858950000     -2.0452810000      0.4173600000
$end
$rem
MAX_SCF_CYCLES=200
BASIS  =  6-311++G(d,p)
GUI  =  2
JOB_TYPE  =  SP
METHOD  =  B3LYP
SOLVENT_METHOD = PCM
$end
$pcm
theory = CPCM
$end
$solvent
dielectric 37.219
opticaldielectric 1.43
$end

--------------------------------------------------------------

             Standard Nuclear Orientation (Angstroms)
    I     Atom           X                Y                Z
 ----------------------------------------------------------------
    1      C       2.6102860000    -0.1804260000     0.7131090000
    2      O       1.8268020000     0.2338050000    -0.4042370000
    3      C       0.4531340000     0.1449460000    -0.2486360000
    4      C      -0.2889790000     1.2693750000    -0.4989140000
    5      C      -1.7359510000     1.2852590000    -0.4404910000
    6      O      -2.4119600000     2.3284180000    -0.6722590000
    7      C      -2.3504180000     0.0214710000    -0.0853050000
    8      C      -1.6079240000    -1.1029630000     0.1627650000
    9      C      -0.1648530000    -1.1380810000     0.0820960000
   10      O       0.5033140000    -2.1983510000     0.2693680000
   11      H       2.4066900000    -1.2215860000     0.9681150000
   12      H       3.6543230000    -0.0580000000     0.4143260000
   13      H       2.4100970000     0.4636700000     1.5812280000
   14      H       0.2165480000     2.1937530000    -0.7594060000
   15      H      -3.4352150000     0.0039900000    -0.0265590000
   16      H      -2.0858950000    -2.0452810000     0.4173600000
 ----------------------------------------------------------------

    9    -496.2824452525      7.41e-06  Convergence criterion met
 Total energy in the final basis set =     -496.2824452525

                    Orbital Energies (a.u.)
 --------------------------------------------------------------

 Alpha MOs
 -- Occupied --
-19.1402 -19.0826 -19.0805 -10.2251 -10.2244 -10.2233 -10.2037 -10.1658
-10.1641 -10.1598  -1.0533  -1.0010  -0.9991  -0.8233  -0.7501  -0.6950
 -0.6706  -0.6011  -0.5674  -0.4958  -0.4883  -0.4670  -0.4575  -0.4347
 -0.4243  -0.4092  -0.4042  -0.3839  -0.3774  -0.3674  -0.3493  -0.3012
 -0.2821  -0.2493  -0.2445  -0.2379  -0.1664

 Beta MOs
 -- Occupied --
-19.1399 -19.0755 -19.0739 -10.2233 -10.2230 -10.2221 -10.2037 -10.1649
-10.1626 -10.1592  -1.0520  -0.9894  -0.9869  -0.8172  -0.7477  -0.6896
 -0.6637  -0.5970  -0.5639  -0.4938  -0.4856  -0.4629  -0.4543  -0.4329
 -0.4217  -0.4034  -0.3875  -0.3786  -0.3655  -0.3492  -0.3459  -0.2968
 -0.2523  -0.2415  -0.2381  -0.2316

          Ground-State Mulliken Net Atomic Charges

     Atom                 Charge (a.u.)    Spin (a.u.)
  --------------------------------------------------------
      1 C                    -0.303876       0.005778
      2 O                    -0.237848       0.001988
      3 C                    -0.330131       0.114568
      4 C                     0.537432       0.010264
      5 C                    -0.537937       0.130194
      6 O                    -0.532485       0.229981
      7 C                     0.103973       0.105477
      8 C                    -0.063255       0.079575
      9 C                    -0.217645       0.087573
     10 O                    -0.518563       0.254492
     11 H                     0.176999      -0.001134
     12 H                     0.155726       0.000450
     13 H                     0.143020       0.000399
     14 H                     0.219319      -0.005480
     15 H                     0.199855      -0.007954
     16 H                     0.205417      -0.006172
  --------------------------------------------------------
  Sum of atomic charges =    -1.000000

                    Cartesian Multipole Moments
 -----------------------------------------------------------------
    Charge (ESU x 10^10)
                -4.8032
    Dipole Moment (Debye)
         X       4.5212      Y      -1.3331      Z       2.6859
       Tot       5.4252
    Quadrupole Moments (Debye-Ang)
        XX     -73.7654     XY      19.0668     YY     -89.1917
        XZ      -1.4782     YZ       5.4910     ZZ     -63.6976

 Total job time:  13.82s(wall), 104.96s(cpu)
        *  Thank you very much for using Q-Chem.  Have a nice day.  *
