 Gaussian 16, Revision A.03,
 Gaussian 16:  ES64L-G16RevA.03 25-Dec-2016

 --------------------------------------
 #P UB3LYP/6-311++G(d,p) nosym opt freq
 --------------------------------------

 --------
 Oxidized
 --------
 Symbolic Z-matrix:
 Charge =  0 Multiplicity = 1

 SCF Done:  E(UB3LYP) =  -617.484549759     A.U. after   16 cycles
 SCF Done:  E(UB3LYP) =  -617.508943051     A.U. after   15 cycles
 SCF Done:  E(UB3LYP) =  -617.514396150     A.U. after   14 cycles
 SCF Done:  E(UB3LYP) =  -617.516303956     A.U. after   13 cycles
 SCF Done:  E(UB3LYP) =  -617.517056873     A.U. after   14 cycles
 SCF Done:  E(UB3LYP) =  -617.517843221     A.U. after   12 cycles
 SCF Done:  E(UB3LYP) =  -617.518009463     A.U. after   12 cycles
 SCF Done:  E(UB3LYP) =  -617.518043047     A.U. after   12 cycles
 SCF Done:  E(UB3LYP) =  -617.518099121     A.U. after   11 cycles
 SCF Done:  E(UB3LYP) =  -617.518103294     A.U. after   11 cycles
 SCF Done:  E(UB3LYP) =  -617.518103815     A.U. after   10 cycles
 SCF Done:  E(UB3LYP) =  -617.518103932     A.U. after    9 cycles
 Optimization completed.
    -- Stationary point found.
 Normal termination of Gaussian 16 at Sun Dec 17 22:14:22 2023.

 ----------------------------------------------------------------------
 #P Geom=AllCheck Guess=TCheck SCRF=Check GenChk UB3LYP/6-311++G(d,p) F
 req
 ----------------------------------------------------------------------

 Structure from the checkpoint file:  "047.chk"
 --------
 Oxidized
 --------
 Charge =  0 Multiplicity = 1

                          Input orientation:
 ---------------------------------------------------------------------
 Center     Atomic      Atomic             Coordinates (Angstroms)
 Number     Number       Type             X           Y           Z
 ---------------------------------------------------------------------
      1          6           0        2.658734    1.408097    0.904367
      2          6           0        2.385405    0.520181   -0.330302
      3          6           0        3.653373   -0.228896   -0.756473
      4          6           0        1.202078   -0.387291   -0.067213
      5          6           0        1.296688   -1.688932    0.254812
      6          6           0        0.110919   -2.519830    0.544259
      7          8           0        0.222373   -3.701534    0.841027
      8          6           0       -1.215588   -1.874568    0.468628
      9          6           0       -1.380358   -0.580991    0.139166
     10          6           0       -2.758364    0.050252    0.064979
     11          6           0       -2.937766    1.196146    1.080373
     12          6           0       -3.124643    0.497620   -1.364328
     13          6           0       -0.162460    0.242944   -0.171079
     14          8           0       -0.268842    1.409270   -0.515763
     15          1           0        3.471197    2.107359    0.688999
     16          1           0        2.955383    0.796734    1.761967
     17          1           0        1.778528    1.990887    1.180111
     18          1           0        2.085425    1.188712   -1.143233
     19          1           0        4.432639    0.488629   -1.025376
     20          1           0        3.472840   -0.869895   -1.623346
     21          1           0        4.051637   -0.851428    0.050389
     22          1           0        2.247875   -2.203871    0.325333
     23          1           0       -2.060052   -2.517760    0.696160
     24          1           0       -3.457722   -0.745402    0.345685
     25          1           0       -2.303184    2.047515    0.832123
     26          1           0       -3.978735    1.531451    1.075105
     27          1           0       -2.698109    0.867258    2.095356
     28          1           0       -4.166302    0.830075   -1.389017
     29          1           0       -3.019700   -0.326051   -2.075799
     30          1           0       -2.493269    1.323317   -1.693766
 ---------------------------------------------------------------------

 SCF Done:  E(UB3LYP) =  -617.518103932     A.U. after    1 cycles

 Alpha  occ. eigenvalues --  -19.14086 -19.13181 -10.28715 -10.27729 -10.21852
 Alpha  occ. eigenvalues --  -10.21800 -10.20476 -10.20348 -10.19866 -10.19692
 Alpha  occ. eigenvalues --  -10.17291 -10.17150 -10.16716 -10.16680  -1.07337
 Alpha  occ. eigenvalues --   -1.06028  -0.87174  -0.84065  -0.79806  -0.76178
 Alpha  occ. eigenvalues --   -0.70608  -0.69695  -0.69450  -0.65172  -0.62973
 Alpha  occ. eigenvalues --   -0.57820  -0.56965  -0.53046  -0.50538  -0.48009
 Alpha  occ. eigenvalues --   -0.47445  -0.45898  -0.45522  -0.44797  -0.44528
 Alpha  occ. eigenvalues --   -0.43008  -0.42079  -0.41921  -0.41855  -0.40846
 Alpha  occ. eigenvalues --   -0.39645  -0.38889  -0.36936  -0.36392  -0.36087
 Alpha  occ. eigenvalues --   -0.35743  -0.35058  -0.34844  -0.30217  -0.28861
 Alpha  occ. eigenvalues --   -0.28290  -0.27068
 Alpha virt. eigenvalues --   -0.13118  -0.02853  -0.01341  -0.00700  -0.00425
 Alpha virt. eigenvalues --    0.00856   0.01054   0.01552   0.01851   0.02029
 Alpha virt. eigenvalues --    0.03676   0.03769   0.03930   0.04501   0.04893

  Beta  occ. eigenvalues --  -19.14086 -19.13181 -10.28715 -10.27729 -10.21852
  Beta  occ. eigenvalues --  -10.21800 -10.20476 -10.20348 -10.19866 -10.19692
  Beta  occ. eigenvalues --  -10.17291 -10.17150 -10.16716 -10.16680  -1.07337
  Beta  occ. eigenvalues --   -1.06028  -0.87174  -0.84065  -0.79806  -0.76178
  Beta  occ. eigenvalues --   -0.70608  -0.69695  -0.69450  -0.65172  -0.62973
  Beta  occ. eigenvalues --   -0.57820  -0.56965  -0.53046  -0.50538  -0.48009
  Beta  occ. eigenvalues --   -0.47445  -0.45898  -0.45522  -0.44797  -0.44528
  Beta  occ. eigenvalues --   -0.43008  -0.42079  -0.41921  -0.41855  -0.40846
  Beta  occ. eigenvalues --   -0.39645  -0.38889  -0.36936  -0.36392  -0.36087
  Beta  occ. eigenvalues --   -0.35743  -0.35058  -0.34844  -0.30217  -0.28861
  Beta  occ. eigenvalues --   -0.28290  -0.27068
  Beta virt. eigenvalues --   -0.13118  -0.02853  -0.01341  -0.00700  -0.00425
  Beta virt. eigenvalues --    0.00856   0.01054   0.01552   0.01851   0.02029
  Beta virt. eigenvalues --    0.03676   0.03769   0.03930   0.04501   0.04893

 Mulliken charges and spin densities:
               1          2
     1  C   -0.686468  -0.000000
     2  C    0.128844  -0.000000
     3  C   -0.502895   0.000000
     4  C    1.127734   0.000000
     5  C   -0.126325   0.000000
     6  C   -0.500624  -0.000000
     7  O   -0.231457   0.000000
     8  C   -0.372332  -0.000000
     9  C    0.894672   0.000000
    10  C    0.245255  -0.000000
    11  C   -0.659054   0.000000
    12  C   -0.647930   0.000000
    13  C   -1.174988  -0.000000
    14  O   -0.182586   0.000000
    15  H    0.144487  -0.000000
    16  H    0.147504  -0.000000
    17  H    0.181403   0.000000
    18  H    0.220596   0.000000
    19  H    0.169239  -0.000000
    20  H    0.137744  -0.000000
    21  H    0.137097   0.000000
    22  H    0.212633  -0.000000
    23  H    0.213234  -0.000000
    24  H    0.178746   0.000000
    25  H    0.191642   0.000000
    26  H    0.149662  -0.000000
    27  H    0.128765  -0.000000
    28  H    0.150030  -0.000000
    29  H    0.128908  -0.000000
    30  H    0.196463   0.000000
 Sum of Mulliken charges =  -0.00000  -0.00000

 Dipole moment (field-independent basis, Debye):
    X=             -0.0483    Y=              1.6429    Z=             -0.2832  Tot=              1.6678
 Quadrupole moment (field-independent basis, Debye-Ang):
   XX=            -75.5502   YY=           -103.6763   ZZ=            -86.7885
   XY=              2.5908   XZ=             -1.2781   YZ=              4.5221

  Exact polarizability: 159.472  -5.928 177.410  -0.082 -13.428 110.840
 Approx polarizability: 195.184 -14.359 337.224   2.562 -44.765 169.188

                      1                      2                      3
                      A                      A                      A
 Frequencies --     36.1020                56.5031                74.0368
 Red. masses --      3.5150                 2.6472                 4.2168
 Frc consts  --      0.0027                 0.0050                 0.0136
 IR Inten    --      2.0079                 0.7639                 0.1411

                      4                      5                      6
                      A                      A                      A
 Frequencies --    121.9050               137.5557               148.1076
 Red. masses --      5.0731                 3.1042                 3.1872
 Frc consts  --      0.0444                 0.0346                 0.0412
 IR Inten    --      5.5146                 1.3654                 0.2636

                      7                      8                      9
                      A                      A                      A
 Frequencies --    211.3101               217.5125               233.3499
 Red. masses --      2.2824                 1.5915                 1.4218
 Frc consts  --      0.0600                 0.0444                 0.0456
 IR Inten    --      0.0663                 0.8541                 0.0409

                     10                     11                     12
                      A                      A                      A
 Frequencies --    238.9852               241.5533               266.2582
 Red. masses --      1.1535                 1.5933                 1.7569
 Frc consts  --      0.0388                 0.0548                 0.0734
 IR Inten    --      0.1137                 0.0628                 0.1345

                     13                     14                     15
                      A                      A                      A
 Frequencies --    268.5986               276.8471               306.7761
 Red. masses --      1.5463                 2.5957                 3.5007
 Frc consts  --      0.0657                 0.1172                 0.1941
 IR Inten    --      0.0788                 0.2532                 2.1295

                     16                     17                     18
                      A                      A                      A
 Frequencies --    405.9072               416.6361               430.0175
 Red. masses --      3.3500                 3.7896                 3.3180
 Frc consts  --      0.3252                 0.3876                 0.3615
 IR Inten    --      1.5479                16.4176                 2.0587

                     19                     20                     21
                      A                      A                      A
 Frequencies --    446.8978               463.1385               494.2018
 Red. masses --      4.3871                 5.4684                 3.5159
 Frc consts  --      0.5162                 0.6911                 0.5059
 IR Inten    --      8.2764                 0.0220                 1.1721

                     22                     23                     24
                      A                      A                      A
 Frequencies --    545.5220               590.5314               680.0876
 Red. masses --      4.2431                 3.5899                 3.6106
 Frc consts  --      0.7440                 0.7376                 0.9839
 IR Inten    --      0.5145                 0.2164                 0.4518

                     25                     26                     27
                      A                      A                      A
 Frequencies --    696.5698               786.4085               811.3994
 Red. masses --      3.8278                 5.7087                 3.4017
 Frc consts  --      1.0943                 2.0801                 1.3195
 IR Inten    --      2.1859                 1.1972                11.6720

                     28                     29                     30
                      A                      A                      A
 Frequencies --    830.0507               855.5082               898.8417
 Red. masses --      7.8493                 3.0844                 1.3791
 Frc consts  --      3.1863                 1.3301                 0.6564
 IR Inten    --      5.2626                 0.8222                 1.6122

                     31                     32                     33
                      A                      A                      A
 Frequencies --    926.3523               932.0190               936.6402
 Red. masses --      2.4784                 1.6591                 1.2499
 Frc consts  --      1.2531                 0.8491                 0.6461
 IR Inten    --     22.1471                 2.2281                 3.5949

                     34                     35                     36
                      A                      A                      A
 Frequencies --    939.6197               945.2063               966.9681
 Red. masses --      1.5558                 1.4447                 1.5401
 Frc consts  --      0.8093                 0.7605                 0.8484
 IR Inten    --     10.6581                37.1180                 0.0806

                     37                     38                     39
                      A                      A                      A
 Frequencies --    969.6587              1062.9010              1108.5481
 Red. masses --      1.4832                 2.0504                 1.6454
 Frc consts  --      0.8216                 1.3648                 1.1913
 IR Inten    --      1.0474                41.2773                 0.5428

                     40                     41                     42
                      A                      A                      A
 Frequencies --   1114.4912              1123.4558              1159.9212
 Red. masses --      2.3451                 2.1357                 2.0282
 Frc consts  --      1.7162                 1.5882                 1.6078
 IR Inten    --      0.7392                 3.2775                 4.1153

                     43                     44                     45
                      A                      A                      A
 Frequencies --   1176.4154              1209.4069              1220.9593
 Red. masses --      1.9413                 1.9902                 1.7644
 Frc consts  --      1.5830                 1.7151                 1.5497
 IR Inten    --     12.0771                14.4385                11.1882

                     46                     47                     48
                      A                      A                      A
 Frequencies --   1297.8721              1305.1397              1327.3129
 Red. masses --      2.5893                 2.1558                 1.3507
 Frc consts  --      2.5697                 2.1636                 1.4020
 IR Inten    --     93.6838                51.1039                 2.5913

                     49                     50                     51
                      A                      A                      A
 Frequencies --   1336.0072              1342.5727              1387.3411
 Red. masses --      2.2782                 1.3129                 1.3937
 Frc consts  --      2.3958                 1.3943                 1.5804
 IR Inten    --     20.3631                 1.2789                 5.4358

                     52                     53                     54
                      A                      A                      A
 Frequencies --   1393.8465              1394.5297              1403.9960
 Red. masses --      1.2152                 1.3635                 1.4889
 Frc consts  --      1.3910                 1.5623                 1.7293
 IR Inten    --      5.3609                 5.3372                 8.8555

                     55                     56                     57
                      A                      A                      A
 Frequencies --   1416.1686              1420.7549              1487.5203
 Red. masses --      1.2578                 1.2263                 1.0400
 Frc consts  --      1.4862                 1.4584                 1.3559
 IR Inten    --      8.6278                 5.1697                 1.5419

                     58                     59                     60
                      A                      A                      A
 Frequencies --   1489.4882              1493.4442              1500.6735
 Red. masses --      1.0459                 1.0499                 1.0480
 Frc consts  --      1.3672                 1.3797                 1.3906
 IR Inten    --      1.3420                 4.6921                 1.1647

                     61                     62                     63
                      A                      A                      A
 Frequencies --   1501.9559              1508.7759              1513.3129
 Red. masses --      1.0438                 1.0431                 1.0573
 Frc consts  --      1.3874                 1.3990                 1.4266
 IR Inten    --     18.2653                11.0298                 9.7038

                     64                     65                     66
                      A                      A                      A
 Frequencies --   1518.7000              1648.8982              1682.5880
 Red. masses --      1.0582                 8.1426                10.0316
 Frc consts  --      1.4380                13.0437                16.7331
 IR Inten    --      8.4188                49.9211                 0.9614

                     67                     68                     69
                      A                      A                      A
 Frequencies --   1710.5940              1715.0668              3016.6342
 Red. masses --     12.2199                 8.5524                 1.0829
 Frc consts  --     21.0674                14.8218                 5.8062
 IR Inten    --    328.0013               152.7616                14.3398

                     70                     71                     72
                      A                      A                      A
 Frequencies --   3023.7149              3026.7075              3028.1949
 Red. masses --      1.0355                 1.0390                 1.0363
 Frc consts  --      5.5782                 5.6079                 5.5988
 IR Inten    --     20.1988                26.3593                36.5111

                     73                     74                     75
                      A                      A                      A
 Frequencies --   3031.8100              3042.4433              3084.4273
 Red. masses --      1.0380                 1.0802                 1.1015
 Frc consts  --      5.6215                 5.8909                 6.1745
 IR Inten    --     27.6039                 3.1389                 3.8029

                     76                     77                     78
                      A                      A                      A
 Frequencies --   3085.9442              3088.0949              3091.7163
 Red. masses --      1.1022                 1.1015                 1.1008
 Frc consts  --      6.1840                 6.1891                 6.1994
 IR Inten    --     14.3425                46.9342                44.8065

                     79                     80                     81
                      A                      A                      A
 Frequencies --   3095.3760              3112.2779              3119.4588
 Red. masses --      1.1020                 1.1006                 1.1006
 Frc consts  --      6.2213                 6.2812                 6.3100
 IR Inten    --     32.0183                17.7688                 1.4450

                     82                     83                     84
                      A                      A                      A
 Frequencies --   3123.2168              3166.9937              3185.9324
 Red. masses --      1.0998                 1.0917                 1.0912
 Frc consts  --      6.3208                 6.4513                 6.5257
 IR Inten    --     20.9199                 6.0723                 2.9201

 - Thermochemistry -
 -------------------
 Temperature   298.150 Kelvin.  Pressure   1.00000 Atm.
 Atom     1 has atomic number  6 and mass  12.00000

 Molecular mass:   192.11503 amu.
 Principal axes and moments of inertia in atomic units:
                           1         2         3
     Eigenvalues --  2016.809213433.146864791.21885
           X            0.99581   0.09079   0.01116
           Y           -0.09139   0.98198   0.16541
           Z            0.00406  -0.16574   0.98616
 This molecule is an asymmetric top.
 Rotational symmetry number  1.
 Warning -- assumption of classical behavior for rotation
           may cause significant error
 Rotational temperatures (Kelvin)      0.04295     0.02523     0.01808
 Rotational constants (GHZ):           0.89485     0.52568     0.37668
 Zero-point vibrational energy     664520.7 (Joules/Mol)
                                  158.82426 (Kcal/Mol)
 Warning -- explicit consideration of  23 degrees of freedom as
           vibrations may cause significant error
 Vibrational temperatures:     51.94    81.30   106.52   175.39   197.91
          (Kelvin)            213.09   304.03   312.95   335.74   343.85
                              347.54   383.09   386.45   398.32   441.38
                              584.01   599.45   618.70   642.99   666.35
                              711.05   784.88   849.64   978.49  1002.21
                             1131.47  1167.42  1194.26  1230.89  1293.23
                             1332.81  1340.97  1347.62  1351.90  1359.94
                             1391.25  1395.12  1529.28  1594.95  1603.50
                             1616.40  1668.87  1692.60  1740.07  1756.69
                             1867.35  1877.80  1909.71  1922.22  1931.66
                             1996.07  2005.43  2006.42  2020.04  2037.55
                             2044.15  2140.21  2143.04  2148.73  2159.13
                             2160.98  2170.79  2177.32  2185.07  2372.40
                             2420.87  2461.16  2467.60  4340.26  4350.45
                             4354.76  4356.90  4362.10  4377.40  4437.80
                             4439.99  4443.08  4448.29  4453.56  4477.87
                             4488.21  4493.61  4556.60  4583.85

 Zero-point correction=                           0.253103 (Hartree/Particle)
 Thermal correction to Energy=                    0.267982
 Thermal correction to Enthalpy=                  0.268926
 Thermal correction to Gibbs Free Energy=         0.211465
 Sum of electronic and zero-point Energies=           -617.265001
 Sum of electronic and thermal Energies=              -617.250122
 Sum of electronic and thermal Enthalpies=            -617.249178
 Sum of electronic and thermal Free Energies=         -617.306639

                     E (Thermal)             CV                S
                      KCal/Mol        Cal/Mol-Kelvin    Cal/Mol-Kelvin
 Total                  168.161             55.721            120.938
 Electronic               0.000              0.000              0.000
 Translational            0.889              2.981             41.664
 Rotational               0.889              2.981             31.873
 Vibrational            166.384             49.759             47.401
 Vibration     1          0.594              1.982              5.462
 Vibration     2          0.596              1.975              4.576
 Vibration     3          0.599              1.966              4.043
 Vibration     4          0.609              1.931              3.070
 Vibration     5          0.614              1.916              2.838
 Vibration     6          0.617              1.905              2.696
 Vibration     7          0.643              1.824              2.032
 Vibration     8          0.646              1.814              1.980
 Vibration     9          0.654              1.790              1.853
 Vibration    10          0.657              1.781              1.810
 Vibration    11          0.658              1.777              1.791
 Vibration    12          0.672              1.735              1.620
 Vibration    13          0.673              1.731              1.605
 Vibration    14          0.678              1.716              1.553
 Vibration    15          0.697              1.661              1.380
 Vibration    16          0.771              1.457              0.941
 Vibration    17          0.780              1.434              0.903
 Vibration    18          0.791              1.405              0.859
 Vibration    19          0.806              1.368              0.805
 Vibration    20          0.821              1.332              0.757
 Vibration    21          0.850              1.263              0.673
 Vibration    22          0.901              1.149              0.554
 Vibration    23          0.948              1.052              0.466

 Optimization completed.
    -- Stationary point found.
 Normal termination of Gaussian 16 at Sun Dec 17 23:19:35 2023.
