 Gaussian 16, Revision A.03,
 Gaussian 16:  ES64L-G16RevA.03 25-Dec-2016

 ----------------------------------------------------------------------
 #P UB3LYP/6-311++G(d,p) nosym opt freq SCRF=(PCM,Solvent=n,n-DiMethylF
 ormamide)
 ----------------------------------------------------------------------

 -------
 Reduced
 -------
 Symbolic Z-matrix:
 Charge = -2 Multiplicity = 1

 SCF Done:  E(UB3LYP) =  -799.940231468     A.U. after   17 cycles
 SCF Done:  E(UB3LYP) =  -799.941527471     A.U. after   13 cycles
 SCF Done:  E(UB3LYP) =  -799.941665643     A.U. after   14 cycles
 SCF Done:  E(UB3LYP) =  -799.941979375     A.U. after   13 cycles
 SCF Done:  E(UB3LYP) =  -799.942074214     A.U. after   12 cycles
 SCF Done:  E(UB3LYP) =  -799.942218202     A.U. after   13 cycles
 SCF Done:  E(UB3LYP) =  -799.942293503     A.U. after   13 cycles
 SCF Done:  E(UB3LYP) =  -799.942372995     A.U. after   13 cycles
 SCF Done:  E(UB3LYP) =  -799.942429362     A.U. after   13 cycles
 SCF Done:  E(UB3LYP) =  -799.942532277     A.U. after   12 cycles
 SCF Done:  E(UB3LYP) =  -799.942555767     A.U. after   11 cycles
 SCF Done:  E(UB3LYP) =  -799.942552911     A.U. after   12 cycles
 SCF Done:  E(UB3LYP) =  -799.942565318     A.U. after   11 cycles
 SCF Done:  E(UB3LYP) =  -799.942566939     A.U. after   11 cycles
 SCF Done:  E(UB3LYP) =  -799.942571112     A.U. after   11 cycles
 SCF Done:  E(UB3LYP) =  -799.942574489     A.U. after   12 cycles
 SCF Done:  E(UB3LYP) =  -799.942576446     A.U. after   11 cycles
 SCF Done:  E(UB3LYP) =  -799.942577832     A.U. after   10 cycles
 SCF Done:  E(UB3LYP) =  -799.942578010     A.U. after    9 cycles
 Optimization completed.
    -- Stationary point found.
 Normal termination of Gaussian 16 at Sat Feb 10 20:01:28 2024.

 ----------------------------------------------------------------------
 #P Geom=AllCheck Guess=TCheck SCRF=Check GenChk UB3LYP/6-311++G(d,p) F
 req
 ----------------------------------------------------------------------

 Structure from the checkpoint file:  "165-an.chk"
 -------
 Reduced
 -------
 Charge = -2 Multiplicity = 1

                          Input orientation:
 ---------------------------------------------------------------------
 Center     Atomic      Atomic             Coordinates (Angstroms)
 Number     Number       Type             X           Y           Z
 ---------------------------------------------------------------------
      1          7           0       -4.499431    0.006941    0.155494
      2          6           0       -3.118507   -0.347128    0.201636
      3          6           0       -2.749957   -1.605706    0.741831
      4          6           0       -1.428917   -1.936276    0.911133
      5          6           0       -0.380379   -1.053370    0.530681
      6          6           0        0.982140   -1.478348    0.734455
      7          8           0        1.273593   -2.629502    1.272424
      8          6           0        1.992405   -0.557718    0.303828
      9          6           0        3.370728   -0.879542    0.465220
     10          6           0        4.377380   -0.033909    0.060271
     11          6           0        4.045517    1.212147   -0.547024
     12          6           0        2.725980    1.557765   -0.722237
     13          6           0        1.652089    0.711320   -0.311509
     14          6           0        0.298386    1.129127   -0.519760
     15          8           0        0.038886    2.280592   -1.115572
     16          6           0       -0.728348    0.229059   -0.059277
     17          6           0       -2.135495    0.558495   -0.179467
     18          7           0       -2.510514    1.845550   -0.621707
     19          1           0       -5.096605   -0.811709    0.159453
     20          1           0       -4.757343    0.578626   -0.640247
     21          1           0       -3.534321   -2.299397    1.035206
     22          1           0       -1.148716   -2.892137    1.336352
     23          1           0        3.604722   -1.832849    0.926533
     24          1           0        5.418171   -0.310568    0.199481
     25          1           0        4.834910    1.885086   -0.868865
     26          1           0        2.462827    2.502625   -1.183842
     27          1           0       -1.677437    2.305376   -1.023279
     28          1           0       -3.311761    1.865450   -1.241211
 ---------------------------------------------------------------------

 SCF Done:  E(UB3LYP) =  -799.942578010     A.U. after    1 cycles

 Alpha  occ. eigenvalues --  -19.01954 -19.01615 -14.30332 -14.27817 -10.18007
 Alpha  occ. eigenvalues --  -10.17599 -10.17247 -10.17055 -10.14660 -10.14576
 Alpha  occ. eigenvalues --  -10.14570 -10.14451 -10.14384 -10.14231 -10.13681
 Alpha  occ. eigenvalues --  -10.13390 -10.13296 -10.13225  -0.93294  -0.92603
 Alpha  occ. eigenvalues --   -0.90564  -0.86171  -0.82189  -0.80178  -0.74696
 Alpha  occ. eigenvalues --   -0.72054  -0.70089  -0.69494  -0.63504  -0.60572
 Alpha  occ. eigenvalues --   -0.59102  -0.55753  -0.52871  -0.51746  -0.50501
 Alpha  occ. eigenvalues --   -0.48148  -0.46036  -0.44537  -0.44168  -0.42820
 Alpha  occ. eigenvalues --   -0.42072  -0.40485  -0.39567  -0.38418  -0.37735
 Alpha  occ. eigenvalues --   -0.36883  -0.35861  -0.35490  -0.35255  -0.32903
 Alpha  occ. eigenvalues --   -0.32239  -0.31759  -0.31503  -0.29891  -0.28244
 Alpha  occ. eigenvalues --   -0.27234  -0.22713  -0.22075  -0.20616  -0.20061
 Alpha  occ. eigenvalues --   -0.19369  -0.17761  -0.10403
 Alpha virt. eigenvalues --   -0.02006  -0.00331   0.00449   0.00733   0.01221
 Alpha virt. eigenvalues --    0.02154   0.02354   0.03023   0.04158   0.04372
 Alpha virt. eigenvalues --    0.04878   0.05050   0.06458   0.06592   0.06902

  Beta  occ. eigenvalues --  -19.01954 -19.01615 -14.30332 -14.27817 -10.18007
  Beta  occ. eigenvalues --  -10.17599 -10.17247 -10.17055 -10.14660 -10.14576
  Beta  occ. eigenvalues --  -10.14570 -10.14451 -10.14384 -10.14231 -10.13681
  Beta  occ. eigenvalues --  -10.13390 -10.13296 -10.13225  -0.93294  -0.92603
  Beta  occ. eigenvalues --   -0.90564  -0.86171  -0.82189  -0.80178  -0.74696
  Beta  occ. eigenvalues --   -0.72054  -0.70089  -0.69494  -0.63504  -0.60572
  Beta  occ. eigenvalues --   -0.59102  -0.55753  -0.52871  -0.51746  -0.50501
  Beta  occ. eigenvalues --   -0.48148  -0.46036  -0.44537  -0.44168  -0.42820
  Beta  occ. eigenvalues --   -0.42072  -0.40485  -0.39567  -0.38418  -0.37735
  Beta  occ. eigenvalues --   -0.36883  -0.35861  -0.35490  -0.35255  -0.32903
  Beta  occ. eigenvalues --   -0.32239  -0.31759  -0.31503  -0.29891  -0.28244
  Beta  occ. eigenvalues --   -0.27234  -0.22713  -0.22075  -0.20616  -0.20061
  Beta  occ. eigenvalues --   -0.19369  -0.17761  -0.10403
  Beta virt. eigenvalues --   -0.02006  -0.00331   0.00449   0.00733   0.01221
  Beta virt. eigenvalues --    0.02154   0.02354   0.03023   0.04158   0.04372
  Beta virt. eigenvalues --    0.04878   0.05050   0.06458   0.06592   0.06902

 Mulliken charges and spin densities:
               1          2
     1  N   -0.424733   0.000000
     2  C   -0.363101  -0.000000
     3  C   -0.194867  -0.000000
     4  C   -0.133884   0.000000
     5  C    0.428875   0.000000
     6  C   -0.382915  -0.000000
     7  O   -0.677743   0.000000
     8  C    0.066702   0.000000
     9  C   -0.047655   0.000000
    10  C   -0.486722   0.000000
    11  C   -0.540113  -0.000000
    12  C    0.016123  -0.000000
    13  C    0.160488  -0.000000
    14  C   -0.411624   0.000000
    15  O   -0.658730  -0.000000
    16  C    0.318530  -0.000000
    17  C   -0.108077  -0.000000
    18  N   -0.506411   0.000000
    19  H    0.260115  -0.000000
    20  H    0.245782  -0.000000
    21  H    0.163373  -0.000000
    22  H    0.141245   0.000000
    23  H    0.141595   0.000000
    24  H    0.153581  -0.000000
    25  H    0.153513  -0.000000
    26  H    0.146703   0.000000
    27  H    0.313366   0.000000
    28  H    0.226581   0.000000
 Sum of Mulliken charges =  -2.00000  -0.00000

 Dipole moment (field-independent basis, Debye):
    X=             -7.0465    Y=              1.0694    Z=             -3.6988  Tot=              8.0298
 Quadrupole moment (field-independent basis, Debye-Ang):
   XX=           -132.6503   YY=           -158.6323   ZZ=           -126.4732
   XY=             14.1597   XZ=              6.1301   YZ=             15.1663

  Exact polarizability: 591.343  23.138 362.027 -13.522 -87.683 210.439
 Approx polarizability: 640.477  22.928 425.469 -11.513-110.624 237.394

                      1                      2                      3
                      A                      A                      A
 Frequencies --     41.1881                56.0484               103.1741
 Red. masses --      2.0804                 6.0644                 2.7721
 Frc consts  --      0.0021                 0.0112                 0.0174
 IR Inten    --      4.6197                20.5101                 5.3544

                      4                      5                      6
                      A                      A                      A
 Frequencies --    136.4237               152.5694               187.0135
 Red. masses --      4.7681                 2.1207                 5.2521
 Frc consts  --      0.0523                 0.0291                 0.1082
 IR Inten    --      1.7814                10.2953                 3.9716

                      7                      8                      9
                      A                      A                      A
 Frequencies --    208.2343               272.3723               303.6906
 Red. masses --      4.8715                 4.0052                 5.6310
 Frc consts  --      0.1245                 0.1751                 0.3060
 IR Inten    --     20.2082                11.9220                 4.3503

                     10                     11                     12
                      A                      A                      A
 Frequencies --    311.6592               337.8712               353.4610
 Red. masses --      5.3438                 6.9947                 5.2021
 Frc consts  --      0.3058                 0.4705                 0.3829
 IR Inten    --     14.3451                 5.9528                 9.3075

                     13                     14                     15
                      A                      A                      A
 Frequencies --    381.8013               401.0522               411.7684
 Red. masses --      5.2707                 5.4707                 4.7033
 Frc consts  --      0.4527                 0.5184                 0.4698
 IR Inten    --      9.9703                20.7440                30.9206

                     16                     17                     18
                      A                      A                      A
 Frequencies --    431.7017               447.4483               478.2657
 Red. masses --      1.7089                 2.7627                 4.2117
 Frc consts  --      0.1876                 0.3259                 0.5676
 IR Inten    --    131.7045                38.0007                35.4916

                     19                     20                     21
                      A                      A                      A
 Frequencies --    496.0050               523.8624               561.1130
 Red. masses --      9.5560                 4.1596                 5.3877
 Frc consts  --      1.3852                 0.6726                 0.9994
 IR Inten    --      3.1385                30.2348                27.6148

                     22                     23                     24
                      A                      A                      A
 Frequencies --    568.2802               599.4113               648.1979
 Red. masses --      4.8836                 4.8110                 4.2213
 Frc consts  --      0.9292                 1.0184                 1.0450
 IR Inten    --     21.7742                23.0870                23.4448

                     25                     26                     27
                      A                      A                      A
 Frequencies --    655.4089               682.1245               697.5595
 Red. masses --      5.9695                 6.1311                 2.2697
 Frc consts  --      1.5108                 1.6808                 0.6507
 IR Inten    --      6.4459                 3.3042               104.4532

                     28                     29                     30
                      A                      A                      A
 Frequencies --    724.4045               741.3332               764.0414
 Red. masses --      2.7338                 3.5786                 1.7869
 Frc consts  --      0.8452                 1.1587                 0.6146
 IR Inten    --    233.6444               297.7343                14.9553

                     31                     32                     33
                      A                      A                      A
 Frequencies --    772.1998               790.4671               805.6688
 Red. masses --      2.2847                 2.6518                 2.7964
 Frc consts  --      0.8027                 0.9762                 1.0695
 IR Inten    --     33.6096               237.1321                82.3618

                     34                     35                     36
                      A                      A                      A
 Frequencies --    812.6179               846.7229               887.5998
 Red. masses --      3.9778                 1.7439                 1.8577
 Frc consts  --      1.5476                 0.7366                 0.8623
 IR Inten    --     75.8295                 0.7981               395.0387

                     37                     38                     39
                      A                      A                      A
 Frequencies --    903.5046               945.6038               971.3499
 Red. masses --      3.0538                 1.2589                 1.3396
 Frc consts  --      1.4688                 0.6632                 0.7447
 IR Inten    --     27.2165                 2.0469                 2.7931

                     40                     41                     42
                      A                      A                      A
 Frequencies --    981.5899               986.6910              1008.3373
 Red. masses --      1.2681                 3.0903                 3.1886
 Frc consts  --      0.7199                 1.7726                 1.9101
 IR Inten    --      1.5329                29.0223               281.4896

                     43                     44                     45
                      A                      A                      A
 Frequencies --   1019.8649              1087.3518              1113.9103
 Red. masses --      2.3761                 2.6681                 1.6341
 Frc consts  --      1.4561                 1.8586                 1.1946
 IR Inten    --    169.1212               583.8114               264.3477

                     46                     47                     48
                      A                      A                      A
 Frequencies --   1132.9627              1151.8857              1171.8121
 Red. masses --      1.5971                 1.4748                 1.7776
 Frc consts  --      1.2078                 1.1529                 1.4381
 IR Inten    --    151.3541                60.3693                38.8647

                     49                     50                     51
                      A                      A                      A
 Frequencies --   1182.3998              1214.7520              1248.2429
 Red. masses --      1.6848                 2.4587                 2.5254
 Frc consts  --      1.3878                 2.1376                 2.3184
 IR Inten    --    300.3811               712.3281               467.6613

                     52                     53                     54
                      A                      A                      A
 Frequencies --   1256.4934              1285.9334              1303.0676
 Red. masses --      3.1299                 2.8007                 5.3717
 Frc consts  --      2.9114                 2.7287                 5.3740
 IR Inten    --     56.9270                42.9099                21.8780

                     55                     56                     57
                      A                      A                      A
 Frequencies --   1349.1577              1352.7013              1370.8892
 Red. masses --      4.2143                 6.1484                 1.9686
 Frc consts  --      4.5196                 6.6285                 2.1798
 IR Inten    --   1963.0275               582.3754                13.6464

                     58                     59                     60
                      A                      A                      A
 Frequencies --   1425.3258              1445.4857              1464.7773
 Red. masses --      4.0275                 4.6615                 2.9076
 Frc consts  --      4.8207                 5.7386                 3.6756
 IR Inten    --     52.4486               176.6716               323.2477

                     61                     62                     63
                      A                      A                      A
 Frequencies --   1480.5008              1503.9865              1533.8970
 Red. masses --      3.0534                 4.8140                 5.0605
 Frc consts  --      3.9432                 6.4158                 7.0151
 IR Inten    --     16.4170                82.4727               114.4805

                     64                     65                     66
                      A                      A                      A
 Frequencies --   1582.0146              1603.1142              1608.8085
 Red. masses --      7.3687                 5.0838                 1.4663
 Frc consts  --     10.8658                 7.6978                 2.2361
 IR Inten    --     43.9788                20.9642               234.8053

                     67                     68                     69
                      A                      A                      A
 Frequencies --   1637.9388              1656.0845              3130.4488
 Red. masses --      2.8993                 1.1305                 1.0880
 Frc consts  --      4.5830                 1.8268                 6.2821
 IR Inten    --    123.6120                85.0779                77.1953

                     70                     71                     72
                      A                      A                      A
 Frequencies --   3136.2978              3151.6913              3165.7658
 Red. masses --      1.0845                 1.0889                 1.0717
 Frc consts  --      6.2852                 6.3726                 6.3282
 IR Inten    --     26.7093                40.4298               583.8671

                     73                     74                     75
                      A                      A                      A
 Frequencies --   3169.1921              3177.4671              3183.8234
 Red. masses --      1.0921                 1.0924                 1.0907
 Frc consts  --      6.4629                 6.4980                 6.5141
 IR Inten    --     37.8987                80.3624                36.9023

                     76                     77                     78
                      A                      A                      A
 Frequencies --   3516.5067              3552.4811              3599.9872
 Red. masses --      1.0502                 1.0785                 1.0952
 Frc consts  --      7.6516                 8.0195                 8.3624
 IR Inten    --      2.6125                 6.8975                13.5007

 - Thermochemistry -
 -------------------
 Temperature   298.150 Kelvin.  Pressure   1.00000 Atm.
 Atom     1 has atomic number  7 and mass  14.00307

 Molecular mass:   238.07423 amu.
 Principal axes and moments of inertia in atomic units:
                           1         2         3
     Eigenvalues --  2082.626545667.928887742.67875
           X            0.99877  -0.04928   0.00594
           Y            0.04219   0.90580   0.42159
           Z           -0.02616  -0.42082   0.90676
 This molecule is an asymmetric top.
 Rotational symmetry number  1.
 Warning -- assumption of classical behavior for rotation
           may cause significant error
 Rotational temperatures (Kelvin)      0.04159     0.01528     0.01119
 Rotational constants (GHZ):           0.86657     0.31841     0.23309
 Zero-point vibrational energy     546435.4 (Joules/Mol)
                                  130.60119 (Kcal/Mol)
 Warning -- explicit consideration of  23 degrees of freedom as
           vibrations may cause significant error
 Vibrational temperatures:     59.26    80.64   148.44   196.28   219.51
          (Kelvin)            269.07   299.60   391.88   436.94   448.41
                              486.12   508.55   549.33   577.02   592.44
                              621.12   643.78   688.12   713.64   753.72
                              807.32   817.63   862.42   932.61   942.99
                              981.42  1003.63  1042.26  1066.61  1099.29
                             1111.02  1137.31  1159.18  1169.18  1218.25
                             1277.06  1299.94  1360.51  1397.56  1412.29
                             1419.63  1450.77  1467.36  1564.46  1602.67
                             1630.08  1657.31  1685.98  1701.21  1747.76
                             1795.94  1807.81  1850.17  1874.82  1941.14
                             1946.24  1972.40  2050.73  2079.73  2107.49
                             2130.11  2163.90  2206.94  2276.17  2306.52
                             2314.72  2356.63  2382.74  4504.02  4512.43
                             4534.58  4554.83  4559.76  4571.67  4580.81
                             5059.47  5111.23  5179.58

 Zero-point correction=                           0.208126 (Hartree/Particle)
 Thermal correction to Energy=                    0.222274
 Thermal correction to Enthalpy=                  0.223218
 Thermal correction to Gibbs Free Energy=         0.167329
 Sum of electronic and zero-point Energies=           -799.734452
 Sum of electronic and thermal Energies=              -799.720304
 Sum of electronic and thermal Enthalpies=            -799.719360
 Sum of electronic and thermal Free Energies=         -799.775250

                     E (Thermal)             CV                S
                      KCal/Mol        Cal/Mol-Kelvin    Cal/Mol-Kelvin
 Total                  139.479             57.595            117.629
 Electronic               0.000              0.000              0.000
 Translational            0.889              2.981             42.304
 Rotational               0.889              2.981             32.880
 Vibrational            137.701             51.633             42.446
 Vibration     1          0.594              1.981              5.201
 Vibration     2          0.596              1.975              4.592
 Vibration     3          0.605              1.947              3.393
 Vibration     4          0.614              1.917              2.853
 Vibration     5          0.619              1.900              2.640
 Vibration     6          0.632              1.858              2.257
 Vibration     7          0.642              1.828              2.059
 Vibration     8          0.675              1.724              1.581
 Vibration     9          0.695              1.667              1.396
 Vibration    10          0.700              1.651              1.354
 Vibration    11          0.718              1.600              1.222
 Vibration    12          0.730              1.568              1.151
 Vibration    13          0.751              1.509              1.032
 Vibration    14          0.767              1.468              0.959
 Vibration    15          0.776              1.445              0.920
 Vibration    16          0.793              1.401              0.853
 Vibration    17          0.807              1.367              0.804
 Vibration    18          0.835              1.298              0.715
 Vibration    19          0.852              1.259              0.668
 Vibration    20          0.879              1.197              0.601
 Vibration    21          0.917              1.115              0.522
 Vibration    22          0.924              1.100              0.508
 Vibration    23          0.957              1.033              0.451

 Optimization completed.
    -- Stationary point found.
 Normal termination of Gaussian 16 at Sat Feb 10 21:05:33 2024.
