 Q-Chem 5.4, Q-Chem, Inc., Pleasanton, CA (2021)
 Q-Chem 5.4.0 for Intel X86 EM64T Linux

User input:
--------------------------------------------------------------
$molecule
-2 1
C                  4.8792300000     -2.8690370000     -0.3502620000
C                  5.6030330000     -1.9804810000     -1.1144070000
C                  4.9994740000     -0.7586480000     -1.5411480000
C                  3.5349210000     -2.6147490000      0.0364930000
C                  2.9207680000     -1.3714430000     -0.3977320000
C                  3.6986090000     -0.4789280000     -1.1850300000
C                  2.8218730000     -3.5639400000      0.8292780000
C                  1.4713040000     -3.2307260000      1.1765360000
C                  0.8609100000     -1.9950210000      0.7449150000
C                  1.5757950000     -1.0412020000     -0.0517600000
C                  0.6984860000     -4.1488040000      1.9766550000
C                 -0.6014200000     -3.8442120000      2.3197190000
C                 -0.5019610000     -1.7184880000      1.1277740000
C                 -1.2038960000     -2.6245400000      1.8937030000
O                  3.3709750000     -4.6952820000      1.2288150000
O                  1.0097020000      0.0856710000     -0.4404660000
O                  1.2750710000     -5.3162890000      2.3843390000
H                  5.3133360000     -3.8048540000     -0.0124250000
H                  6.6309070000     -2.2063340000     -1.3931460000
H                  5.5672030000     -0.0529310000     -2.1452040000
H                  3.2155000000      0.4421830000     -1.4956550000
H                  2.2313580000     -5.2596320000      1.9794850000
O                 -1.0783780000     -0.5511130000      0.7199340000
H                 -2.2295510000     -2.3908880000      2.1680260000
H                 -1.1610020000     -4.5541910000      2.9235500000
H                 -0.3199570000     -0.0931110000      0.1745750000
$end
$rem
MAX_SCF_CYCLES=200
BASIS  =  6-311++G(d,p)
GUI  =  2
JOB_TYPE  =  SP
METHOD  =  B3LYP
SOLVENT_METHOD = COSMO
$end
$solvent
dielectric 37.219
opticaldielectric 1.43
$end

--------------------------------------------------------------

             Standard Nuclear Orientation (Angstroms)
    I     Atom           X                Y                Z
 ----------------------------------------------------------------
    1      C       2.7775254122    -1.3967608157     0.0001211006
    2      C       3.9738800496    -0.7140634925     0.0003959880
    3      C       3.9738713344     0.7139656474     0.0003409308
    4      C       1.5236154983    -0.7265979507    -0.0002869602
    5      C       1.5236104305     0.7265176903    -0.0003256259
    6      C       2.7775390647     1.3966823256     0.0000338040
    7      C       0.3075227830    -1.4742793517    -0.0005893885
    8      C      -0.9131079033    -0.7221377752    -0.0002917884
    9      C      -0.9130855327     0.7221074820    -0.0003709187
   10      C       0.3075607396     1.4741346887    -0.0006199838
   11      C      -2.1752940512    -1.4201286423     0.0001167860
   12      C      -3.3583740109    -0.7126355463     0.0004792704
   13      C      -2.1752178703     1.4203128353    -0.0000191847
   14      C      -3.3583556466     0.7128702392     0.0004046071
   15      O       0.2972143464    -2.7937379470    -0.0000477535
   16      O       0.2972829285     2.7937141282     0.0003109318
   17      O      -2.1753581541    -2.7845617570     0.0000654879
   18      H       2.7485513478    -2.4818856093     0.0001533938
   19      H       4.9166889270    -1.2584359002     0.0006602913
   20      H       4.9166777725     1.2583481415     0.0006112748
   21      H       2.7485644724     2.4818035822     0.0000825169
   22      H      -1.1621887325    -3.0192723944    -0.0004276074
   23      O      -2.1749665287     2.7846274418    -0.0000926162
   24      H      -4.2952348140     1.2642973694     0.0007049706
   25      H      -4.2952658759    -1.2640406909     0.0007465914
   26      H      -1.1613156178     3.0189265684    -0.0007516511
 ----------------------------------------------------------------

   10    -839.4742698401      6.56e-06  Convergence criterion met
 Total energy in the final basis set =     -839.4742698401
    5    -839.7359246361      5.44e-06  Convergence criterion met
 Total energy in the final basis set =     -839.7359246361

                    Orbital Energies (a.u.)
 --------------------------------------------------------------

 Alpha MOs
 -- Occupied --
-19.1027 -19.1026 -19.0521 -19.0519 -10.2040 -10.2040 -10.1934 -10.1934
-10.1567 -10.1563 -10.1550 -10.1550 -10.1539 -10.1535 -10.1506 -10.1502
-10.1432 -10.1428  -1.0213  -1.0198  -0.9579  -0.9555  -0.8382  -0.8183
 -0.7638  -0.7353  -0.7169  -0.7080  -0.6533  -0.6146  -0.6101  -0.5657
 -0.5505  -0.5203  -0.5011  -0.4937  -0.4802  -0.4490  -0.4431  -0.4346
 -0.4100  -0.4082  -0.3975  -0.3949  -0.3909  -0.3814  -0.3754  -0.3738
 -0.3698  -0.3475  -0.3326  -0.3323  -0.3313  -0.3227  -0.3134  -0.2819
 -0.2425  -0.2412  -0.2352  -0.2254  -0.2231  -0.1921  -0.1238

          Ground-State Mulliken Net Atomic Charges

     Atom                 Charge (a.u.)
  ----------------------------------------
      1 C                    -0.108630
      2 C                    -0.507146
      3 C                    -0.509423
      4 C                     0.041157
      5 C                     0.043770
      6 C                    -0.108716
      7 C                    -0.150752
      8 C                     0.548921
      9 C                     0.549170
     10 C                    -0.149400
     11 C                    -0.308057
     12 C                    -0.237469
     13 C                    -0.308091
     14 C                    -0.237525
     15 O                    -0.695027
     16 O                    -0.695208
     17 O                    -0.511120
     18 H                     0.168573
     19 H                     0.185744
     20 H                     0.185737
     21 H                     0.168643
     22 H                     0.388055
     23 O                    -0.511403
     24 H                     0.184969
     25 H                     0.184928
     26 H                     0.388298
  ----------------------------------------
  Sum of atomic charges =    -2.000000

                    Cartesian Multipole Moments
 -----------------------------------------------------------------
    Charge (ESU x 10^10)
                -9.6064
    Dipole Moment (Debye)
         X       4.3338      Y      -0.0021      Z      -0.0026
       Tot       4.3338
    Quadrupole Moments (Debye-Ang)
        XX    -139.3590     XY       0.0063     YY    -173.2153
        XZ      -0.0005     YZ      -0.0001     ZZ    -115.6891

 Total job time:  109.83s(wall), 475.51s(cpu)
        *  Thank you very much for using Q-Chem.  Have a nice day.  *
