 Gaussian 16, Revision A.03,
 Gaussian 16:  ES64L-G16RevA.03 25-Dec-2016

 --------------------------------------
 #P UB3LYP/6-311++G(d,p) nosym opt freq
 --------------------------------------

 -------
 Reduced
 -------
 Symbolic Z-matrix:
 Charge = -2 Multiplicity = 1

 SCF Done:  E(UB3LYP) =  -839.474127875     A.U. after   19 cycles
 SCF Done:  E(UB3LYP) =  -839.474127682     A.U. after   10 cycles
 SCF Done:  E(UB3LYP) =  -839.474127806     A.U. after   10 cycles
 Optimization completed.
    -- Stationary point found.
 Normal termination of Gaussian 16 at Sun Jan  7 05:17:35 2024.

 ----------------------------------------------------------------------
 #P Geom=AllCheck Guess=TCheck SCRF=Check GenChk UB3LYP/6-311++G(d,p) F
 req
 ----------------------------------------------------------------------

 Structure from the checkpoint file:  "185-an.chk"
 -------
 Reduced
 -------
 Charge = -2 Multiplicity = 1

                          Input orientation:
 ---------------------------------------------------------------------
 Center     Atomic      Atomic             Coordinates (Angstroms)
 Number     Number       Type             X           Y           Z
 ---------------------------------------------------------------------
      1          6           0        4.879230   -2.869037   -0.350262
      2          6           0        5.603033   -1.980481   -1.114407
      3          6           0        4.999474   -0.758648   -1.541148
      4          6           0        3.534921   -2.614749    0.036493
      5          6           0        2.920768   -1.371443   -0.397732
      6          6           0        3.698609   -0.478928   -1.185030
      7          6           0        2.821873   -3.563940    0.829278
      8          6           0        1.471304   -3.230726    1.176536
      9          6           0        0.860910   -1.995021    0.744915
     10          6           0        1.575795   -1.041202   -0.051760
     11          6           0        0.698486   -4.148804    1.976655
     12          6           0       -0.601420   -3.844212    2.319719
     13          6           0       -0.501961   -1.718488    1.127774
     14          6           0       -1.203896   -2.624540    1.893703
     15          8           0        3.370975   -4.695282    1.228815
     16          8           0        1.009702    0.085671   -0.440466
     17          8           0        1.275071   -5.316289    2.384339
     18          1           0        5.313336   -3.804854   -0.012425
     19          1           0        6.630907   -2.206334   -1.393146
     20          1           0        5.567203   -0.052931   -2.145204
     21          1           0        3.215500    0.442183   -1.495655
     22          1           0        2.231358   -5.259632    1.979485
     23          8           0       -1.078378   -0.551113    0.719934
     24          1           0       -2.229551   -2.390888    2.168026
     25          1           0       -1.161002   -4.554191    2.923550
     26          1           0       -0.319957   -0.093111    0.174575
 ---------------------------------------------------------------------

 SCF Done:  E(UB3LYP) =  -839.474127806     A.U. after    1 cycles

 Alpha  occ. eigenvalues --  -18.85527 -18.85520 -18.80089 -18.80087  -9.96267
 Alpha  occ. eigenvalues --   -9.96265  -9.94858  -9.94856  -9.93385  -9.93342
 Alpha  occ. eigenvalues --   -9.92727  -9.92726  -9.91030  -9.91008  -9.90993
 Alpha  occ. eigenvalues --   -9.90970  -9.90779  -9.90735  -0.77298  -0.77133
 Alpha  occ. eigenvalues --   -0.70670  -0.70390  -0.60341  -0.57821  -0.52653
 Alpha  occ. eigenvalues --   -0.50305  -0.48085  -0.46535  -0.41300  -0.38115
 Alpha  occ. eigenvalues --   -0.37312  -0.32662  -0.31278  -0.28682  -0.26744
 Alpha  occ. eigenvalues --   -0.25010  -0.23463  -0.21457  -0.20883  -0.20215
 Alpha  occ. eigenvalues --   -0.17861  -0.16318  -0.15864  -0.15179  -0.15139
 Alpha  occ. eigenvalues --   -0.13822  -0.13432  -0.12918  -0.12450  -0.11164
 Alpha  occ. eigenvalues --   -0.09387  -0.09359  -0.08378  -0.08166  -0.07079
 Alpha  occ. eigenvalues --   -0.03474  -0.00720   0.00328   0.01340   0.01623
 Alpha  occ. eigenvalues --    0.02675   0.05507   0.12164
 Alpha virt. eigenvalues --    0.15872   0.17605   0.17636   0.19464   0.20102
 Alpha virt. eigenvalues --    0.20469   0.21203   0.22607   0.22870   0.23952
 Alpha virt. eigenvalues --    0.25033   0.25911   0.26590   0.26912   0.27135

  Beta  occ. eigenvalues --  -18.85527 -18.85520 -18.80089 -18.80087  -9.96267
  Beta  occ. eigenvalues --   -9.96265  -9.94858  -9.94856  -9.93385  -9.93342
  Beta  occ. eigenvalues --   -9.92727  -9.92726  -9.91030  -9.91008  -9.90993
  Beta  occ. eigenvalues --   -9.90970  -9.90779  -9.90735  -0.77298  -0.77133
  Beta  occ. eigenvalues --   -0.70670  -0.70390  -0.60341  -0.57821  -0.52653
  Beta  occ. eigenvalues --   -0.50305  -0.48085  -0.46535  -0.41300  -0.38115
  Beta  occ. eigenvalues --   -0.37312  -0.32662  -0.31278  -0.28682  -0.26744
  Beta  occ. eigenvalues --   -0.25010  -0.23463  -0.21457  -0.20883  -0.20215
  Beta  occ. eigenvalues --   -0.17861  -0.16318  -0.15864  -0.15179  -0.15139
  Beta  occ. eigenvalues --   -0.13822  -0.13432  -0.12918  -0.12450  -0.11164
  Beta  occ. eigenvalues --   -0.09387  -0.09359  -0.08378  -0.08166  -0.07079
  Beta  occ. eigenvalues --   -0.03474  -0.00720   0.00328   0.01340   0.01623
  Beta  occ. eigenvalues --    0.02675   0.05507   0.12164
  Beta virt. eigenvalues --    0.15872   0.17605   0.17636   0.19464   0.20102
  Beta virt. eigenvalues --    0.20469   0.21203   0.22607   0.22870   0.23952
  Beta virt. eigenvalues --    0.25033   0.25911   0.26590   0.26912   0.27135

 Mulliken charges and spin densities:
               1          2
     1  C   -0.093516  -0.000000
     2  C   -0.499597  -0.000000
     3  C   -0.499560   0.000000
     4  C    0.234278   0.000000
     5  C    0.234423   0.000000
     6  C   -0.093631  -0.000000
     7  C   -0.333217   0.000000
     8  C    0.525479  -0.000000
     9  C    0.525424   0.000000
    10  C   -0.332952   0.000000
    11  C   -0.434055  -0.000000
    12  C   -0.033722   0.000000
    13  C   -0.434007   0.000000
    14  C   -0.033962   0.000000
    15  O   -0.573255  -0.000000
    16  O   -0.573401  -0.000000
    17  O   -0.454875   0.000000
    18  H    0.132649  -0.000000
    19  H    0.074756  -0.000000
    20  H    0.074755   0.000000
    21  H    0.132647  -0.000000
    22  H    0.365346  -0.000000
    23  O   -0.455183   0.000000
    24  H    0.089737  -0.000000
    25  H    0.089754   0.000000
    26  H    0.365684  -0.000000
 Sum of Mulliken charges =  -2.00000  -0.00000

 Dipole moment (field-independent basis, Debye):
    X=            -16.8909    Y=             23.3870    Z=             -6.0842  Tot=             29.4834
 Quadrupole moment (field-independent basis, Debye-Ang):
   XX=           -191.2838   YY=           -216.4969   ZZ=           -136.0701
   XY=             50.1800   XZ=              1.9933   YZ=             34.6007

  Exact polarizability: 333.131  14.284 223.780 -92.295 -63.636 187.270
 Approx polarizability: 576.030   6.129 409.390-159.075-128.225 308.965

                      1                      2                      3
                      A                      A                      A
 Frequencies --     65.3951                89.4618               139.4658
 Red. masses --      6.4777                 7.5190                 8.3842
 Frc consts  --      0.0163                 0.0355                 0.0961
 IR Inten    --      1.8002                 0.0000                 0.0033

                      4                      5                      6
                      A                      A                      A
 Frequencies --    141.5825               176.2435               212.9109
 Red. masses --      5.0181                 8.6289                 5.3925
 Frc consts  --      0.0593                 0.1579                 0.1440
 IR Inten    --      0.0000                 1.4699                 1.0799

                      7                      8                      9
                      A                      A                      A
 Frequencies --    251.2971               337.0419               343.6321
 Red. masses --      5.6858                 6.8306                 5.9052
 Frc consts  --      0.2116                 0.4572                 0.4108
 IR Inten    --      0.1227                20.8117                 8.7587

                     10                     11                     12
                      A                      A                      A
 Frequencies --    370.4872               386.9667               392.5012
 Red. masses --      7.6439                 7.9836                12.1901
 Frc consts  --      0.6182                 0.7044                 1.1065
 IR Inten    --      0.0000                 0.0002                 0.0303

                     13                     14                     15
                      A                      A                      A
 Frequencies --    423.5510               440.4724               443.2279
 Red. masses --      7.4047                 3.1876                10.5091
 Frc consts  --      0.7826                 0.3644                 1.2164
 IR Inten    --     64.5317                 2.3263                 0.9649

                     16                     17                     18
                      A                      A                      A
 Frequencies --    478.8774               482.6608               521.7683
 Red. masses --     10.9245                 4.2679                 6.3265
 Frc consts  --      1.4760                 0.5858                 1.0148
 IR Inten    --      0.1232                 0.0000                15.9815

                     19                     20                     21
                      A                      A                      A
 Frequencies --    537.5649               588.6987               598.9189
 Red. masses --      9.4583                 2.8545                 5.1643
 Frc consts  --      1.6104                 0.5829                 1.0914
 IR Inten    --     14.4862                45.6773                 3.5746

                     22                     23                     24
                      A                      A                      A
 Frequencies --    620.1482               654.6018               697.0879
 Red. masses --      4.3285                 6.5706                 1.6659
 Frc consts  --      0.9808                 1.6589                 0.4770
 IR Inten    --      0.0001                 5.4874                18.8427

                     25                     26                     27
                      A                      A                      A
 Frequencies --    703.2486               714.2042               743.7498
 Red. masses --      6.6879                 3.8199                 2.1028
 Frc consts  --      1.9488                 1.1480                 0.6853
 IR Inten    --     38.7666                 0.0000                61.6370

                     28                     29                     30
                      A                      A                      A
 Frequencies --    756.9844               766.4888               778.9874
 Red. masses --      7.4971                 1.9693                 2.3758
 Frc consts  --      2.5311                 0.6817                 0.8494
 IR Inten    --     30.5225                 0.0000                28.4129

                     31                     32                     33
                      A                      A                      A
 Frequencies --    800.1117               807.7903               864.8620
 Red. masses --      1.5697                 3.0512                 7.4729
 Frc consts  --      0.5921                 1.1731                 3.2933
 IR Inten    --      0.0000                 0.0000                63.7363

                     34                     35                     36
                      A                      A                      A
 Frequencies --    905.4804               948.9362               952.8265
 Red. masses --      8.1022                 1.2200                 1.3590
 Frc consts  --      3.9139                 0.6473                 0.7269
 IR Inten    --     54.0989                 0.0001                 4.1577

                     37                     38                     39
                      A                      A                      A
 Frequencies --    972.2731              1006.6035              1040.1554
 Red. masses --      6.2705                 2.3238                 2.0559
 Frc consts  --      3.4924                 1.3873                 1.3105
 IR Inten    --    130.2841                61.9591                29.4858

                     40                     41                     42
                      A                      A                      A
 Frequencies --   1063.7193              1064.9813              1087.3976
 Red. masses --      1.0486                 1.0494                 2.8397
 Frc consts  --      0.6991                 0.7012                 1.9783
 IR Inten    --     36.5977                83.6589               122.9885

                     43                     44                     45
                      A                      A                      A
 Frequencies --   1120.1254              1146.4896              1160.0016
 Red. masses --      1.6930                 1.5059                 1.8041
 Frc consts  --      1.2515                 1.1663                 1.4303
 IR Inten    --    121.7062                 0.1055               123.0801

                     46                     47                     48
                      A                      A                      A
 Frequencies --   1229.2050              1231.2732              1245.2164
 Red. masses --      5.4184                 2.1433                 2.3688
 Frc consts  --      4.8236                 1.9144                 2.1640
 IR Inten    --    197.3747                 4.1349                 4.1976

                     49                     50                     51
                      A                      A                      A
 Frequencies --   1255.7205              1291.3069              1313.6024
 Red. masses --      4.8696                 7.5979                 2.4642
 Frc consts  --      4.5240                 7.4645                 2.5053
 IR Inten    --     39.6097               108.4178               357.0321

                     52                     53                     54
                      A                      A                      A
 Frequencies --   1332.1188              1362.6290              1386.8647
 Red. masses --      2.9713                 7.7130                 2.9435
 Frc consts  --      3.1066                 8.4378                 3.3357
 IR Inten    --     42.7082               183.2357               475.5744

                     55                     56                     57
                      A                      A                      A
 Frequencies --   1430.6611              1460.2396              1471.4231
 Red. masses --      8.6328                 4.4013                 2.5332
 Frc consts  --     10.4105                 5.5294                 3.2314
 IR Inten    --      1.5644               415.0699                15.3436

                     58                     59                     60
                      A                      A                      A
 Frequencies --   1503.9592              1531.3745              1564.5743
 Red. masses --      5.5679                 6.3128                 2.7778
 Frc consts  --      7.4202                 8.7224                 4.0062
 IR Inten    --    148.4644                36.2595               225.7774

                     61                     62                     63
                      A                      A                      A
 Frequencies --   1585.9761              1600.3363              1669.1030
 Red. masses --      5.0645                 4.7992                 1.4676
 Frc consts  --      7.5056                 7.2417                 2.4089
 IR Inten    --      1.6892               116.3433               240.1014

                     64                     65                     66
                      A                      A                      A
 Frequencies --   1677.6951              2402.8597              2434.0250
 Red. masses --      1.7604                 1.0917                 1.0876
 Frc consts  --      2.9194                 3.7136                 3.7963
 IR Inten    --      4.2314                20.9163              1261.9539

                     67                     68                     69
                      A                      A                      A
 Frequencies --   3092.4596              3115.9625              3119.1403
 Red. masses --      1.0826                 1.0902                 1.0847
 Frc consts  --      6.1002                 6.2365                 6.2177
 IR Inten    --     41.5992               114.3320                56.2529

                     70                     71                     72
                      A                      A                      A
 Frequencies --   3140.9226              3160.1882              3162.7711
 Red. masses --      1.0921                 1.0904                 1.0916
 Frc consts  --      6.3476                 6.4163                 6.4335
 IR Inten    --    104.5976                28.4150                47.2906

 - Thermochemistry -
 -------------------
 Temperature   298.150 Kelvin.  Pressure   1.00000 Atm.
 Atom     1 has atomic number  6 and mass  12.00000

 Molecular mass:   240.04226 amu.
 Principal axes and moments of inertia in atomic units:
                           1         2         3
     Eigenvalues --  2613.758004586.523217200.28102
           X            0.84611  -0.42263   0.32478
           Y            0.25435   0.85563   0.45078
           Z           -0.46841  -0.29880   0.83145
 This molecule is an asymmetric top.
 Rotational symmetry number  1.
 Warning -- assumption of classical behavior for rotation
           may cause significant error
 Rotational temperatures (Kelvin)      0.03314     0.01888     0.01203
 Rotational constants (GHZ):           0.69048     0.39349     0.25065
 Zero-point vibrational energy     475943.8 (Joules/Mol)
                                  113.75330 (Kcal/Mol)
 Warning -- explicit consideration of  22 degrees of freedom as
           vibrations may cause significant error
 Vibrational temperatures:     94.09   128.72   200.66   203.71   253.58
          (Kelvin)            306.33   361.56   484.93   494.41   533.05
                              556.76   564.72   609.40   633.74   637.71
                              689.00   694.44   750.71   773.44   847.01
                              861.71   892.25   941.83  1002.95  1011.82
                             1027.58  1070.09  1089.13  1102.81  1120.79
                             1151.18  1162.23  1244.34  1302.78  1365.31
                             1370.90  1398.88  1448.28  1496.55  1530.45
                             1532.27  1564.52  1611.61  1649.54  1668.98
                             1768.55  1771.53  1791.59  1806.70  1857.90
                             1889.98  1916.62  1960.52  1995.39  2058.40
                             2100.96  2117.05  2163.86  2203.31  2251.07
                             2281.87  2302.53  2401.47  2413.83  3457.18
                             3502.02  4449.36  4483.18  4487.75  4519.09
                             4546.81  4550.52

 Zero-point correction=                           0.181277 (Hartree/Particle)
 Thermal correction to Energy=                    0.194111
 Thermal correction to Enthalpy=                  0.195055
 Thermal correction to Gibbs Free Energy=         0.142348
 Sum of electronic and zero-point Energies=           -839.292850
 Sum of electronic and thermal Energies=              -839.280017
 Sum of electronic and thermal Enthalpies=            -839.279073
 Sum of electronic and thermal Free Energies=         -839.331780

                     E (Thermal)             CV                S
                      KCal/Mol        Cal/Mol-Kelvin    Cal/Mol-Kelvin
 Total                  121.806             53.332            110.932
 Electronic               0.000              0.000              0.000
 Translational            0.889              2.981             42.328
 Rotational               0.889              2.981             32.823
 Vibrational            120.029             47.370             35.780
 Vibration     1          0.597              1.971              4.287
 Vibration     2          0.602              1.957              3.672
 Vibration     3          0.615              1.914              2.811
 Vibration     4          0.615              1.912              2.782
 Vibration     5          0.628              1.872              2.368
 Vibration     6          0.644              1.821              2.019
 Vibration     7          0.663              1.761              1.721
 Vibration     8          0.718              1.602              1.226
 Vibration     9          0.722              1.588              1.195
 Vibration    10          0.742              1.533              1.078
 Vibration    11          0.755              1.498              1.012
 Vibration    12          0.760              1.486              0.991
 Vibration    13          0.786              1.419              0.880
 Vibration    14          0.800              1.382              0.825
 Vibration    15          0.803              1.376              0.817
 Vibration    16          0.835              1.297              0.713
 Vibration    17          0.839              1.289              0.703
 Vibration    18          0.877              1.202              0.606
 Vibration    19          0.893              1.167              0.571
 Vibration    20          0.946              1.056              0.470
 Vibration    21          0.957              1.034              0.452
 Vibration    22          0.980              0.989              0.416

 Optimization completed.
    -- Stationary point found.
 Normal termination of Gaussian 16 at Sun Jan  7 06:32:56 2024.
