 Gaussian 16, Revision A.03,
 Gaussian 16:  ES64L-G16RevA.03 25-Dec-2016

 ----------------------------------------------------------------
 #P UB3LYP/6-311++G(d,p) SCRF=(PCM,Solvent=n,n-DiMethylFormamide)
 ----------------------------------------------------------------

 ------------------
 Radical PCM in DMF
 ------------------
 Symbolic Z-matrix:
 Charge = -1 Multiplicity = 2

                         Standard orientation:
 ---------------------------------------------------------------------
 Center     Atomic      Atomic             Coordinates (Angstroms)
 Number     Number       Type             X           Y           Z
 ---------------------------------------------------------------------
      1          6           0        0.986523    0.857241    0.572849
      2          6           0        2.342786    1.205246    0.131324
      3          6           0        3.185707    0.281880   -0.437992
      4          6           0        2.775507   -1.111313   -0.637947
      5          6           0        1.450534   -1.460609   -0.193619
      6          6           0        0.617877   -0.532618    0.385171
      7          8           0        0.205361    1.713313    1.057755
      8          8           0        3.536456   -1.966924   -1.169859
      9         16           0       -0.987042   -1.101188    0.956411
     10          6           0       -2.220583   -0.172411   -0.002223
     11          6           0       -2.636834    1.084467    0.431170
     12          6           0       -2.757057   -0.761345   -1.145140
     13          6           0       -3.727087   -0.074145   -1.873111
     14          6           0       -3.609813    1.760548   -0.302935
     15          6           0       -4.153770    1.185503   -1.451979
     16          8           0       -1.195207   -0.771249    2.374176
     17          8           0       -1.134215   -2.509114    0.531190
     18          1           0       -2.179969    1.517694    1.309807
     19          1           0       -2.421224   -1.747440   -1.440957
     20          1           0       -3.939760    2.741444    0.022242
     21          1           0        1.128508   -2.486232   -0.323532
     22          1           0       -4.151932   -0.524881   -2.763772
     23          6           0        4.572932    0.658689   -0.892484
     24          6           0        2.764877    2.640172    0.327579
     25          1           0       -4.908858    1.719400   -2.019979
     26          1           0        4.546866    1.449139   -1.652269
     27          1           0        5.066625   -0.217000   -1.313994
     28          1           0        5.178301    1.039656   -0.061232
     29          1           0        1.958816    3.195324    0.806902
     30          1           0        3.003088    3.123902   -0.627619
     31          1           0        3.663462    2.711949    0.951753
 ---------------------------------------------------------------------

 SCF Done:  E(UB3LYP) =  -1240.13767617     A.U. after   23 cycles

 The electronic state is 2-A.
 Alpha  occ. eigenvalues --  -89.05121 -19.11883 -19.11689 -19.08619 -19.08617
 Alpha  occ. eigenvalues --  -10.23816 -10.22828 -10.21189 -10.20039 -10.19384
 Alpha  occ. eigenvalues --  -10.19066 -10.18945 -10.18787 -10.18698 -10.18182
 Alpha  occ. eigenvalues --  -10.17838 -10.17774 -10.15724 -10.15717  -8.11503
 Alpha  occ. eigenvalues --   -6.07796  -6.07676  -6.07589  -1.11032  -1.01463
 Alpha  occ. eigenvalues --   -1.00818  -1.00570  -0.87668  -0.84368  -0.79853
 Alpha  occ. eigenvalues --   -0.77592  -0.76352  -0.72996  -0.70829  -0.67465
 Alpha  occ. eigenvalues --   -0.65444  -0.62299  -0.60706  -0.57231  -0.56473
 Alpha  occ. eigenvalues --   -0.53691  -0.50597  -0.49839  -0.48380  -0.47554
 Alpha  occ. eigenvalues --   -0.45878  -0.45343  -0.45075  -0.44033  -0.43761
 Alpha  occ. eigenvalues --   -0.42459  -0.41250  -0.40241  -0.39860  -0.39852
 Alpha  occ. eigenvalues --   -0.38873  -0.38695  -0.38052  -0.37482  -0.36297
 Alpha  occ. eigenvalues --   -0.36014  -0.35391  -0.34197  -0.32873  -0.31388
 Alpha  occ. eigenvalues --   -0.30283  -0.29608  -0.27620  -0.27115  -0.25439
 Alpha  occ. eigenvalues --   -0.25096  -0.24318  -0.17330
 Alpha virt. eigenvalues --   -0.04843  -0.02574  -0.01980  -0.00582   0.00079
 Alpha virt. eigenvalues --    0.01012   0.01326   0.01867   0.02260   0.02981
 Alpha virt. eigenvalues --    0.03275   0.03575   0.03824   0.04326   0.04661

  Beta  occ. eigenvalues --  -89.05123 -19.11873 -19.11694 -19.08009 -19.07860
  Beta  occ. eigenvalues --  -10.23706 -10.22715 -10.21189 -10.19926 -10.19379
  Beta  occ. eigenvalues --  -10.19062 -10.18941 -10.18789 -10.18700 -10.17908
  Beta  occ. eigenvalues --  -10.17789 -10.17719 -10.15730 -10.15721  -8.11505
  Beta  occ. eigenvalues --   -6.07797  -6.07677  -6.07593  -1.11015  -1.00706
  Beta  occ. eigenvalues --   -1.00284  -0.99473  -0.87660  -0.83801  -0.79663
  Beta  occ. eigenvalues --   -0.77508  -0.76346  -0.72688  -0.70481  -0.67000
  Beta  occ. eigenvalues --   -0.65125  -0.62294  -0.60569  -0.56881  -0.56297
  Beta  occ. eigenvalues --   -0.53576  -0.50422  -0.49609  -0.48317  -0.47531
  Beta  occ. eigenvalues --   -0.45734  -0.45272  -0.44883  -0.43747  -0.43422
  Beta  occ. eigenvalues --   -0.41980  -0.40785  -0.39679  -0.39623  -0.39102
  Beta  occ. eigenvalues --   -0.38807  -0.38359  -0.37694  -0.36213  -0.35977
  Beta  occ. eigenvalues --   -0.35226  -0.35153  -0.34087  -0.32810  -0.31223
  Beta  occ. eigenvalues --   -0.30190  -0.28016  -0.27143  -0.26224  -0.24819
  Beta  occ. eigenvalues --   -0.24092  -0.23732
  Beta virt. eigenvalues --   -0.10125  -0.04446  -0.02550  -0.00825  -0.00565
  Beta virt. eigenvalues --    0.00091   0.01062   0.01630   0.02269   0.02962
  Beta virt. eigenvalues --    0.03101   0.03319   0.03694   0.03896   0.04612

 Mulliken charges and spin densities:
               1          2
     1  C   -1.048553   0.048129
     2  C    0.137005   0.003284
     3  C    0.996882   0.071538
     4  C   -0.983421   0.085824
     5  C    0.460657   0.188785
     6  C   -0.130694   0.116347
     7  O   -0.381210   0.226113
     8  O   -0.457932   0.270846
     9  S    0.365777  -0.024996
    10  C    0.342527   0.003238
    11  C   -0.298292   0.016557
    12  C    0.095731   0.007530
    13  C   -0.451937  -0.001653
    14  C   -0.386468  -0.005553
    15  C   -0.356424   0.004027
    16  O   -0.190603   0.005570
    17  O   -0.242213  -0.002579
    18  H    0.279112  -0.000758
    19  H    0.245004   0.000925
    20  H    0.212887   0.000080
    21  H    0.254122  -0.016548
    22  H    0.209679   0.000063
    23  C   -0.420549   0.010273
    24  C   -0.444864  -0.009949
    25  H    0.190068  -0.000221
    26  H    0.158139   0.001163
    27  H    0.185377  -0.002196
    28  H    0.158947   0.001214
    29  H    0.189031  -0.001404
    30  H    0.156050   0.002186
    31  H    0.156166   0.002163
 Sum of Mulliken charges =  -1.00000   1.00000

 Dipole moment (field-independent basis, Debye):
    X=             -5.4540    Y=              6.7322    Z=             -4.7267  Tot=              9.8697
 Quadrupole moment (field-independent basis, Debye-Ang):
   XX=           -137.2284   YY=           -142.6790   ZZ=           -134.8023
   XY=              9.0467   XZ=             20.2691   YZ=             -2.9950

 Normal termination of Gaussian 16 at Wed Jan 24 22:57:47 2024.
