 Q-Chem 5.4, Q-Chem, Inc., Pleasanton, CA (2021)
 Q-Chem 5.4.0 for Intel X86 EM64T Linux

User input:
--------------------------------------------------------------
$molecule
0 1
Cl                 3.0522620000      0.3947360000     -0.0148870000
C                  1.3493170000      0.1025690000     -0.0097610000
C                  0.8743190000     -1.1668860000     -0.0606680000
Cl                 1.8962320000     -2.5540610000     -0.1325930000
C                 -0.5830750000     -1.4306850000     -0.0568520000
O                 -1.0581500000     -2.5355160000     -0.1004830000
C                 -1.5335880000     -0.1950780000      0.0076700000
O                 -2.7242760000     -0.3696640000      0.0126090000
C                 -0.9036300000      1.1443120000      0.0599630000
C                  0.4461990000      1.2764850000      0.0514880000
Cl                 1.1664680000      2.8457330000      0.1129480000
Cl                -1.9820790000      2.4880550000      0.1305650000
$end
$rem
MAX_SCF_CYCLES=200
BASIS  =  6-311++G(d,p)
GUI  =  2
JOB_TYPE  =  SP
METHOD  =  B3LYP
SOLVENT_METHOD = PCM
$end
$pcm
theory = CPCM
$end
$solvent
dielectric 37.219
opticaldielectric 1.43
$end

--------------------------------------------------------------

             Standard Nuclear Orientation (Angstroms)
    I     Atom           X                Y                Z
 ----------------------------------------------------------------
    1      Cl      3.0522620000     0.3947360000    -0.0148870000
    2      C       1.3493170000     0.1025690000    -0.0097610000
    3      C       0.8743190000    -1.1668860000    -0.0606680000
    4      Cl      1.8962320000    -2.5540610000    -0.1325930000
    5      C      -0.5830750000    -1.4306850000    -0.0568520000
    6      O      -1.0581500000    -2.5355160000    -0.1004830000
    7      C      -1.5335880000    -0.1950780000     0.0076700000
    8      O      -2.7242760000    -0.3696640000     0.0126090000
    9      C      -0.9036300000     1.1443120000     0.0599630000
   10      C       0.4461990000     1.2764850000     0.0514880000
   11      Cl      1.1664680000     2.8457330000     0.1129480000
   12      Cl     -1.9820790000     2.4880550000     0.1305650000
 ----------------------------------------------------------------

    8   -2220.0269840974      9.40e-06  Convergence criterion met
 Total energy in the final basis set =    -2220.0269840974

                    Orbital Energies (a.u.)
 --------------------------------------------------------------

 Alpha MOs
 -- Occupied --
********-101.5964-101.5882-101.5881 -19.1715 -19.1715 -10.3165 -10.3163
-10.3095 -10.3092 -10.2843 -10.2842  -9.5109  -9.5109  -9.5026  -9.5025
 -7.2759  -7.2757  -7.2676  -7.2675  -7.2660  -7.2660  -7.2647  -7.2646
 -7.2576  -7.2575  -7.2564  -7.2563  -1.1196  -1.0931  -0.9698  -0.9301
 -0.8997  -0.8819  -0.8385  -0.7599  -0.7299  -0.6355  -0.6347  -0.5825
 -0.5338  -0.5089  -0.4962  -0.4883  -0.4876  -0.4712  -0.4586  -0.4429
 -0.4407  -0.3956  -0.3743  -0.3728  -0.3645  -0.3620  -0.3510  -0.3469
 -0.3238  -0.3193  -0.2977  -0.2694

          Ground-State Mulliken Net Atomic Charges

     Atom                 Charge (a.u.)
  ----------------------------------------
      1 Cl                    0.673744
      2 C                    -0.617793
      3 C                     0.319031
      4 Cl                    0.375731
      5 C                    -0.522638
      6 O                    -0.226044
      7 C                    -0.525335
      8 O                    -0.225247
      9 C                     0.321277
     10 C                    -0.623300
     11 Cl                    0.674093
     12 Cl                    0.376481
  ----------------------------------------
  Sum of atomic charges =     0.000000

                    Cartesian Multipole Moments
 -----------------------------------------------------------------
    Charge (ESU x 10^10)
                 0.0000
    Dipole Moment (Debye)
         X       4.4110      Y       3.3892      Z       0.1034
       Tot       5.5637
    Quadrupole Moments (Debye-Ang)
        XX    -102.6441     XY      -3.9885     YY    -100.4998
        XZ      -0.0613     YZ      -0.3267     ZZ     -92.1359

 Total job time:  46.48s(wall), 94.50s(cpu)
        *  Thank you very much for using Q-Chem.  Have a nice day.  *
