 Gaussian 16, Revision A.03,
 Gaussian 16:  ES64L-G16RevA.03 25-Dec-2016

 ----------------------------------------------------------------
 #P UB3LYP/6-311++G(d,p) SCRF=(PCM,Solvent=n,n-DiMethylFormamide)
 ----------------------------------------------------------------

 ------------------
 Radical PCM in DMF
 ------------------
 Symbolic Z-matrix:
 Charge = -1 Multiplicity = 2

                         Standard orientation:
 ---------------------------------------------------------------------
 Center     Atomic      Atomic             Coordinates (Angstroms)
 Number     Number       Type             X           Y           Z
 ---------------------------------------------------------------------
      1          6           0        0.308549   -2.097960   -0.000522
      2          6           0       -1.008294   -2.508245   -0.000575
      3          6           0       -2.032181   -1.547559   -0.000021
      4          6           0        0.634708   -0.729050   -0.000069
      5          6           0       -0.402356    0.255708   -0.000018
      6          6           0       -1.761559   -0.183201    0.000267
      7          6           0        2.069569   -0.367421    0.000323
      8          6           0        2.355677    1.036966    0.000027
      9          6           0        1.366670    1.991483   -0.000355
     10          6           0       -0.040703    1.691593   -0.000425
     11          8           0        2.973075   -1.248120    0.000776
     12          8           0       -0.900213    2.617590   -0.000429
     13          1           0        1.131229   -2.803494   -0.000768
     14          6           0       -2.938581    0.768019    0.000881
     15          1           0       -1.257556   -3.565693   -0.001200
     16          1           0       -3.069217   -1.873101    0.000352
     17          1           0        3.404994    1.319361    0.000199
     18          1           0        1.615622    3.049196   -0.000590
     19          1           0       -2.922510    1.429485   -0.867397
     20          1           0       -2.921227    1.430517    0.868060
     21          1           0       -3.873217    0.195973    0.001498
 ---------------------------------------------------------------------

 SCF Done:  E(UB3LYP) =  -574.731603369     A.U. after   19 cycles

 The electronic state is 2-A.
 Alpha  occ. eigenvalues --  -19.07368 -19.07214 -10.22030 -10.21862 -10.18292
 Alpha  occ. eigenvalues --  -10.17501 -10.17175 -10.17039 -10.16678 -10.16458
 Alpha  occ. eigenvalues --  -10.16002 -10.15926 -10.15373  -0.99772  -0.99523
 Alpha  occ. eigenvalues --   -0.85689  -0.80166  -0.76843  -0.73700  -0.68861
 Alpha  occ. eigenvalues --   -0.66372  -0.61051  -0.60390  -0.54073  -0.50161
 Alpha  occ. eigenvalues --   -0.49575  -0.46950  -0.45203  -0.42241  -0.42201
 Alpha  occ. eigenvalues --   -0.41532  -0.40169  -0.39590  -0.39076  -0.38657
 Alpha  occ. eigenvalues --   -0.37152  -0.36679  -0.34533  -0.34385  -0.33587
 Alpha  occ. eigenvalues --   -0.27547  -0.24984  -0.24676  -0.24036  -0.23261
 Alpha  occ. eigenvalues --   -0.15109
 Alpha virt. eigenvalues --   -0.02870  -0.01650  -0.00157   0.00995   0.01169
 Alpha virt. eigenvalues --    0.02611   0.03074   0.03405   0.04468   0.05035
 Alpha virt. eigenvalues --    0.05183   0.06334   0.06408   0.07002   0.07827

  Beta  occ. eigenvalues --  -19.06749 -19.06556 -10.21895 -10.21701 -10.18287
  Beta  occ. eigenvalues --  -10.17468 -10.17130 -10.17011 -10.16635 -10.16444
  Beta  occ. eigenvalues --  -10.15836 -10.15772 -10.15373  -0.98674  -0.98377
  Beta  occ. eigenvalues --   -0.85512  -0.79604  -0.76727  -0.73490  -0.68476
  Beta  occ. eigenvalues --   -0.65679  -0.60732  -0.60180  -0.53832  -0.49886
  Beta  occ. eigenvalues --   -0.49397  -0.46649  -0.45073  -0.41979  -0.41605
  Beta  occ. eigenvalues --   -0.41119  -0.40040  -0.38749  -0.38460  -0.38452
  Beta  occ. eigenvalues --   -0.36518  -0.34652  -0.34365  -0.33530  -0.33476
  Beta  occ. eigenvalues --   -0.24663  -0.24396  -0.23964  -0.23456  -0.22679
  Beta virt. eigenvalues --   -0.08382  -0.02081  -0.00506  -0.00141   0.01008
  Beta virt. eigenvalues --    0.01183   0.02627   0.03096   0.03581   0.04493
  Beta virt. eigenvalues --    0.05191   0.05863   0.06437   0.06749   0.07552

 Mulliken charges and spin densities:
               1          2
     1  C    0.403566   0.051177
     2  C   -0.554785   0.016285
     3  C   -0.579698   0.028619
     4  C    0.189929   0.015310
     5  C    0.184916   0.013099
     6  C    0.719204   0.016420
     7  C   -0.339736   0.101034
     8  C   -0.050975   0.101948
     9  C   -0.202968   0.132115
    10  C   -0.659442   0.087815
    11  O   -0.498755   0.222984
    12  O   -0.458973   0.234268
    13  H    0.161529  -0.002583
    14  C   -0.442614   0.007751
    15  H    0.190134  -0.001749
    16  H    0.125814  -0.002852
    17  H    0.175962  -0.009660
    18  H    0.178202  -0.011534
    19  H    0.157402  -0.000043
    20  H    0.157405  -0.000042
    21  H    0.143884  -0.000360
 Sum of Mulliken charges =  -1.00000   1.00000

 Dipole moment (field-independent basis, Debye):
    X=             -5.4663    Y=             -2.6589    Z=             -0.0010  Tot=              6.0787
 Quadrupole moment (field-independent basis, Debye-Ang):
   XX=           -100.8411   YY=            -97.7711   ZZ=            -81.7645
   XY=             17.2465   XZ=             -0.0081   YZ=              0.0089

 Normal termination of Gaussian 16 at Sun Jan 21 08:17:30 2024.
