 Q-Chem 5.4, Q-Chem, Inc., Pleasanton, CA (2021)
 Q-Chem 5.4.0 for Intel X86 EM64T Linux

User input:
--------------------------------------------------------------
$molecule
-1 2
C                 -1.7955140000      1.1240630000      0.6360610000
C                 -1.1416390000     -0.0937720000     -0.0614240000
C                 -1.6846500000     -1.3678530000      0.6133200000
C                 -1.5749980000     -0.1264320000     -1.5474490000
C                  0.3919640000      0.0155380000      0.0308430000
C                  1.1542410000     -0.9436470000      0.6576310000
C                  2.5987730000     -0.9020140000      0.7794540000
O                  3.2478480000     -1.8157000000      1.3686950000
C                  3.2346340000      0.2494850000      0.1832570000
C                  2.5027440000      1.2186640000     -0.4461010000
C                  1.0613080000      1.1783710000     -0.5680630000
O                  0.4393650000      2.1100210000     -1.1646490000
H                 -2.8890080000      1.0628230000      0.5621280000
H                 -1.5285330000      1.1438540000      1.6979920000
H                 -1.4578430000      2.0512790000      0.1737260000
H                 -2.7758440000     -1.3920920000      0.5168430000
H                 -1.4422230000     -1.3993190000      1.6796080000
H                 -1.2874400000     -2.2755120000      0.1495130000
H                 -1.1501250000     -1.0022360000     -2.0492660000
H                 -2.6682770000     -0.1888210000     -1.6235470000
H                 -1.2320000000      0.7711810000     -2.0613720000
H                  0.6962030000     -1.8153790000      1.1109590000
H                  4.3171880000      0.3131450000      0.2557790000
H                  2.9838250000      2.0843550000     -0.8939380000
$end
$rem
MAX_SCF_CYCLES=200
BASIS  =  6-311++G(d,p)
GUI  =  2
JOB_TYPE  =  SP
METHOD  =  B3LYP
SOLVENT_METHOD = PCM
$end
$pcm
theory = CPCM
$end
$solvent
dielectric 37.219
opticaldielectric 1.43
$end

--------------------------------------------------------------

             Standard Nuclear Orientation (Angstroms)
    I     Atom           X                Y                Z
 ----------------------------------------------------------------
    1      C      -1.7955140000     1.1240630000     0.6360610000
    2      C      -1.1416390000    -0.0937720000    -0.0614240000
    3      C      -1.6846500000    -1.3678530000     0.6133200000
    4      C      -1.5749980000    -0.1264320000    -1.5474490000
    5      C       0.3919640000     0.0155380000     0.0308430000
    6      C       1.1542410000    -0.9436470000     0.6576310000
    7      C       2.5987730000    -0.9020140000     0.7794540000
    8      O       3.2478480000    -1.8157000000     1.3686950000
    9      C       3.2346340000     0.2494850000     0.1832570000
   10      C       2.5027440000     1.2186640000    -0.4461010000
   11      C       1.0613080000     1.1783710000    -0.5680630000
   12      O       0.4393650000     2.1100210000    -1.1646490000
   13      H      -2.8890080000     1.0628230000     0.5621280000
   14      H      -1.5285330000     1.1438540000     1.6979920000
   15      H      -1.4578430000     2.0512790000     0.1737260000
   16      H      -2.7758440000    -1.3920920000     0.5168430000
   17      H      -1.4422230000    -1.3993190000     1.6796080000
   18      H      -1.2874400000    -2.2755120000     0.1495130000
   19      H      -1.1501250000    -1.0022360000    -2.0492660000
   20      H      -2.6682770000    -0.1888210000    -1.6235470000
   21      H      -1.2320000000     0.7711810000    -2.0613720000
   22      H       0.6962030000    -1.8153790000     1.1109590000
   23      H       4.3171880000     0.3131450000     0.2557790000
   24      H       2.9838250000     2.0843550000    -0.8939380000
 ----------------------------------------------------------------

    8    -539.0204391326      8.54e-06  Convergence criterion met
 Total energy in the final basis set =     -539.0204391326

                    Orbital Energies (a.u.)
 --------------------------------------------------------------

 Alpha MOs
 -- Occupied --
-19.0761 -19.0749 -10.2183 -10.2170 -10.1793 -10.1709 -10.1606 -10.1593
-10.1554 -10.1469 -10.1434 -10.1434  -0.9970  -0.9947  -0.8300  -0.7975
 -0.7305  -0.6813  -0.6729  -0.6715  -0.6044  -0.5690  -0.5233  -0.4735
 -0.4682  -0.4481  -0.4294  -0.4291  -0.4173  -0.4094  -0.4009  -0.3836
 -0.3829  -0.3661  -0.3646  -0.3564  -0.3514  -0.3295  -0.3233  -0.3165
 -0.2786  -0.2509  -0.2410  -0.2332  -0.1611

 Beta MOs
 -- Occupied --
-19.0695 -19.0681 -10.2166 -10.2155 -10.1794 -10.1698 -10.1594 -10.1581
-10.1546 -10.1469 -10.1433 -10.1433  -0.9852  -0.9825  -0.8262  -0.7941
 -0.7280  -0.6773  -0.6727  -0.6644  -0.6007  -0.5653  -0.5210  -0.4716
 -0.4643  -0.4461  -0.4279  -0.4269  -0.4165  -0.3958  -0.3954  -0.3799
 -0.3702  -0.3654  -0.3565  -0.3540  -0.3369  -0.3279  -0.3215  -0.3160
 -0.2476  -0.2418  -0.2349  -0.2274

          Ground-State Mulliken Net Atomic Charges

     Atom                 Charge (a.u.)    Spin (a.u.)
  --------------------------------------------------------
      1 C                    -0.696723       0.011009
      2 C                     0.631818      -0.013892
      3 C                    -0.510951      -0.000308
      4 C                    -0.696648       0.011043
      5 C                     1.169754       0.129971
      6 C                    -0.566089      -0.011399
      7 C                    -0.539394       0.139771
      8 O                    -0.531365       0.232520
      9 C                     0.123179       0.091536
     10 C                    -0.034353       0.119747
     11 C                    -0.861666       0.065554
     12 O                    -0.468810       0.250035
     13 H                     0.154244       0.000478
     14 H                     0.138886       0.000724
     15 H                     0.171855      -0.002482
     16 H                     0.176468       0.000011
     17 H                     0.137393      -0.000180
     18 H                     0.137463      -0.000181
     19 H                     0.139182       0.000724
     20 H                     0.154291       0.000497
     21 H                     0.171626      -0.002471
     22 H                     0.208958      -0.007106
     23 H                     0.194424      -0.006910
     24 H                     0.196459      -0.008693
  --------------------------------------------------------
  Sum of atomic charges =    -1.000000

                    Cartesian Multipole Moments
 -----------------------------------------------------------------
    Charge (ESU x 10^10)
                -4.8032
    Dipole Moment (Debye)
         X      -9.3857      Y      -0.2911      Z      -0.7820
       Tot       9.4227
    Quadrupole Moments (Debye-Ang)
        XX    -103.4810     XY      16.1559     YY     -98.4368
        XZ     -11.7980     YZ      13.1371     ZZ     -87.0872

 Total job time:  32.35s(wall), 211.95s(cpu)
        *  Thank you very much for using Q-Chem.  Have a nice day.  *
