 Q-Chem 5.4, Q-Chem, Inc., Pleasanton, CA (2021)
 Q-Chem 5.4.0 for Intel X86 EM64T Linux

User input:
--------------------------------------------------------------
$molecule
-1 2
C                  0.5292760000      1.9000900000     -1.3327470000
C                 -0.5607560000      1.3488050000     -1.9802670000
C                 -0.6581690000     -0.0488750000     -2.1332210000
C                  1.5553570000      1.0790690000     -0.8172520000
C                  1.4587120000     -0.3337000000     -0.9711280000
C                  0.3404570000     -0.8690480000     -1.6336980000
C                  2.6963610000      1.6579260000     -0.1390850000
C                  3.6939570000      0.7373500000      0.3539670000
C                  3.6266530000     -0.6341720000      0.2293880000
C                  2.5042830000     -1.2409900000     -0.4523100000
O                  2.8829340000      2.9040470000      0.0530500000
O                  2.4130020000     -2.4879530000     -0.5982750000
O                  4.7411100000      1.3512250000      0.9782740000
H                  0.6264790000      2.9720800000     -1.2030880000
H                 -1.3428910000      1.9926070000     -2.3721420000
H                 -1.5145510000     -0.4807860000     -2.6423550000
H                  0.2920000000     -1.9470320000     -1.7382410000
H                  4.4894630000      2.2991180000      0.9099160000
C                  4.7094720000     -1.5289630000      0.7741660000
C                  5.7764620000     -1.8754010000     -0.2841920000
C                  6.8197310000     -2.9165210000      0.1864830000
C                  7.7079290000     -3.3647470000     -0.9630810000
C                  8.6144660000     -2.4877120000     -1.5757290000
C                  7.6337470000     -4.6708050000     -1.4594930000
C                  9.4224660000     -2.8986160000     -2.6327220000
C                  9.3331520000     -4.2085900000     -3.0923470000
C                  8.4366750000     -5.0990040000     -2.5168570000
H                  4.2433330000     -2.4607060000      1.1116520000
H                  5.1782620000     -1.0427870000      1.6333390000
H                  6.2886230000     -0.9569860000     -0.5947870000
H                  5.2646290000     -2.2700680000     -1.1663310000
H                  6.2616760000     -3.8002900000      0.5191250000
C                  7.6568890000     -2.4204650000      1.3811500000
H                  8.6847080000     -1.4620570000     -1.2313560000
H                  6.9262490000     -5.3647630000     -1.0174220000
H                  8.3663290000     -6.1103620000     -2.9005250000
O                 10.0918340000     -4.6104550000     -4.1945260000
C                 11.3615790000     -5.0936610000     -4.0070250000
C                 11.9589890000     -5.2586590000     -2.7555430000
C                 12.0619000000     -5.4345460000     -5.1693400000
C                 13.3540160000     -5.9373360000     -5.0760180000
C                 13.2573250000     -5.7644280000     -2.6793390000
C                 13.9626210000     -6.1063300000     -3.8302360000
H                 10.1134140000     -2.2115980000     -3.1079000000
H                  7.0189960000     -2.2131450000      2.2426050000
H                  8.1888360000     -1.4955990000      1.1374770000
H                  8.3985320000     -3.1679910000      1.6795580000
H                 11.4177310000     -4.9955190000     -1.8563990000
H                 11.5757980000     -5.2968510000     -6.1278150000
H                 13.8895340000     -6.1984100000     -5.9825170000
H                 13.7159480000     -5.8898620000     -1.7043490000
H                 14.9707950000     -6.4979820000     -3.7603850000
$end

$rem
BASIS  =  6-311++G(d,p)
GUI  =  2
JOB_TYPE  =  SP
METHOD  =  B3LYP
SCF_CONVERGENCE  = 8
SOLVENT_METHOD = sm12
$end

$smx
solvent dimethylformamide
charges CM5
$end

--------------------------------------------------------------

             Standard Nuclear Orientation (Angstroms)
    I     Atom           X                Y                Z
 ----------------------------------------------------------------
    1      C       0.5292760000     1.9000900000    -1.3327470000
    2      C      -0.5607560000     1.3488050000    -1.9802670000
    3      C      -0.6581690000    -0.0488750000    -2.1332210000
    4      C       1.5553570000     1.0790690000    -0.8172520000
    5      C       1.4587120000    -0.3337000000    -0.9711280000
    6      C       0.3404570000    -0.8690480000    -1.6336980000
    7      C       2.6963610000     1.6579260000    -0.1390850000
    8      C       3.6939570000     0.7373500000     0.3539670000
    9      C       3.6266530000    -0.6341720000     0.2293880000
   10      C       2.5042830000    -1.2409900000    -0.4523100000
   11      O       2.8829340000     2.9040470000     0.0530500000
   12      O       2.4130020000    -2.4879530000    -0.5982750000
   13      O       4.7411100000     1.3512250000     0.9782740000
   14      H       0.6264790000     2.9720800000    -1.2030880000
   15      H      -1.3428910000     1.9926070000    -2.3721420000
   16      H      -1.5145510000    -0.4807860000    -2.6423550000
   17      H       0.2920000000    -1.9470320000    -1.7382410000
   18      H       4.4894630000     2.2991180000     0.9099160000
   19      C       4.7094720000    -1.5289630000     0.7741660000
   20      C       5.7764620000    -1.8754010000    -0.2841920000
   21      C       6.8197310000    -2.9165210000     0.1864830000
   22      C       7.7079290000    -3.3647470000    -0.9630810000
   23      C       8.6144660000    -2.4877120000    -1.5757290000
   24      C       7.6337470000    -4.6708050000    -1.4594930000
   25      C       9.4224660000    -2.8986160000    -2.6327220000
   26      C       9.3331520000    -4.2085900000    -3.0923470000
   27      C       8.4366750000    -5.0990040000    -2.5168570000
   28      H       4.2433330000    -2.4607060000     1.1116520000
   29      H       5.1782620000    -1.0427870000     1.6333390000
   30      H       6.2886230000    -0.9569860000    -0.5947870000
   31      H       5.2646290000    -2.2700680000    -1.1663310000
   32      H       6.2616760000    -3.8002900000     0.5191250000
   33      C       7.6568890000    -2.4204650000     1.3811500000
   34      H       8.6847080000    -1.4620570000    -1.2313560000
   35      H       6.9262490000    -5.3647630000    -1.0174220000
   36      H       8.3663290000    -6.1103620000    -2.9005250000
   37      O      10.0918340000    -4.6104550000    -4.1945260000
   38      C      11.3615790000    -5.0936610000    -4.0070250000
   39      C      11.9589890000    -5.2586590000    -2.7555430000
   40      C      12.0619000000    -5.4345460000    -5.1693400000
   41      C      13.3540160000    -5.9373360000    -5.0760180000
   42      C      13.2573250000    -5.7644280000    -2.6793390000
   43      C      13.9626210000    -6.1063300000    -3.8302360000
   44      H      10.1134140000    -2.2115980000    -3.1079000000
   45      H       7.0189960000    -2.2131450000     2.2426050000
   46      H       8.1888360000    -1.4955990000     1.1374770000
   47      H       8.3985320000    -3.1679910000     1.6795580000
   48      H      11.4177310000    -4.9955190000    -1.8563990000
   49      H      11.5757980000    -5.2968510000    -6.1278150000
   50      H      13.8895340000    -6.1984100000    -5.9825170000
   51      H      13.7159480000    -5.8898620000    -1.7043490000
   52      H      14.9707950000    -6.4979820000    -3.7603850000
 ----------------------------------------------------------------

   17   -1305.3412073192      9.88e-09  Convergence criterion met
 Total energy in the final basis set =    -1305.4342893855

                    Orbital Energies (a.u.)
 --------------------------------------------------------------

 Alpha MOs
 -- Occupied --
-19.1688 -19.1444 -19.0859 -19.0732 -10.2474 -10.2393 -10.2239 -10.2236
-10.2215 -10.1864 -10.1851 -10.1848 -10.1841 -10.1834 -10.1822 -10.1818
-10.1817 -10.1810 -10.1809 -10.1804 -10.1804 -10.1798 -10.1789 -10.1781
-10.1775 -10.1769 -10.1657 -10.1654 -10.1651 -10.1597  -1.0874  -1.0640
 -0.9983  -0.9955  -0.8748  -0.8640  -0.8609  -0.8216  -0.8054  -0.7727
 -0.7598  -0.7593  -0.7576  -0.7558  -0.7291  -0.7113  -0.6764  -0.6566
 -0.6394  -0.6271  -0.6219  -0.6193  -0.6020  -0.5874  -0.5744  -0.5666
 -0.5564  -0.5415  -0.5127  -0.5079  -0.4946  -0.4891  -0.4839  -0.4785
 -0.4681  -0.4593  -0.4545  -0.4508  -0.4440  -0.4396  -0.4345  -0.4332
 -0.4320  -0.4269  -0.4187  -0.4153  -0.4116  -0.4048  -0.3977  -0.3910
 -0.3903  -0.3869  -0.3813  -0.3745  -0.3713  -0.3683  -0.3636  -0.3551
 -0.3520  -0.3470  -0.3442  -0.3431  -0.3378  -0.3316  -0.3275  -0.3228
 -0.2709  -0.2695  -0.2643  -0.2639  -0.2588  -0.2500  -0.2380  -0.2373
 -0.2303  -0.1521

 Beta MOs
 -- Occupied --
-19.1688 -19.1440 -19.0792 -19.0676 -10.2474 -10.2393 -10.2229 -10.2227
-10.2189 -10.1864 -10.1851 -10.1848 -10.1841 -10.1834 -10.1822 -10.1817
-10.1817 -10.1810 -10.1809 -10.1801 -10.1798 -10.1795 -10.1785 -10.1780
-10.1769 -10.1767 -10.1656 -10.1653 -10.1644 -10.1597  -1.0874  -1.0619
 -0.9886  -0.9843  -0.8748  -0.8617  -0.8609  -0.8203  -0.8029  -0.7715
 -0.7596  -0.7591  -0.7558  -0.7550  -0.7286  -0.7102  -0.6697  -0.6548
 -0.6385  -0.6271  -0.6210  -0.6186  -0.6005  -0.5865  -0.5722  -0.5662
 -0.5564  -0.5399  -0.5124  -0.5062  -0.4944  -0.4871  -0.4839  -0.4778
 -0.4666  -0.4585  -0.4545  -0.4507  -0.4432  -0.4349  -0.4339  -0.4329
 -0.4312  -0.4222  -0.4167  -0.4117  -0.4091  -0.4036  -0.3958  -0.3897
 -0.3855  -0.3807  -0.3791  -0.3745  -0.3694  -0.3662  -0.3600  -0.3515
 -0.3481  -0.3457  -0.3412  -0.3374  -0.3301  -0.3296  -0.3254  -0.3221
 -0.2695  -0.2643  -0.2569  -0.2530  -0.2505  -0.2494  -0.2373  -0.2327
 -0.2204

          Ground-State Mulliken Net Atomic Charges

     Atom                 Charge (a.u.)    Spin (a.u.)
  --------------------------------------------------------
      1 C                     0.095203       0.073722
      2 C                     0.721355       0.002526
      3 C                     0.711688       0.075073
      4 C                    -0.914988       0.001085
      5 C                    -1.056871       0.077780
      6 C                    -0.260453      -0.002838
      7 C                    -1.586049       0.141700
      8 C                    -0.616783       0.055420
      9 C                     1.968982       0.048895
     10 C                    -2.192144       0.053339
     11 O                    -0.380967       0.248326
     12 O                    -0.288645       0.210393
     13 O                    -0.116344       0.016054
     14 H                     0.173113      -0.003948
     15 H                     0.351293      -0.000676
     16 H                     0.335626      -0.005345
     17 H                     0.144407      -0.000153
     18 H                     0.287855      -0.004005
     19 C                     0.092439       0.010061
     20 C                    -1.370256      -0.001094
     21 C                     0.492697       0.005820
     22 C                     0.294493      -0.004125
     23 C                    -0.408812      -0.001388
     24 C                    -0.018445       0.000866
     25 C                     0.312266       0.000802
     26 C                    -0.198226       0.000499
     27 C                     0.343768       0.000063
     28 H                     0.123554       0.003067
     29 H                     0.213660      -0.001472
     30 H                    -0.019738       0.003890
     31 H                     0.065463      -0.002332
     32 H                     0.162226       0.000583
     33 C                    -0.142050      -0.002550
     34 H                     0.260416      -0.000171
     35 H                     0.265830      -0.000036
     36 H                     0.275459       0.000003
     37 O                    -0.035702      -0.000003
     38 C                    -0.962910      -0.000035
     39 C                    -0.255560       0.000011
     40 C                    -0.175586       0.000039
     41 C                     0.089442      -0.000012
     42 C                     0.109282      -0.000030
     43 C                     0.064325       0.000007
     44 H                     0.263930      -0.000029
     45 H                     0.166286      -0.000034
     46 H                     0.107745       0.000053
     47 H                     0.266108       0.000187
     48 H                     0.190011       0.000013
     49 H                     0.208998       0.000002
     50 H                     0.293496      -0.000002
     51 H                     0.286490      -0.000001
     52 H                     0.262622       0.000001
  --------------------------------------------------------
  Sum of atomic charges =    -1.000000

                    Cartesian Multipole Moments
 -----------------------------------------------------------------
    Charge (ESU x 10^10)
                -4.8032
    Dipole Moment (Debye)
         X     -14.2281      Y       0.4133      Z       3.1673
       Tot      14.5823
    Quadrupole Moments (Debye-Ang)
        XX    -239.5897     XY       7.8537     YY    -212.3672
        XZ      17.9564     YZ     -10.6731     ZZ    -190.4407

 Total job time:  3553.24s(wall), 24304.76s(cpu)
        *  Thank you very much for using Q-Chem.  Have a nice day.  *
