 Gaussian 16, Revision A.03,
 Gaussian 16:  ES64L-G16RevA.03 25-Dec-2016

 --------------------------------------
 #P UB3LYP/6-311++G(d,p) nosym opt freq
 --------------------------------------

 --------
 Oxidized
 --------
 Symbolic Z-matrix:
 Charge =  0 Multiplicity = 1

 SCF Done:  E(UB3LYP) =  -692.526708110     A.U. after   15 cycles
 SCF Done:  E(UB3LYP) =  -692.551317298     A.U. after   13 cycles
 SCF Done:  E(UB3LYP) =  -692.554843363     A.U. after   13 cycles
 SCF Done:  E(UB3LYP) =  -692.556270982     A.U. after   13 cycles
 SCF Done:  E(UB3LYP) =  -692.556430414     A.U. after   12 cycles
 SCF Done:  E(UB3LYP) =  -692.556444206     A.U. after   12 cycles
 SCF Done:  E(UB3LYP) =  -692.556470788     A.U. after   11 cycles
 SCF Done:  E(UB3LYP) =  -692.556473768     A.U. after   10 cycles
 SCF Done:  E(UB3LYP) =  -692.556475240     A.U. after   10 cycles
 SCF Done:  E(UB3LYP) =  -692.556475648     A.U. after    9 cycles
 Optimization completed.
    -- Stationary point found.
 Normal termination of Gaussian 16 at Tue Dec 26 20:33:25 2023.

 ----------------------------------------------------------------------
 #P Geom=AllCheck Guess=TCheck SCRF=Check GenChk UB3LYP/6-311++G(d,p) F
 req
 ----------------------------------------------------------------------

 Structure from the checkpoint file:  "239.chk"
 --------
 Oxidized
 --------
 Charge =  0 Multiplicity = 1

                          Input orientation:
 ---------------------------------------------------------------------
 Center     Atomic      Atomic             Coordinates (Angstroms)
 Number     Number       Type             X           Y           Z
 ---------------------------------------------------------------------
      1          6           0       -2.913089    1.313125   -0.747814
      2          6           0       -2.196384    0.084859   -0.155990
      3          6           0       -2.733555   -0.133194    1.281192
      4          6           0       -2.540923   -1.139835   -1.040818
      5          6           0       -0.676128    0.285838   -0.116703
      6          6           0       -0.075121    1.411304   -0.555096
      7          6           0        1.382267    1.658482   -0.540900
      8          8           0        1.830670    2.714466   -0.962438
      9          6           0        2.257334    0.585832   -0.001291
     10          6           0        3.642637    0.757558    0.040791
     11          6           0        4.450441   -0.254175    0.548415
     12          6           0        3.877000   -1.439995    1.015287
     13          6           0        2.497750   -1.615032    0.975031
     14          6           0        1.678427   -0.602902    0.466328
     15          6           0        0.196470   -0.814125    0.433173
     16          8           0       -0.276297   -1.860609    0.846397
     17          1           0       -2.606777    1.511870   -1.778594
     18          1           0       -3.989792    1.127385   -0.755697
     19          1           0       -2.740153    2.215960   -0.155498
     20          1           0       -2.316602   -1.030101    1.735698
     21          1           0       -3.822026   -0.237194    1.248128
     22          1           0       -2.499936    0.725093    1.918208
     23          1           0       -3.627721   -1.251810   -1.095402
     24          1           0       -2.120677   -2.059470   -0.637668
     25          1           0       -2.168593   -1.000433   -2.060120
     26          1           0       -0.642833    2.238476   -0.961552
     27          1           0        4.062382    1.685823   -0.327173
     28          1           0        5.525982   -0.122671    0.581958
     29          1           0        4.508716   -2.227335    1.410671
     30          1           0        2.036532   -2.527189    1.332387
 ---------------------------------------------------------------------

 SCF Done:  E(UB3LYP) =  -692.556475648     A.U. after    1 cycles

 Alpha  occ. eigenvalues --  -19.13363 -19.12908 -10.28491 -10.27759 -10.21999
 Alpha  occ. eigenvalues --  -10.20991 -10.20803 -10.20772 -10.20415 -10.20351
 Alpha  occ. eigenvalues --  -10.20297 -10.20063 -10.20058 -10.16970 -10.16358
 Alpha  occ. eigenvalues --  -10.16357  -1.06816  -1.06006  -0.89302  -0.85945
 Alpha  occ. eigenvalues --   -0.81338  -0.78075  -0.77075  -0.70412  -0.69366
 Alpha  occ. eigenvalues --   -0.69162  -0.65360  -0.64406  -0.59499  -0.56749
 Alpha  occ. eigenvalues --   -0.54258  -0.52738  -0.49937  -0.49145  -0.46472
 Alpha  occ. eigenvalues --   -0.46108  -0.45825  -0.45394  -0.44606  -0.44417
 Alpha  occ. eigenvalues --   -0.43884  -0.42011  -0.41889  -0.39565  -0.39027
 Alpha  occ. eigenvalues --   -0.38730  -0.38111  -0.37332  -0.37194  -0.36060
 Alpha  occ. eigenvalues --   -0.34753  -0.34230  -0.29795  -0.28214  -0.28141
 Alpha  occ. eigenvalues --   -0.28081  -0.27016
 Alpha virt. eigenvalues --   -0.12405  -0.05911  -0.03526  -0.01172  -0.00613
 Alpha virt. eigenvalues --    0.01040   0.01370   0.01455   0.01713   0.02338
 Alpha virt. eigenvalues --    0.03232   0.03421   0.03730   0.04178   0.04599

  Beta  occ. eigenvalues --  -19.13363 -19.12908 -10.28491 -10.27759 -10.21999
  Beta  occ. eigenvalues --  -10.20991 -10.20803 -10.20772 -10.20415 -10.20351
  Beta  occ. eigenvalues --  -10.20297 -10.20063 -10.20058 -10.16970 -10.16358
  Beta  occ. eigenvalues --  -10.16357  -1.06816  -1.06006  -0.89302  -0.85945
  Beta  occ. eigenvalues --   -0.81338  -0.78075  -0.77075  -0.70412  -0.69366
  Beta  occ. eigenvalues --   -0.69162  -0.65360  -0.64406  -0.59499  -0.56749
  Beta  occ. eigenvalues --   -0.54258  -0.52738  -0.49937  -0.49145  -0.46472
  Beta  occ. eigenvalues --   -0.46108  -0.45825  -0.45394  -0.44606  -0.44417
  Beta  occ. eigenvalues --   -0.43884  -0.42011  -0.41889  -0.39565  -0.39027
  Beta  occ. eigenvalues --   -0.38730  -0.38111  -0.37332  -0.37194  -0.36060
  Beta  occ. eigenvalues --   -0.34753  -0.34230  -0.29795  -0.28214  -0.28141
  Beta  occ. eigenvalues --   -0.28081  -0.27016
  Beta virt. eigenvalues --   -0.12405  -0.05911  -0.03526  -0.01172  -0.00613
  Beta virt. eigenvalues --    0.01040   0.01370   0.01455   0.01713   0.02338
  Beta virt. eigenvalues --    0.03232   0.03421   0.03730   0.04178   0.04599

 Mulliken charges and spin densities:
               1          2
     1  C   -0.450940  -0.000000
     2  C    0.601446   0.000000
     3  C   -0.666430   0.000000
     4  C   -0.665704   0.000000
     5  C    0.895069  -0.000000
     6  C   -0.214815   0.000000
     7  C   -0.824926   0.000000
     8  O   -0.224326   0.000000
     9  C    0.659444   0.000000
    10  C   -0.121461   0.000000
    11  C   -0.347961  -0.000000
    12  C   -0.327289   0.000000
    13  C    0.185572   0.000000
    14  C    0.397965  -0.000000
    15  C   -1.090293  -0.000000
    16  O   -0.180633   0.000000
    17  H    0.134926  -0.000000
    18  H    0.175240  -0.000000
    19  H    0.134834  -0.000000
    20  H    0.196749   0.000000
    21  H    0.157189  -0.000000
    22  H    0.138784   0.000000
    23  H    0.157321  -0.000000
    24  H    0.196723   0.000000
    25  H    0.138820   0.000000
    26  H    0.224145  -0.000000
    27  H    0.178822  -0.000000
    28  H    0.179819  -0.000000
    29  H    0.177371   0.000000
    30  H    0.184541  -0.000000
 Sum of Mulliken charges =  -0.00000   0.00000

 Dipole moment (field-independent basis, Debye):
    X=              0.3233    Y=             -1.0447    Z=              0.4861  Tot=              1.1968
 Quadrupole moment (field-independent basis, Debye-Ang):
   XX=            -80.8565   YY=           -105.0728   ZZ=            -97.6229
   XY=             -9.0411   XZ=              5.2982   YZ=              2.7111

  Exact polarizability: 221.366   5.606 173.224   7.339 -29.175 118.257
 Approx polarizability: 308.483  36.398 325.957  -3.413 -68.486 190.666

                      1                      2                      3
                      A                      A                      A
 Frequencies --     33.2062                67.7982               117.9744
 Red. masses --      4.8417                 3.4818                 5.0154
 Frc consts  --      0.0031                 0.0094                 0.0411
 IR Inten    --      3.6033                 0.1169                 0.4852

                      4                      5                      6
                      A                      A                      A
 Frequencies --    137.7344               175.5509               188.7596
 Red. masses --      4.2070                 4.0182                 4.3889
 Frc consts  --      0.0470                 0.0730                 0.0921
 IR Inten    --      4.6181                 0.6011                 0.0029

                      7                      8                      9
                      A                      A                      A
 Frequencies --    210.3472               248.6723               265.7428
 Red. masses --      1.3050                 1.1408                 3.0400
 Frc consts  --      0.0340                 0.0416                 0.1265
 IR Inten    --      0.5692                 0.0745                 0.1569

                     10                     11                     12
                      A                      A                      A
 Frequencies --    271.1960               283.0338               319.3626
 Red. masses --      2.3890                 5.3428                 2.8971
 Frc consts  --      0.1035                 0.2522                 0.1741
 IR Inten    --      0.0134                 0.6768                 0.2081

                     13                     14                     15
                      A                      A                      A
 Frequencies --    332.5258               377.8075               385.7319
 Red. masses --      1.0620                 2.2833                 9.3032
 Frc consts  --      0.0692                 0.1920                 0.8156
 IR Inten    --      0.0676                 0.1493                16.4365

                     16                     17                     18
                      A                      A                      A
 Frequencies --    415.6271               417.0933               461.0332
 Red. masses --      3.1753                 2.8768                 4.3135
 Frc consts  --      0.3232                 0.2949                 0.5402
 IR Inten    --      0.3307                 1.0439                 0.0848

                     19                     20                     21
                      A                      A                      A
 Frequencies --    464.5560               470.0421               527.2987
 Red. masses --      6.0907                 6.3756                 3.7169
 Frc consts  --      0.7744                 0.8299                 0.6089
 IR Inten    --      5.2246                 2.3539                 0.7016

                     22                     23                     24
                      A                      A                      A
 Frequencies --    534.6850               633.0527               683.6502
 Red. masses --      3.7170                 5.4655                 5.7315
 Frc consts  --      0.6261                 1.2905                 1.5783
 IR Inten    --      5.8489                 9.5572                 0.1238

                     25                     26                     27
                      A                      A                      A
 Frequencies --    685.3270               719.9454               734.6919
 Red. masses --      3.7781                 6.2656                 2.9788
 Frc consts  --      1.0455                 1.9134                 0.9473
 IR Inten    --      7.4560                 2.2605                36.9201

                     28                     29                     30
                      A                      A                      A
 Frequencies --    789.2306               792.0709               818.2342
 Red. masses --      4.0185                 1.6705                 4.7507
 Frc consts  --      1.4747                 0.6175                 1.8740
 IR Inten    --      0.4138                34.3990                 1.8284

                     31                     32                     33
                      A                      A                      A
 Frequencies --    823.2459               902.9735               915.9935
 Red. masses --      4.4212                 3.3706                 1.3844
 Frc consts  --      1.7654                 1.6192                 0.6844
 IR Inten    --      0.6699                54.9436                 0.2090

                     34                     35                     36
                      A                      A                      A
 Frequencies --    925.3136               939.4721               941.0332
 Red. masses --      1.8473                 1.7454                 1.4768
 Frc consts  --      0.9319                 0.9076                 0.7705
 IR Inten    --      2.4030                 5.6728                11.3939

                     37                     38                     39
                      A                      A                      A
 Frequencies --    965.5119              1001.2626              1017.5911
 Red. masses --      1.1993                 1.3847                 1.3263
 Frc consts  --      0.6587                 0.8179                 0.8092
 IR Inten    --      0.0906                 0.8892                 0.0001

                     40                     41                     42
                      A                      A                      A
 Frequencies --   1044.2977              1047.1501              1048.8167
 Red. masses --      1.5018                 2.6210                 1.3833
 Frc consts  --      0.9650                 1.6933                 0.8966
 IR Inten    --      6.1587                 5.0998                 0.1441

                     43                     44                     45
                      A                      A                      A
 Frequencies --   1094.2745              1103.7493              1143.7881
 Red. masses --      2.9457                 2.8927                 1.7840
 Frc consts  --      2.0783                 2.0763                 1.3751
 IR Inten    --      4.8892                 6.9959                25.3911

                     46                     47                     48
                      A                      A                      A
 Frequencies --   1183.1434              1216.0624              1221.5638
 Red. masses --      1.1320                 2.6768                 2.3302
 Frc consts  --      0.9336                 2.3323                 2.0487
 IR Inten    --      7.2918                 2.3557                32.1437

                     49                     50                     51
                      A                      A                      A
 Frequencies --   1242.2023              1267.9876              1280.7978
 Red. masses --      2.3183                 2.5237                 2.2018
 Frc consts  --      2.1077                 2.3907                 2.1281
 IR Inten    --      3.7972               160.2000                37.1090

                     52                     53                     54
                      A                      A                      A
 Frequencies --   1324.3278              1352.4558              1361.3376
 Red. masses --      2.9975                 2.3065                 5.6167
 Frc consts  --      3.0974                 2.4857                 6.1328
 IR Inten    --    136.8315                25.3795                23.2770

                     55                     56                     57
                      A                      A                      A
 Frequencies --   1392.5464              1398.3682              1427.9976
 Red. masses --      1.1958                 1.2307                 1.2183
 Frc consts  --      1.3662                 1.4179                 1.4637
 IR Inten    --      9.3235                15.3618                 7.6927

                     58                     59                     60
                      A                      A                      A
 Frequencies --   1480.6293              1482.3077              1495.8498
 Red. masses --      1.0460                 2.3764                 1.0493
 Frc consts  --      1.3510                 3.0765                 1.3833
 IR Inten    --      0.0123                 0.4450                 1.3489

                     61                     62                     63
                      A                      A                      A
 Frequencies --   1498.7696              1503.2278              1506.9623
 Red. masses --      1.0449                 1.0558                 2.6110
 Frc consts  --      1.3829                 1.4056                 3.4935
 IR Inten    --      0.3488                13.8888                 3.0751

                     64                     65                     66
                      A                      A                      A
 Frequencies --   1512.9332              1529.6422              1614.0444
 Red. masses --      1.0489                 1.0600                 6.7704
 Frc consts  --      1.4146                 1.4613                10.3919
 IR Inten    --      7.8439                18.8959                 4.5664

                     67                     68                     69
                      A                      A                      A
 Frequencies --   1628.8355              1649.5508              1713.7458
 Red. masses --      5.8408                 8.6293                11.1642
 Frc consts  --      9.1302                13.8344                19.3185
 IR Inten    --     67.1898                63.9492                 9.1876

                     70                     71                     72
                      A                      A                      A
 Frequencies --   1718.9514              3023.0691              3025.3569
 Red. masses --     11.4603                 1.0358                 1.0383
 Frc consts  --     19.9514                 5.5773                 5.5992
 IR Inten    --    395.6947                13.3089                37.3517

                     73                     74                     75
                      A                      A                      A
 Frequencies --   3031.0089              3081.2725              3082.8414
 Red. masses --      1.0388                 1.1022                 1.1016
 Frc consts  --      5.6228                 6.1655                 6.1685
 IR Inten    --     32.6696                 7.3758                21.7886

                     76                     77                     78
                      A                      A                      A
 Frequencies --   3090.1046              3095.1839              3136.9344
 Red. masses --      1.1022                 1.1006                 1.0981
 Frc consts  --      6.2012                 6.2120                 6.3665
 IR Inten    --     33.1842                56.4762                 0.0453

                     79                     80                     81
                      A                      A                      A
 Frequencies --   3139.4692              3170.1360              3184.4105
 Red. masses --      1.0974                 1.0870                 1.0917
 Frc consts  --      6.3729                 6.4362                 6.5224
 IR Inten    --     13.8828                 3.2231                 9.4324

                     82                     83                     84
                      A                      A                      A
 Frequencies --   3199.0672              3201.1097              3202.9499
 Red. masses --      1.0932                 1.0900                 1.0943
 Frc consts  --      6.5917                 6.5805                 6.6146
 IR Inten    --      2.6755                 1.7175                 8.1880

 - Thermochemistry -
 -------------------
 Temperature   298.150 Kelvin.  Pressure   1.00000 Atm.
 Atom     1 has atomic number  6 and mass  12.00000

 Molecular mass:   214.09938 amu.
 Principal axes and moments of inertia in atomic units:
                           1         2         3
     Eigenvalues --  1786.888244673.322176056.91067
           X            0.99495   0.06492  -0.07659
           Y           -0.02928   0.91729   0.39714
           Z            0.09604  -0.39289   0.91455
 This molecule is an asymmetric top.
 Rotational symmetry number  1.
 Warning -- assumption of classical behavior for rotation
           may cause significant error
 Rotational temperatures (Kelvin)      0.04847     0.01853     0.01430
 Rotational constants (GHZ):           1.00999     0.38618     0.29796
 Zero-point vibrational energy     640861.1 (Joules/Mol)
                                  153.16948 (Kcal/Mol)
 Warning -- explicit consideration of  22 degrees of freedom as
           vibrations may cause significant error
 Vibrational temperatures:     47.78    97.55   169.74   198.17   252.58
          (Kelvin)            271.58   302.64   357.78   382.34   390.19
                              407.22   459.49   478.43   543.58   554.98
                              597.99   600.10   663.32   668.39   676.29
                              758.67   769.29   910.82   983.62   986.03
                             1035.84  1057.06  1135.53  1139.61  1177.26
                             1184.47  1299.18  1317.91  1331.32  1351.69
                             1353.94  1389.16  1440.59  1464.09  1502.51
                             1506.62  1509.01  1574.42  1588.05  1645.66
                             1702.28  1749.64  1757.56  1787.25  1824.35
                             1842.78  1905.41  1945.88  1958.66  2003.56
                             2011.94  2054.57  2130.30  2132.71  2152.19
                             2156.40  2162.81  2168.18  2176.77  2200.81
                             2322.25  2343.53  2373.34  2465.70  2473.19
                             4349.52  4352.81  4360.95  4433.26  4435.52
                             4445.97  4453.28  4513.35  4517.00  4561.12
                             4581.66  4602.74  4605.68  4608.33

 Zero-point correction=                           0.244091 (Hartree/Particle)
 Thermal correction to Energy=                    0.258316
 Thermal correction to Enthalpy=                  0.259260
 Thermal correction to Gibbs Free Energy=         0.203540
 Sum of electronic and zero-point Energies=           -692.312385
 Sum of electronic and thermal Energies=              -692.298160
 Sum of electronic and thermal Enthalpies=            -692.297215
 Sum of electronic and thermal Free Energies=         -692.352936

                     E (Thermal)             CV                S
                      KCal/Mol        Cal/Mol-Kelvin    Cal/Mol-Kelvin
 Total                  162.096             56.416            117.273
 Electronic               0.000              0.000              0.000
 Translational            0.889              2.981             41.987
 Rotational               0.889              2.981             32.292
 Vibrational            160.318             50.455             42.994
 Vibration     1          0.594              1.983              5.628
 Vibration     2          0.598              1.970              4.216
 Vibration     3          0.608              1.934              3.133
 Vibration     4          0.614              1.916              2.835
 Vibration     5          0.628              1.873              2.375
 Vibration     6          0.633              1.855              2.240
 Vibration     7          0.643              1.825              2.041
 Vibration     8          0.662              1.765              1.740
 Vibration     9          0.672              1.736              1.624
 Vibration    10          0.675              1.726              1.589
 Vibration    11          0.682              1.705              1.515
 Vibration    12          0.705              1.637              1.313
 Vibration    13          0.714              1.611              1.248
 Vibration    14          0.748              1.517              1.048
 Vibration    15          0.754              1.501              1.017
 Vibration    16          0.779              1.436              0.907
 Vibration    17          0.780              1.433              0.902
 Vibration    18          0.819              1.336              0.763
 Vibration    19          0.822              1.329              0.753
 Vibration    20          0.827              1.317              0.737
 Vibration    21          0.882              1.190              0.593
 Vibration    22          0.890              1.173              0.577

                           ! Non-Optimized Parameters !
 Normal termination of Gaussian 16 at Tue Dec 26 21:06:55 2023.
