 Q-Chem 5.4, Q-Chem, Inc., Pleasanton, CA (2021)
 Q-Chem 5.4.0 for Intel X86 EM64T Linux

User input:
--------------------------------------------------------------
$molecule
0 1
N                 -2.5914940000     -2.2768770000      0.4320780000
C                 -2.3339640000     -0.9668800000      0.1610720000
C                 -3.4252490000     -0.0877560000     -0.0322350000
C                 -3.2276540000      1.2454050000     -0.2810160000
C                 -1.9348190000      1.7981520000     -0.3524600000
O                 -1.7898880000      3.1275410000     -0.5966720000
C                 -0.8211970000      0.9673160000     -0.1730040000
C                  0.5558870000      1.5366320000     -0.2484890000
O                  0.7699010000      2.7217590000     -0.4449220000
C                  1.7044970000      0.5980330000     -0.0740590000
C                  3.0071060000      1.1039850000     -0.1500190000
C                  4.0950940000      0.2557860000      0.0064080000
C                  3.8929910000     -1.1085790000      0.2414580000
C                  2.6040040000     -1.6176460000      0.3188540000
C                  1.5023030000     -0.7670190000      0.1614160000
C                  0.1318610000     -1.3325680000      0.2512750000
O                 -0.0035950000     -2.5444500000      0.4626130000
C                 -1.0191410000     -0.4313430000      0.0822120000
H                 -3.5331980000     -2.6215210000      0.3594180000
H                 -1.8060340000     -2.9128360000      0.4938110000
H                 -4.4342790000     -0.4826730000      0.0231430000
H                 -4.0860620000      1.8960310000     -0.4248440000
H                 -2.6631770000      3.5230710000     -0.6943820000
H                  3.1371520000      2.1632750000     -0.3325870000
H                  5.1026480000      0.6518410000     -0.0536440000
H                  4.7437740000     -1.7694800000      0.3636810000
H                  2.4225310000     -2.6691990000      0.5008940000
$end
$rem
MAX_SCF_CYCLES=200
BASIS  =  6-311++G(d,p)
GUI  =  2
JOB_TYPE  =  SP
METHOD  =  B3LYP
SOLVENT_METHOD = COSMO
$end
$solvent
dielectric 37.219
opticaldielectric 1.43
$end

--------------------------------------------------------------

             Standard Nuclear Orientation (Angstroms)
    I     Atom           X                Y                Z
 ----------------------------------------------------------------
    1      N      -2.2332620630    -2.7807897801     0.0449420117
    2      C      -2.1649079413    -1.4206974243     0.0084099612
    3      C      -3.3711544286    -0.6819829113    -0.0115859149
    4      C      -3.3644483364     0.6884597904    -0.0213763022
    5      C      -2.1614791457     1.4197438402    -0.0093516139
    6      O      -2.2062423479     2.7783783290    -0.0146610996
    7      C      -0.9401377852     0.7336269627     0.0053380152
    8      C       0.3438695786     1.4934987629     0.0152865371
    9      O       0.3887281304     2.7127904782     0.0304306834
   10      C       1.6141993508     0.7080922665     0.0053999155
   11      C       2.8329890421     1.3959138105     0.0045242276
   12      C       4.0304379462     0.6933260451    -0.0062178350
   13      C       4.0229678246    -0.7057612061    -0.0154394986
   14      C       2.8181394315    -1.3949730278    -0.0138757067
   15      C       1.6067474626    -0.6917515357    -0.0035248085
   16      C       0.3293403057    -1.4495375668     0.0012577648
   17      O       0.3664266089    -2.6865727005    -0.0049667258
   18      C      -0.9381203921    -0.7018311768     0.0097980483
   19      H      -3.1219345321    -3.2351625778    -0.0761859756
   20      H      -1.3674870220    -3.3020863083    -0.0173936338
   21      H      -4.3149802504    -1.2170996080    -0.0148477717
   22      H      -4.3074672323     1.2282354977    -0.0362936659
   23      H      -3.1278963679     3.0593765071    -0.0294527803
   24      H       2.8121835630     2.4784342074     0.0119446874
   25      H       4.9724760471     1.2301629290    -0.0073337523
   26      H       4.9590233492    -1.2528399470    -0.0235149476
   27      H       2.7869602781    -2.4770208712    -0.0197958461
 ----------------------------------------------------------------

    9    -819.5725775894      4.80e-06  Convergence criterion met
 Total energy in the final basis set =     -819.5725775894
    5    -819.5985482923      6.31e-06  Convergence criterion met
 Total energy in the final basis set =     -819.5985482923

                    Orbital Energies (a.u.)
 --------------------------------------------------------------

 Alpha MOs
 -- Occupied --
-19.1674 -19.1204 -19.1179 -14.3296 -10.2752 -10.2738 -10.2589 -10.2438
-10.2046 -10.2013 -10.2009 -10.1999 -10.1992 -10.1967 -10.1917 -10.1912
-10.1901 -10.1900  -1.0835  -1.0557  -1.0541  -0.9405  -0.8843  -0.8628
 -0.8078  -0.7719  -0.7686  -0.7517  -0.6853  -0.6665  -0.6507  -0.6164
 -0.5910  -0.5765  -0.5689  -0.5383  -0.5220  -0.5038  -0.4892  -0.4797
 -0.4733  -0.4585  -0.4570  -0.4474  -0.4430  -0.4384  -0.4241  -0.4175
 -0.4134  -0.4029  -0.3841  -0.3832  -0.3725  -0.3691  -0.3621  -0.3108
 -0.2861  -0.2788  -0.2729  -0.2728  -0.2646  -0.2146

          Ground-State Mulliken Net Atomic Charges

     Atom                 Charge (a.u.)
  ----------------------------------------
      1 N                    -0.454301
      2 C                     0.191473
      3 C                    -0.166381
      4 C                    -0.306068
      5 C                    -0.176411
      6 O                    -0.237453
      7 C                     0.411474
      8 C                    -0.342915
      9 O                    -0.319477
     10 C                    -0.091767
     11 C                     0.197272
     12 C                    -0.480910
     13 C                    -0.511601
     14 C                     0.279418
     15 C                     0.054220
     16 C                    -0.321189
     17 O                    -0.344774
     18 C                     0.360059
     19 H                     0.318866
     20 H                     0.343004
     21 H                     0.227671
     22 H                     0.218192
     23 H                     0.320964
     24 H                     0.191345
     25 H                     0.220740
     26 H                     0.220600
     27 H                     0.197949
  ----------------------------------------
  Sum of atomic charges =     0.000000

                    Cartesian Multipole Moments
 -----------------------------------------------------------------
    Charge (ESU x 10^10)
                 0.0000
    Dipole Moment (Debye)
         X      -4.9548      Y      -2.4961      Z      -0.4396
       Tot       5.5654
    Quadrupole Moments (Debye-Ang)
        XX     -55.0008     XY       0.7234     YY    -110.4797
        XZ       1.0581     YZ       0.8553     ZZ    -107.4691

 Total job time:  75.84s(wall), 450.30s(cpu)
        *  Thank you very much for using Q-Chem.  Have a nice day.  *
