 Q-Chem 5.4, Q-Chem, Inc., Pleasanton, CA (2021)
 Q-Chem 5.4.0 for Intel X86 EM64T Linux

User input:
--------------------------------------------------------------
$molecule
-2 1
C                 -0.5222680000      1.1748690000     -0.3548530000
C                 -1.4054010000      0.0993130000     -0.7785530000
C                 -1.1655320000     -1.2361490000     -0.5579810000
C                  0.0074150000     -1.7390250000      0.1299150000
C                  0.8759840000     -0.7130530000      0.5487920000
C                  0.6766400000      0.7068920000      0.3454410000
O                 -0.8337720000      2.3824500000     -0.6071850000
O                  0.1912290000     -3.0162770000      0.3152970000
C                  1.6700700000      1.6367420000      0.8404400000
C                  2.9079970000      1.0466040000      1.5709940000
O                  1.6563370000      2.8813420000      0.7518350000
H                 -2.3062450000      0.4213650000     -1.3026890000
H                 -1.8795150000     -1.9852660000     -0.9083100000
H                  1.7668660000     -1.0515350000      1.0683930000
H                  3.4823230000      0.3724490000      0.9243950000
H                  2.6233600000      0.4706940000      2.4596410000
H                  3.5371720000      1.8891520000      1.8690390000
$end
$rem
MAX_SCF_CYCLES=200
BASIS  =  6-311++G(d,p)
GUI  =  2
JOB_TYPE  =  SP
METHOD  =  B3LYP
SOLVENT_METHOD = PCM
$end
$pcm
theory = CPCM
$end
$solvent
dielectric 37.219
opticaldielectric 1.43
$end

--------------------------------------------------------------

             Standard Nuclear Orientation (Angstroms)
    I     Atom           X                Y                Z
 ----------------------------------------------------------------
    1      C      -0.5222680000     1.1748690000    -0.3548530000
    2      C      -1.4054010000     0.0993130000    -0.7785530000
    3      C      -1.1655320000    -1.2361490000    -0.5579810000
    4      C       0.0074150000    -1.7390250000     0.1299150000
    5      C       0.8759840000    -0.7130530000     0.5487920000
    6      C       0.6766400000     0.7068920000     0.3454410000
    7      O      -0.8337720000     2.3824500000    -0.6071850000
    8      O       0.1912290000    -3.0162770000     0.3152970000
    9      C       1.6700700000     1.6367420000     0.8404400000
   10      C       2.9079970000     1.0466040000     1.5709940000
   11      O       1.6563370000     2.8813420000     0.7518350000
   12      H      -2.3062450000     0.4213650000    -1.3026890000
   13      H      -1.8795150000    -1.9852660000    -0.9083100000
   14      H       1.7668660000    -1.0515350000     1.0683930000
   15      H       3.4823230000     0.3724490000     0.9243950000
   16      H       2.6233600000     0.4706940000     2.4596410000
   17      H       3.5371720000     1.8891520000     1.8690390000
 ----------------------------------------------------------------

    9    -534.5380900337      7.66e-06  Convergence criterion met
 Total energy in the final basis set =     -534.5380900337

                    Orbital Energies (a.u.)
 --------------------------------------------------------------

 Alpha MOs
 -- Occupied --
-19.0718 -19.0366 -19.0205 -10.2251 -10.1945 -10.1753 -10.1455 -10.1423
-10.1380 -10.1351 -10.1243  -0.9961  -0.9554  -0.9295  -0.7879  -0.7350
 -0.6883  -0.6572  -0.5941  -0.5466  -0.4913  -0.4448  -0.4398  -0.4266
 -0.4134  -0.4017  -0.3869  -0.3680  -0.3648  -0.3551  -0.3407  -0.3333
 -0.3222  -0.3198  -0.2394  -0.2368  -0.2269  -0.2026  -0.1935  -0.1325

          Ground-State Mulliken Net Atomic Charges

     Atom                 Charge (a.u.)
  ----------------------------------------
      1 C                    -0.593373
      2 C                    -0.019974
      3 C                     0.018972
      4 C                    -0.428586
      5 C                    -1.050349
      6 C                     1.585245
      7 O                    -0.629831
      8 O                    -0.765675
      9 C                    -0.080267
     10 C                    -0.504990
     11 O                    -0.484222
     12 H                     0.158736
     13 H                     0.166039
     14 H                     0.132052
     15 H                     0.163686
     16 H                     0.163190
     17 H                     0.169348
  ----------------------------------------
  Sum of atomic charges =    -2.000000

                    Cartesian Multipole Moments
 -----------------------------------------------------------------
    Charge (ESU x 10^10)
                -9.6064
    Dipole Moment (Debye)
         X      -0.8251      Y      -2.4134      Z      -0.4293
       Tot       2.5864
    Quadrupole Moments (Debye-Ang)
        XX     -76.9249     XY      -0.9269     YY    -150.5446
        XZ      -2.8219     YZ       4.5534     ZZ     -73.6661

 Total job time:  18.94s(wall), 103.08s(cpu)
        *  Thank you very much for using Q-Chem.  Have a nice day.  *
