 Gaussian 16, Revision A.03,
 Gaussian 16:  ES64L-G16RevA.03 25-Dec-2016

 ----------------------------------------------------------------
 #P UB3LYP/6-311++G(d,p) SCRF=(PCM,Solvent=n,n-DiMethylFormamide)
 ----------------------------------------------------------------

 ------------------
 Quinone PCM in DMF
 ------------------
 Symbolic Z-matrix:
 Charge =  0 Multiplicity = 1

                         Standard orientation:
 ---------------------------------------------------------------------
 Center     Atomic      Atomic             Coordinates (Angstroms)
 Number     Number       Type             X           Y           Z
 ---------------------------------------------------------------------
      1          6           0        2.085160   -2.045471   -0.062037
      2          6           0        3.466599   -2.004101    0.095133
      3          6           0        4.120531   -0.776905    0.229079
      4          6           0        1.349990   -0.857151   -0.078959
      5          6           0        2.005420    0.372795    0.055822
      6          6           0        3.393191    0.408937    0.207275
      7          6           0       -0.127282   -0.913315   -0.270116
      8          6           0       -0.894001    0.370055   -0.161031
      9          6           0       -0.256507    1.573164   -0.053861
     10          6           0        1.228045    1.643957    0.040594
     11          8           0       -0.680734   -1.970165   -0.520688
     12          8           0        1.797336    2.722798    0.130555
     13          1           0        1.559465   -2.985271   -0.175654
     14          1           0        4.036066   -2.926400    0.110643
     15          1           0        5.197639   -0.747488    0.348444
     16          1           0        3.879364    1.371524    0.305712
     17         16           0       -2.654904    0.369297   -0.352671
     18          6           0       -0.987257    2.883372   -0.022485
     19          1           0       -1.365983    3.143712   -1.017471
     20          1           0       -0.318888    3.679225    0.300601
     21          1           0       -1.854411    2.825102    0.640647
     22          6           0       -3.295066   -1.225770    0.335444
     23          6           0       -4.791173   -1.055467    0.586609
     24          1           0       -2.760295   -1.437027    1.260952
     25          1           0       -3.089462   -2.022062   -0.373402
     26          1           0       -4.993484   -0.274041    1.322654
     27          1           0       -5.202844   -1.995421    0.964811
     28          1           0       -5.327435   -0.806283   -0.332944
 ---------------------------------------------------------------------

 SCF Done:  E(UB3LYP) =  -1051.45964322     A.U. after   16 cycles

 The electronic state is 1-A.
 Alpha  occ. eigenvalues --  -88.86756 -19.13742 -19.13211 -10.29140 -10.28189
 Alpha  occ. eigenvalues --  -10.23876 -10.21706 -10.20920 -10.20805 -10.20697
 Alpha  occ. eigenvalues --  -10.19933 -10.19908 -10.19839 -10.19806 -10.17388
 Alpha  occ. eigenvalues --  -10.17177  -7.95365  -5.91744  -5.91321  -5.90814
 Alpha  occ. eigenvalues --   -1.07362  -1.06562  -0.89271  -0.86215  -0.80947
 Alpha  occ. eigenvalues --   -0.78627  -0.77945  -0.74446  -0.70562  -0.68179
 Alpha  occ. eigenvalues --   -0.64249  -0.62302  -0.60486  -0.58572  -0.55102
 Alpha  occ. eigenvalues --   -0.52268  -0.50171  -0.47798  -0.46970  -0.46498
 Alpha  occ. eigenvalues --   -0.46330  -0.45616  -0.45281  -0.44629  -0.42884
 Alpha  occ. eigenvalues --   -0.41644  -0.41349  -0.39961  -0.39504  -0.38597
 Alpha  occ. eigenvalues --   -0.37954  -0.37563  -0.36983  -0.36732  -0.33868
 Alpha  occ. eigenvalues --   -0.31002  -0.29073  -0.28465  -0.27990  -0.27615
 Alpha  occ. eigenvalues --   -0.23993
 Alpha virt. eigenvalues --   -0.12587  -0.05780  -0.03491  -0.01015  -0.00215
 Alpha virt. eigenvalues --    0.00330   0.01487   0.01755   0.01984   0.02241
 Alpha virt. eigenvalues --    0.03046   0.03129   0.03781   0.03965   0.04564

  Beta  occ. eigenvalues --  -88.86756 -19.13742 -19.13211 -10.29140 -10.28189
  Beta  occ. eigenvalues --  -10.23876 -10.21706 -10.20920 -10.20805 -10.20697
  Beta  occ. eigenvalues --  -10.19933 -10.19908 -10.19839 -10.19806 -10.17388
  Beta  occ. eigenvalues --  -10.17177  -7.95365  -5.91744  -5.91321  -5.90814
  Beta  occ. eigenvalues --   -1.07362  -1.06562  -0.89271  -0.86215  -0.80947
  Beta  occ. eigenvalues --   -0.78627  -0.77945  -0.74446  -0.70562  -0.68179
  Beta  occ. eigenvalues --   -0.64249  -0.62302  -0.60486  -0.58572  -0.55102
  Beta  occ. eigenvalues --   -0.52268  -0.50171  -0.47798  -0.46970  -0.46498
  Beta  occ. eigenvalues --   -0.46330  -0.45616  -0.45281  -0.44629  -0.42884
  Beta  occ. eigenvalues --   -0.41644  -0.41349  -0.39961  -0.39504  -0.38597
  Beta  occ. eigenvalues --   -0.37954  -0.37563  -0.36983  -0.36732  -0.33868
  Beta  occ. eigenvalues --   -0.31002  -0.29073  -0.28465  -0.27990  -0.27615
  Beta  occ. eigenvalues --   -0.23993
  Beta virt. eigenvalues --   -0.12587  -0.05780  -0.03491  -0.01015  -0.00215
  Beta virt. eigenvalues --    0.00330   0.01487   0.01755   0.01984   0.02241
  Beta virt. eigenvalues --    0.03046   0.03129   0.03781   0.03965   0.04564

 Mulliken charges and spin densities:
               1          2
     1  C    0.102982  -0.000000
     2  C   -0.461318   0.000000
     3  C   -0.429399   0.000000
     4  C    0.181029   0.000000
     5  C    0.710014   0.000000
     6  C    0.124529   0.000000
     7  C   -0.937111  -0.000000
     8  C    0.967182  -0.000000
     9  C    0.944145   0.000000
    10  C   -1.125799  -0.000000
    11  O   -0.231755  -0.000000
    12  O   -0.276144   0.000000
    13  H    0.200090   0.000000
    14  H    0.205493  -0.000000
    15  H    0.208723   0.000000
    16  H    0.188296  -0.000000
    17  S   -0.771199   0.000000
    18  C   -0.148303  -0.000000
    19  H    0.207622   0.000000
    20  H    0.186132  -0.000000
    21  H    0.163040  -0.000000
    22  C   -0.223307   0.000000
    23  C   -0.718985  -0.000000
    24  H    0.230595   0.000000
    25  H    0.228555   0.000000
    26  H    0.159093   0.000000
    27  H    0.154950  -0.000000
    28  H    0.160852   0.000000
 Sum of Mulliken charges =  -0.00000  -0.00000

 Dipole moment (field-independent basis, Debye):
    X=              0.1266    Y=             -2.6128    Z=              1.3939  Tot=              2.9641
 Quadrupole moment (field-independent basis, Debye-Ang):
   XX=            -83.1922   YY=           -107.0638   ZZ=           -103.3480
   XY=             -8.8262   XZ=             -2.5928   YZ=             -3.1013

 Normal termination of Gaussian 16 at Sun Jan 21 08:08:34 2024.
