 Gaussian 16, Revision A.03,
 Gaussian 16:  ES64L-G16RevA.03 25-Dec-2016

 ----------------------------------------------------------------
 #P UB3LYP/6-311++G(d,p) SCRF=(PCM,Solvent=n,n-DiMethylFormamide)
 ----------------------------------------------------------------

 -------
 Reduced
 -------
 Symbolic Z-matrix:
 Charge = -2 Multiplicity = 1

                         Standard orientation:
 ---------------------------------------------------------------------
 Center     Atomic      Atomic             Coordinates (Angstroms)
 Number     Number       Type             X           Y           Z
 ---------------------------------------------------------------------
      1          6           0       -8.022581    0.279891    0.672773
      2          6           0       -8.680296   -0.922595    0.844288
      3          6           0       -8.003518   -2.141453    0.596217
      4          6           0       -6.671119    0.328994    0.249208
      5          6           0       -5.981272   -0.910289   -0.001881
      6          6           0       -6.680560   -2.117141    0.182513
      7          6           0       -5.997980    1.584501    0.073620
      8          6           0       -4.632995    1.510737   -0.356478
      9          6           0       -3.936144    0.337289   -0.615406
     10          6           0       -4.579722   -0.940402   -0.441155
     11          8           0       -6.510742    2.756389    0.267140
     12          8           0       -3.970348   -2.036828   -0.658542
     13          8           0       -4.049674    2.746244   -0.502608
     14          1           0       -8.521287    1.225915    0.857102
     15          1           0       -9.717986   -0.934056    1.170466
     16          1           0       -8.518966   -3.089180    0.730439
     17          1           0       -6.134416   -3.034145   -0.014052
     18          1           0       -4.807505    3.327923   -0.251959
     19          6           0       -2.500398    0.361217   -1.074743
     20          6           0       -1.492551    0.119026    0.066319
     21          1           0       -2.279639    1.322097   -1.552064
     22          1           0       -2.366313   -0.433939   -1.817536
     23          1           0       -1.748485   -0.831074    0.546997
     24          1           0       -1.611049    0.906350    0.821263
     25          6           0       -0.035230    0.080088   -0.408444
     26          6           0        0.965155   -0.180523    0.736965
     27          6           0        2.410161   -0.238462    0.294294
     28          6           0        2.967794   -1.423646   -0.199831
     29          6           0        3.232657    0.895134    0.335727
     30          6           0        4.555790    0.857102   -0.101715
     31          6           0        5.083972   -0.339264   -0.579818
     32          6           0        4.292248   -1.482088   -0.631355
     33          8           0        6.368879   -0.405694   -1.105921
     34          6           0        7.467719   -0.133188   -0.315632
     35          6           0        7.449849   -0.191897    1.078544
     36          6           0        8.653498    0.155839   -0.995217
     37          6           0        9.823489    0.379820   -0.276372
     38          6           0        8.629201    0.049122    1.785542
     39          6           0        9.817465    0.332354    1.117542
     40          1           0        0.223673    1.026638   -0.900730
     41          1           0        0.080288   -0.702592   -1.168625
     42          1           0        0.697234   -1.124142    1.225530
     43          1           0        0.849332    0.603533    1.493687
     44          1           0        2.355024   -2.318613   -0.245876
     45          1           0        2.827421    1.829730    0.711268
     46          1           0        5.177193    1.744912   -0.070091
     47          1           0        4.719935   -2.402601   -1.011914
     48          1           0        6.531105   -0.423334    1.603429
     49          1           0        8.641231    0.196429   -2.079161
     50          1           0       10.745180    0.602131   -0.808391
     51          1           0        8.614398    0.009343    2.871268
     52          1           0       10.730924    0.516789    1.675379
 ---------------------------------------------------------------------

 SCF Done:  E(UB3LYP) =  -1305.51765838     A.U. after   18 cycles

 The electronic state is 1-A.
 Alpha  occ. eigenvalues --  -19.16910 -19.10865 -19.02151 -19.01369 -10.24568
 Alpha  occ. eigenvalues --  -10.23845 -10.18348 -10.18326 -10.18287 -10.18092
 Alpha  occ. eigenvalues --  -10.18033 -10.17974 -10.17898 -10.17892 -10.17829
 Alpha  occ. eigenvalues --  -10.17534 -10.17157 -10.16814 -10.16641 -10.15715
 Alpha  occ. eigenvalues --  -10.15682 -10.14619 -10.14513 -10.14147 -10.14105
 Alpha  occ. eigenvalues --  -10.14032 -10.13960 -10.13091 -10.12708 -10.11914
 Alpha  occ. eigenvalues --   -1.08619  -1.02326  -0.93779  -0.92962  -0.87219
 Alpha  occ. eigenvalues --   -0.85894  -0.82065  -0.80009  -0.77709  -0.76022
 Alpha  occ. eigenvalues --   -0.75800  -0.75468  -0.74127  -0.71794  -0.71579
 Alpha  occ. eigenvalues --   -0.68376  -0.64813  -0.62812  -0.62483  -0.61702
 Alpha  occ. eigenvalues --   -0.60963  -0.58526  -0.57797  -0.57059  -0.55389
 Alpha  occ. eigenvalues --   -0.55166  -0.53113  -0.50917  -0.49951  -0.49247
 Alpha  occ. eigenvalues --   -0.48124  -0.47684  -0.46738  -0.45699  -0.45129
 Alpha  occ. eigenvalues --   -0.44612  -0.44109  -0.43181  -0.42887  -0.42604
 Alpha  occ. eigenvalues --   -0.42044  -0.41322  -0.41166  -0.39944  -0.39650
 Alpha  occ. eigenvalues --   -0.39523  -0.38693  -0.37900  -0.37250  -0.37137
 Alpha  occ. eigenvalues --   -0.36570  -0.36100  -0.35510  -0.35280  -0.34703
 Alpha  occ. eigenvalues --   -0.34651  -0.34293  -0.33654  -0.33187  -0.32660
 Alpha  occ. eigenvalues --   -0.32396  -0.31439  -0.30849  -0.30298  -0.29471
 Alpha  occ. eigenvalues --   -0.29429  -0.26785  -0.26242  -0.25213  -0.23075
 Alpha  occ. eigenvalues --   -0.22613  -0.22051  -0.20996  -0.19176  -0.18814
 Alpha  occ. eigenvalues --   -0.10142
 Alpha virt. eigenvalues --   -0.02915  -0.01977  -0.01483  -0.00710  -0.00405
 Alpha virt. eigenvalues --   -0.00196   0.00073   0.00625   0.00981   0.01392
 Alpha virt. eigenvalues --    0.01545   0.01786   0.01941   0.02421   0.02628

  Beta  occ. eigenvalues --  -19.16910 -19.10865 -19.02151 -19.01369 -10.24568
  Beta  occ. eigenvalues --  -10.23845 -10.18348 -10.18326 -10.18287 -10.18092
  Beta  occ. eigenvalues --  -10.18033 -10.17974 -10.17898 -10.17892 -10.17829
  Beta  occ. eigenvalues --  -10.17534 -10.17157 -10.16814 -10.16641 -10.15715
  Beta  occ. eigenvalues --  -10.15682 -10.14619 -10.14513 -10.14147 -10.14105
  Beta  occ. eigenvalues --  -10.14032 -10.13960 -10.13091 -10.12708 -10.11914
  Beta  occ. eigenvalues --   -1.08619  -1.02326  -0.93779  -0.92962  -0.87219
  Beta  occ. eigenvalues --   -0.85894  -0.82065  -0.80009  -0.77709  -0.76022
  Beta  occ. eigenvalues --   -0.75800  -0.75468  -0.74127  -0.71794  -0.71579
  Beta  occ. eigenvalues --   -0.68376  -0.64813  -0.62812  -0.62483  -0.61702
  Beta  occ. eigenvalues --   -0.60963  -0.58526  -0.57797  -0.57059  -0.55389
  Beta  occ. eigenvalues --   -0.55166  -0.53113  -0.50917  -0.49951  -0.49247
  Beta  occ. eigenvalues --   -0.48124  -0.47684  -0.46738  -0.45699  -0.45129
  Beta  occ. eigenvalues --   -0.44612  -0.44109  -0.43181  -0.42887  -0.42604
  Beta  occ. eigenvalues --   -0.42044  -0.41322  -0.41166  -0.39944  -0.39650
  Beta  occ. eigenvalues --   -0.39523  -0.38693  -0.37900  -0.37250  -0.37137
  Beta  occ. eigenvalues --   -0.36570  -0.36100  -0.35510  -0.35280  -0.34703
  Beta  occ. eigenvalues --   -0.34651  -0.34293  -0.33654  -0.33187  -0.32660
  Beta  occ. eigenvalues --   -0.32396  -0.31439  -0.30849  -0.30298  -0.29471
  Beta  occ. eigenvalues --   -0.29429  -0.26785  -0.26242  -0.25213  -0.23075
  Beta  occ. eigenvalues --   -0.22613  -0.22051  -0.20996  -0.19176  -0.18814
  Beta  occ. eigenvalues --   -0.10142
  Beta virt. eigenvalues --   -0.02915  -0.01977  -0.01483  -0.00710  -0.00405
  Beta virt. eigenvalues --   -0.00196   0.00073   0.00625   0.00981   0.01392
  Beta virt. eigenvalues --    0.01545   0.01786   0.01941   0.02421   0.02628

 Mulliken charges and spin densities:
               1          2
     1  C   -0.038062   0.000000
     2  C   -0.390393   0.000000
     3  C   -0.493265   0.000000
     4  C    0.387438   0.000000
     5  C    0.052138  -0.000000
     6  C    0.036659  -0.000000
     7  C   -0.999116   0.000000
     8  C   -0.615683   0.000000
     9  C    2.061451  -0.000000
    10  C   -0.837905  -0.000000
    11  O   -0.726917  -0.000000
    12  O   -0.632501   0.000000
    13  O   -0.338283   0.000000
    14  H    0.139995  -0.000000
    15  H    0.152819  -0.000000
    16  H    0.147106  -0.000000
    17  H    0.139277   0.000000
    18  H    0.276645  -0.000000
    19  C   -0.380037   0.000000
    20  C   -0.663026  -0.000000
    21  H    0.206468  -0.000000
    22  H    0.168832   0.000000
    23  H    0.167455  -0.000000
    24  H    0.136317  -0.000000
    25  C   -0.404321   0.000000
    26  C   -0.992745  -0.000000
    27  C    1.467793  -0.000000
    28  C   -0.258868  -0.000000
    29  C   -0.421705   0.000000
    30  C    0.106617  -0.000000
    31  C   -0.618570  -0.000000
    32  C   -0.097972   0.000000
    33  O   -0.042139  -0.000000
    34  C   -0.324312   0.000000
    35  C    0.187055  -0.000000
    36  C   -0.230937   0.000000
    37  C   -0.212735  -0.000000
    38  C   -0.151155  -0.000000
    39  C   -0.332566   0.000000
    40  H    0.129568   0.000000
    41  H    0.128680  -0.000000
    42  H    0.169161  -0.000000
    43  H    0.174137  -0.000000
    44  H    0.202112   0.000000
    45  H    0.196152   0.000000
    46  H    0.203386  -0.000000
    47  H    0.209923  -0.000000
    48  H    0.184761   0.000000
    49  H    0.191514  -0.000000
    50  H    0.196832   0.000000
    51  H    0.211647  -0.000000
    52  H    0.171276  -0.000000
 Sum of Mulliken charges =  -2.00000   0.00000

 Dipole moment (field-independent basis, Debye):
    X=             49.8187    Y=             -2.1515    Z=              2.8592  Tot=             49.9470
 Quadrupole moment (field-independent basis, Debye-Ang):
   XX=           -491.3000   YY=           -228.9354   ZZ=           -190.2270
   XY=             30.5864   XZ=              5.5370   YZ=             -3.7653

 Normal termination of Gaussian 16 at Thu Jan 25 06:03:49 2024.
