 Gaussian 16, Revision A.03,
 Gaussian 16:  ES64L-G16RevA.03 25-Dec-2016

 ----------------------------------------------------------------------
 #P UB3LYP/6-311++G(d,p) nosym opt freq SCRF=(PCM,Solvent=n,n-DiMethylF
 ormamide)
 ----------------------------------------------------------------------

 -------
 Radical
 -------
 Symbolic Z-matrix:
 Charge = -1 Multiplicity = 2

 SCF Done:  E(UB3LYP) =  -990.137430972     A.U. after   16 cycles
 SCF Done:  E(UB3LYP) =  -990.137510135     A.U. after   11 cycles
 SCF Done:  E(UB3LYP) =  -990.137518248     A.U. after   11 cycles
 SCF Done:  E(UB3LYP) =  -990.137520696     A.U. after   11 cycles
 SCF Done:  E(UB3LYP) =  -990.137520940     A.U. after    9 cycles
 Optimization completed.
    -- Stationary point found.
 Normal termination of Gaussian 16 at Sat Feb 10 22:38:12 2024.

 ----------------------------------------------------------------------
 #P Geom=AllCheck Guess=TCheck SCRF=Check GenChk UB3LYP/6-311++G(d,p) F
 req
 ----------------------------------------------------------------------

 Structure from the checkpoint file:  "205-rad.chk"
 -------
 Radical
 -------
 Charge = -1 Multiplicity = 2

                          Input orientation:
 ---------------------------------------------------------------------
 Center     Atomic      Atomic             Coordinates (Angstroms)
 Number     Number       Type             X           Y           Z
 ---------------------------------------------------------------------
      1          8           0       -2.704847   -2.561339    0.539043
      2          6           0       -2.565010   -1.218258    0.397870
      3          6           0       -3.706151   -0.424193    0.407979
      4          6           0       -3.613940    0.962912    0.266064
      5          6           0       -2.378779    1.582042    0.111499
      6          8           0       -2.339257    2.932544   -0.022604
      7          6           0       -1.188350    0.802944    0.096177
      8          6           0        0.095398    1.434538   -0.063424
      9          8           0        0.181284    2.725820   -0.196020
     10          6           0        1.283057    0.621109   -0.075398
     11          6           0        2.564948    1.218264   -0.231692
     12          8           0        2.704583    2.561396   -0.372672
     13          6           0        3.706108    0.424231   -0.242135
     14          6           0        3.613947   -0.962892   -0.100261
     15          6           0        2.378826   -1.582046    0.054596
     16          8           0        2.339306   -2.932548    0.188753
     17          6           0        1.188406   -0.802956    0.070183
     18          6           0       -0.095302   -1.434558    0.229852
     19          8           0       -0.180980   -2.725926    0.361817
     20          6           0       -1.283028   -0.621148    0.241787
     21          1           0       -1.780172   -2.931540    0.504218
     22          1           0       -4.672053   -0.900761    0.528075
     23          1           0       -4.507373    1.576300    0.274787
     24          1           0       -1.374516    3.163523   -0.118439
     25          1           0        1.779920    2.931528   -0.337243
     26          1           0        4.671974    0.900830   -0.362394
     27          1           0        4.507388   -1.576264   -0.109188
     28          1           0        1.374617   -3.163552    0.285062
 ---------------------------------------------------------------------

 SCF Done:  E(UB3LYP) =  -990.137520940     A.U. after    1 cycles

 Alpha  occ. eigenvalues --  -19.13698 -19.13695 -19.13694 -19.13693 -19.10619
 Alpha  occ. eigenvalues --  -19.10618 -10.24761 -10.24760 -10.23851 -10.23850
 Alpha  occ. eigenvalues --  -10.23849 -10.23849 -10.18764 -10.18761 -10.18722
 Alpha  occ. eigenvalues --  -10.18720 -10.17659 -10.17659 -10.17606 -10.17606
 Alpha  occ. eigenvalues --   -1.06468  -1.06287  -1.05467  -1.05342  -1.01254
 Alpha  occ. eigenvalues --   -1.01116  -0.87081  -0.85030  -0.80018  -0.75677
 Alpha  occ. eigenvalues --   -0.75390  -0.73658  -0.68843  -0.65778  -0.64791
 Alpha  occ. eigenvalues --   -0.61011  -0.59668  -0.56054  -0.53628  -0.53327
 Alpha  occ. eigenvalues --   -0.52589  -0.52132  -0.51781  -0.47877  -0.46216
 Alpha  occ. eigenvalues --   -0.45338  -0.44380  -0.43786  -0.43662  -0.42281
 Alpha  occ. eigenvalues --   -0.41694  -0.41489  -0.41447  -0.41216  -0.41073
 Alpha  occ. eigenvalues --   -0.39495  -0.38323  -0.37267  -0.37147  -0.37041
 Alpha  occ. eigenvalues --   -0.36082  -0.35205  -0.31945  -0.30989  -0.28039
 Alpha  occ. eigenvalues --   -0.27875  -0.26236  -0.25998  -0.23403  -0.21235
 Alpha  occ. eigenvalues --   -0.15250
 Alpha virt. eigenvalues --   -0.05158  -0.03346  -0.00077   0.00739   0.00959
 Alpha virt. eigenvalues --    0.01407   0.01737   0.02544   0.04123   0.04134
 Alpha virt. eigenvalues --    0.04301   0.04401   0.04410   0.06147   0.06383

  Beta  occ. eigenvalues --  -19.13639 -19.13636 -19.13635 -19.13634 -19.10240
  Beta  occ. eigenvalues --  -19.10239 -10.24535 -10.24534 -10.23789 -10.23788
  Beta  occ. eigenvalues --  -10.23788 -10.23787 -10.18771 -10.18769 -10.18730
  Beta  occ. eigenvalues --  -10.18728 -10.17559 -10.17559 -10.17506 -10.17505
  Beta  occ. eigenvalues --   -1.06241  -1.06065  -1.05347  -1.05223  -1.00656
  Beta  occ. eigenvalues --   -1.00505  -0.86843  -0.84854  -0.79623  -0.75531
  Beta  occ. eigenvalues --   -0.75007  -0.73409  -0.68228  -0.65587  -0.64566
  Beta  occ. eigenvalues --   -0.60900  -0.59530  -0.55809  -0.53504  -0.53180
  Beta  occ. eigenvalues --   -0.52457  -0.52099  -0.51568  -0.47711  -0.46040
  Beta  occ. eigenvalues --   -0.44552  -0.44215  -0.43465  -0.43410  -0.41853
  Beta  occ. eigenvalues --   -0.41400  -0.41354  -0.41090  -0.40967  -0.40719
  Beta  occ. eigenvalues --   -0.39073  -0.37144  -0.37112  -0.37101  -0.35973
  Beta  occ. eigenvalues --   -0.35631  -0.35086  -0.31083  -0.30522  -0.27578
  Beta  occ. eigenvalues --   -0.26646  -0.25960  -0.25651  -0.22086  -0.20373
  Beta virt. eigenvalues --   -0.10276  -0.03648  -0.02395  -0.00051   0.00748
  Beta virt. eigenvalues --    0.00988   0.01758   0.01919   0.02556   0.04142
  Beta virt. eigenvalues --    0.04166   0.04426   0.04481   0.05329   0.06526

 Mulliken charges and spin densities:
               1          2
     1  O   -0.402511   0.018483
     2  C   -0.309302   0.056161
     3  C   -0.134789   0.065369
     4  C   -0.134738   0.065362
     5  C   -0.309167   0.056160
     6  O   -0.402679   0.018488
     7  C    0.465249  -0.014464
     8  C   -0.349256   0.133925
     9  O   -0.560822   0.131776
    10  C    0.465043  -0.014472
    11  C   -0.308827   0.056163
    12  O   -0.402723   0.018494
    13  C   -0.134870   0.065370
    14  C   -0.134705   0.065360
    15  C   -0.308998   0.056167
    16  O   -0.402747   0.018497
    17  C    0.465009  -0.014470
    18  C   -0.349265   0.133910
    19  O   -0.560769   0.131790
    20  C    0.465313  -0.014454
    21  H    0.385615  -0.002422
    22  H    0.200654  -0.005980
    23  H    0.200654  -0.005980
    24  H    0.385762  -0.002423
    25  H    0.385782  -0.002423
    26  H    0.200647  -0.005981
    27  H    0.200653  -0.005980
    28  H    0.385786  -0.002424
 Sum of Mulliken charges =  -1.00000   1.00000

 Dipole moment (field-independent basis, Debye):
    X=             -0.0016    Y=              0.0000    Z=             -0.3964  Tot=              0.3964
 Quadrupole moment (field-independent basis, Debye-Ang):
   XX=           -136.9226   YY=           -159.0114   ZZ=           -120.8938
   XY=             -1.3507   XZ=              1.4010   YZ=              3.8670

  Exact polarizability: 544.453 -14.759 367.932 -30.284 -21.945 134.952
 Approx polarizability: 579.918 -11.567 452.607 -31.678 -28.363 156.784

                      1                      2                      3
                      A                      A                      A
 Frequencies --     58.2223                65.6922               119.3763
 Red. masses --      6.8447                 9.7180                14.2222
 Frc consts  --      0.0137                 0.0247                 0.1194
 IR Inten    --      1.7612                 0.0011                 0.0000

                      4                      5                      6
                      A                      A                      A
 Frequencies --    140.6824               146.9444               178.6490
 Red. masses --      6.4012                 8.3486                 8.7246
 Frc consts  --      0.0746                 0.1062                 0.1641
 IR Inten    --      0.0000                 1.5608                 0.5222

                      7                      8                      9
                      A                      A                      A
 Frequencies --    217.2047               252.9064               309.9532
 Red. masses --      6.9407                 7.2155                 7.3997
 Frc consts  --      0.1929                 0.2719                 0.4188
 IR Inten    --      1.5726                 0.0000                 0.0001

                     10                     11                     12
                      A                      A                      A
 Frequencies --    310.8453               370.0334               373.5241
 Red. masses --      7.1641                 6.3010                 6.1999
 Frc consts  --      0.4079                 0.5083                 0.5096
 IR Inten    --      0.0000                 0.0004                 0.0000

                     13                     14                     15
                      A                      A                      A
 Frequencies --    406.2710               407.0389               430.4992
 Red. masses --      5.5486                 7.1169                10.8954
 Frc consts  --      0.5396                 0.6947                 1.1897
 IR Inten    --     58.0834                 0.0002                 0.0000

                     16                     17                     18
                      A                      A                      A
 Frequencies --    440.4280               469.0630               471.9281
 Red. masses --      7.8806                10.1306                10.3522
 Frc consts  --      0.9007                 1.3133                 1.3584
 IR Inten    --      0.0000                 7.1163                 0.0000

                     19                     20                     21
                      A                      A                      A
 Frequencies --    483.9488               487.9403               488.5518
 Red. masses --     12.6241                 8.7915                 5.2012
 Frc consts  --      1.7420                 1.2332                 0.7314
 IR Inten    --    114.2858                69.5958                 0.0708

                     22                     23                     24
                      A                      A                      A
 Frequencies --    517.2568               547.7588               564.6832
 Red. masses --      5.2925                 3.9846                 9.4519
 Frc consts  --      0.8343                 0.7044                 1.7757
 IR Inten    --      0.0000                24.0024                 0.0000

                     25                     26                     27
                      A                      A                      A
 Frequencies --    610.3273               621.7752               638.9056
 Red. masses --      4.2168                 3.4717                 5.5682
 Frc consts  --      0.9255                 0.7908                 1.3392
 IR Inten    --     29.3312                 0.0000                 0.0001

                     28                     29                     30
                      A                      A                      A
 Frequencies --    702.4427               714.6519               733.8450
 Red. masses --      8.4929                 7.1364                11.0910
 Frc consts  --      2.4690                 2.1474                 3.5191
 IR Inten    --      0.0002                 0.0000                 0.0003

                     31                     32                     33
                      A                      A                      A
 Frequencies --    739.9560               741.4856               794.2049
 Red. masses --      7.9204                 5.1029                 1.0662
 Frc consts  --      2.5551                 1.6530                 0.3962
 IR Inten    --    180.3927                20.6432                 7.7906

                     34                     35                     36
                      A                      A                      A
 Frequencies --    794.5243               810.5222               820.1820
 Red. masses --      1.1627                 1.2625                 1.0425
 Frc consts  --      0.4325                 0.4887                 0.4132
 IR Inten    --    684.9477                 0.0013                 0.0568

                     37                     38                     39
                      A                      A                      A
 Frequencies --    831.0373               832.1368               837.5673
 Red. masses --      1.5312                 9.2697                 1.2704
 Frc consts  --      0.6231                 3.7819                 0.5251
 IR Inten    --     21.9881               181.2317                 0.0000

                     40                     41                     42
                      A                      A                      A
 Frequencies --    856.0945               923.7672               925.2606
 Red. masses --      9.0220                 1.3053                 1.3279
 Frc consts  --      3.8958                 0.6563                 0.6698
 IR Inten    --      0.0000                 0.0014                 0.0000

                     43                     44                     45
                      A                      A                      A
 Frequencies --    967.8228               978.7256              1010.2135
 Red. masses --     10.2494                 5.0535                 4.1780
 Frc consts  --      5.6564                 2.8521                 2.5121
 IR Inten    --    643.7530                 0.0029                 0.0000

                     46                     47                     48
                      A                      A                      A
 Frequencies --   1104.4498              1158.8607              1196.7058
 Red. masses --      1.4539                 1.4233                 2.5334
 Frc consts  --      1.0449                 1.1262                 2.1376
 IR Inten    --     29.8669                 0.0000               287.2078

                     49                     50                     51
                      A                      A                      A
 Frequencies --   1238.5969              1255.5279              1257.0708
 Red. masses --      3.5187                 3.8558                 1.7351
 Frc consts  --      3.1805                 3.5811                 1.6154
 IR Inten    --     90.1076               739.4289                 0.0024

                     52                     53                     54
                      A                      A                      A
 Frequencies --   1260.5586              1284.8686              1288.0186
 Red. masses --      3.4606                 7.5953                 7.5777
 Frc consts  --      3.2399                 7.3877                 7.4068
 IR Inten    --     83.9936                 0.0021               209.7429

                     55                     56                     57
                      A                      A                      A
 Frequencies --   1326.6428              1333.8787              1341.5915
 Red. masses --      4.0367                 3.7527                 3.3937
 Frc consts  --      4.1858                 3.9339                 3.5988
 IR Inten    --      0.0142              2386.1384                 0.0280

                     58                     59                     60
                      A                      A                      A
 Frequencies --   1351.7046              1375.3658              1412.5855
 Red. masses --      7.4756                 6.2053                 4.2573
 Frc consts  --      8.0475                 6.9159                 5.0051
 IR Inten    --      0.0002                55.5907                 0.0001

                     61                     62                     63
                      A                      A                      A
 Frequencies --   1470.4673              1486.7498              1489.4350
 Red. masses --      1.6972                 2.0552                 7.0110
 Frc consts  --      2.1622                 2.6765                 9.1638
 IR Inten    --      0.0001              1841.2258                 0.0065

                     64                     65                     66
                      A                      A                      A
 Frequencies --   1502.8691              1526.8398              1574.2871
 Red. masses --      3.8271                 1.6751                 4.9785
 Frc consts  --      5.0928                 2.3008                 7.2697
 IR Inten    --    450.2965                 7.9928               786.8014

                     67                     68                     69
                      A                      A                      A
 Frequencies --   1588.7340              1628.5208              1643.5316
 Red. masses --      1.8480                 3.4730                 5.0669
 Frc consts  --      2.7483                 5.4268                 8.0639
 IR Inten    --      0.0000                 0.0000                 0.0000

                     70                     71                     72
                      A                      A                      A
 Frequencies --   1660.0884              3109.8216              3115.9910
 Red. masses --      2.7233                 1.0687                 1.0693
 Frc consts  --      4.4218                 6.0896                 6.1172
 IR Inten    --     23.0409                 0.0199              2354.8425

                     73                     74                     75
                      A                      A                      A
 Frequencies --   3167.9179              3169.0656              3177.5821
 Red. masses --      1.0718                 1.0715                 1.0878
 Frc consts  --      6.3376                 6.3404                 6.4711
 IR Inten    --     62.5397                 0.0036                 0.0088

                     76                     77                     78
                      A                      A                      A
 Frequencies --   3177.6097              3191.1482              3191.3050
 Red. masses --      1.0870                 1.0945                 1.0944
 Frc consts  --      6.4668                 6.5668                 6.5671
 IR Inten    --     32.4870                35.3447                 0.0002

 - Thermochemistry -
 -------------------
 Temperature   298.150 Kelvin.  Pressure   1.00000 Atm.
 Atom     1 has atomic number  8 and mass  15.99491

 Molecular mass:   272.03209 amu.
 Principal axes and moments of inertia in atomic units:
                           1         2         3
     Eigenvalues --  3461.142055452.836258913.97825
           X            0.99492   0.06600   0.07600
           Y           -0.07321   0.99265   0.09642
           Z           -0.06907  -0.10149   0.99244
 This molecule is an asymmetric top.
 Rotational symmetry number  1.
 Warning -- assumption of classical behavior for rotation
           may cause significant error
 Rotational temperatures (Kelvin)      0.02502     0.01588     0.00972
 Rotational constants (GHZ):           0.52143     0.33097     0.20246
 Zero-point vibrational energy     509628.5 (Joules/Mol)
                                  121.80415 (Kcal/Mol)
 Warning -- explicit consideration of  25 degrees of freedom as
           vibrations may cause significant error
 Vibrational temperatures:     83.77    94.52   171.76   202.41   211.42
          (Kelvin)            257.04   312.51   363.88   445.95   447.24
                              532.40   537.42   584.53   585.64   619.39
                              633.68   674.88   679.00   696.29   702.04
                              702.92   744.22   788.10   812.45   878.12
                              894.60   919.24  1010.66  1028.22  1055.84
                             1064.63  1066.83  1142.68  1143.14  1166.16
                             1180.06  1195.68  1197.26  1205.07  1231.73
                             1329.10  1331.24  1392.48  1408.17  1453.47
                             1589.06  1667.34  1721.79  1782.06  1806.42
                             1808.64  1813.66  1848.64  1853.17  1908.74
                             1919.15  1930.25  1944.80  1978.84  2032.40
                             2115.67  2139.10  2142.96  2162.29  2196.78
                             2265.05  2285.83  2343.08  2364.68  2388.50
                             4474.34  4483.22  4557.93  4559.58  4571.83
                             4571.87  4591.35  4591.58

 Zero-point correction=                           0.194107 (Hartree/Particle)
 Thermal correction to Energy=                    0.208590
 Thermal correction to Enthalpy=                  0.209534
 Thermal correction to Gibbs Free Energy=         0.152553
 Sum of electronic and zero-point Energies=           -989.943414
 Sum of electronic and thermal Energies=              -989.928931
 Sum of electronic and thermal Enthalpies=            -989.927987
 Sum of electronic and thermal Free Energies=         -989.984968

                     E (Thermal)             CV                S
                      KCal/Mol        Cal/Mol-Kelvin    Cal/Mol-Kelvin
 Total                  130.892             60.069            119.926
 Electronic               0.000              0.000              1.377
 Translational            0.889              2.981             42.701
 Rotational               0.889              2.981             33.486
 Vibrational            129.115             54.107             42.362
 Vibration     1          0.596              1.974              4.517
 Vibration     2          0.597              1.971              4.278
 Vibration     3          0.609              1.933              3.110
 Vibration     4          0.615              1.913              2.795
 Vibration     5          0.617              1.906              2.711
 Vibration     6          0.629              1.869              2.342
 Vibration     7          0.646              1.815              1.982
 Vibration     8          0.664              1.758              1.710
 Vibration     9          0.699              1.655              1.363
 Vibration    10          0.700              1.653              1.358
 Vibration    11          0.742              1.534              1.080
 Vibration    12          0.745              1.526              1.065
 Vibration    13          0.771              1.457              0.940
 Vibration    14          0.772              1.455              0.937
 Vibration    15          0.792              1.404              0.857
 Vibration    16          0.800              1.382              0.825
 Vibration    17          0.826              1.319              0.740
 Vibration    18          0.829              1.312              0.732
 Vibration    19          0.840              1.286              0.699
 Vibration    20          0.844              1.277              0.689
 Vibration    21          0.844              1.275              0.687
 Vibration    22          0.872              1.212              0.616
 Vibration    23          0.903              1.145              0.549
 Vibration    24          0.921              1.108              0.515
 Vibration    25          0.969              1.010              0.432

 Optimization completed.
    -- Stationary point found.
 Normal termination of Gaussian 16 at Sun Feb 11 00:15:23 2024.
