 Q-Chem 5.4, Q-Chem, Inc., Pleasanton, CA (2021)
 Q-Chem 5.4.0 for Intel X86 EM64T Linux

User input:
--------------------------------------------------------------
$molecule
-2 1
C                 -1.5853080000      1.9274910000     -4.7082420000
C                 -1.5189170000      0.5729160000     -4.9337820000
C                 -1.2001710000     -0.3163790000     -3.8663150000
C                 -1.3429660000      2.4845870000     -3.4139360000
C                 -1.0229660000      1.5825490000     -2.3292860000
C                 -0.9614640000      0.1968740000     -2.6070730000
C                 -1.4079520000      3.8647960000     -3.1798530000
C                 -0.7631220000      2.0513330000     -0.9828080000
C                 -1.1782300000      4.3823440000     -1.8823390000
C                 -0.8666100000      3.4899920000     -0.7811840000
C                 -1.2805970000      5.8398380000     -1.6754750000
C                 -1.0765350000      6.3225310000     -0.3757090000
C                 -0.7843060000      5.4506500000      0.6947100000
C                 -0.6798980000      4.0990510000      0.4982660000
O                 -1.7071950000      4.7014600000     -4.2288140000
O                 -0.4610760000      1.2273670000     -0.0489550000
H                 -1.8251210000      2.6136960000     -5.5131950000
H                 -1.7082750000      0.1781380000     -5.9306720000
H                 -1.1444570000     -1.3878990000     -4.0461910000
H                 -0.7128290000     -0.4495810000     -1.7714060000
H                 -0.6434950000      5.8387590000      1.7004660000
O                 -1.5579150000      6.6299450000     -2.6757430000
O                 -0.5105920000      3.2986260000      1.6605340000
C                  0.6571810000      2.6592350000      1.8657940000
C                  0.4477750000      1.5032510000      2.8178270000
O                  1.7323590000      2.9927320000      1.4230510000
H                 -1.1529820000      7.3942250000     -0.2142300000
H                 -1.6980730000      5.6271860000     -3.7930090000
H                 -0.0273760000      0.7160010000      2.2277960000
H                 -0.2249690000      1.7874440000      3.6320660000
H                  1.4069430000      1.1637410000      3.2120420000
$end
$rem
MAX_SCF_CYCLES=200
BASIS  =  6-311++G(d,p)
GUI  =  2
JOB_TYPE  =  SP
METHOD  =  B3LYP
SOLVENT_METHOD = COSMO
$end
$solvent
dielectric 37.219
opticaldielectric 1.43
$end

--------------------------------------------------------------

             Standard Nuclear Orientation (Angstroms)
    I     Atom           X                Y                Z
 ----------------------------------------------------------------
    1      C       3.6558253750     0.4264458694    -0.1194986538
    2      C       4.1323054340     1.7155877967    -0.0844368281
    3      C       3.2281446040     2.8104608725     0.0407691910
    4      C       2.2575250525     0.1415210913    -0.0306859377
    5      C       1.3395270308     1.2518072701     0.1000137535
    6      C       1.8729282084     2.5616730623     0.1279083615
    7      C       1.7672917379    -1.1708429917    -0.0676551901
    8      C      -0.0941348105     1.0642549344     0.1985946524
    9      C       0.3776186641    -1.4190944611     0.0388843129
   10      C      -0.5556576804    -0.3169756281     0.1812598481
   11      C      -0.0930584516    -2.8175427390     0.0197546467
   12      C      -1.4706696653    -3.0361382838     0.1555074310
   13      C      -2.3740897693    -1.9623678708     0.3045722418
   14      C      -1.9358300743    -0.6646063619     0.3119639992
   15      O       2.6597674056    -2.2081506150    -0.1993832388
   16      O      -0.8817896512     2.0708084479     0.2917775762
   17      H       4.3342327178    -0.4142224682    -0.2163342501
   18      H       5.2028718993     1.9012733976    -0.1544660679
   19      H       3.6055747310     3.8305451264     0.0650415953
   20      H       1.1549820536     3.3703783174     0.2207086542
   21      H      -3.4385198931    -2.1487093135     0.4240161344
   22      O       0.7574321153    -3.7977870821    -0.1125224860
   23      O      -2.9073737383     0.3331873434     0.5960805894
   24      C      -3.2817755855     1.1939235898    -0.3701505781
   25      C      -3.8795015786     2.4352104003     0.2531049116
   26      O      -3.2247537433     0.9876354290    -1.5607147506
   27      H      -1.8252525336    -4.0630830179     0.1453514624
   28      H       2.0546319740    -3.0332062858    -0.1908929150
   29      H      -3.0326448858     3.0181129011     0.6228697459
   30      H      -4.5229820265     2.1743438826     1.0982184383
   31      H      -4.4378440892     2.9991199735    -0.4958512904
 ----------------------------------------------------------------

   11    -992.1601432321      5.70e-06  Convergence criterion met
 Total energy in the final basis set =     -992.1601432321
    6    -992.4195771906      2.84e-06  Convergence criterion met
 Total energy in the final basis set =     -992.4195771906

                    Orbital Energies (a.u.)
 --------------------------------------------------------------

 Alpha MOs
 -- Occupied --
-19.1549 -19.1069 -19.1006 -19.0572 -19.0354 -10.2988 -10.2048 -10.2029
-10.1981 -10.1942 -10.1594 -10.1590 -10.1586 -10.1572 -10.1570 -10.1563
-10.1554 -10.1548 -10.1510 -10.1485 -10.1343  -1.0976  -1.0190  -1.0185
 -0.9651  -0.9576  -0.8419  -0.8220  -0.7725  -0.7447  -0.7367  -0.7190
 -0.7012  -0.6606  -0.6184  -0.6096  -0.5967  -0.5584  -0.5371  -0.5201
 -0.4962  -0.4888  -0.4760  -0.4701  -0.4551  -0.4527  -0.4411  -0.4302
 -0.4189  -0.4080  -0.4064  -0.4000  -0.3980  -0.3836  -0.3781  -0.3731
 -0.3656  -0.3644  -0.3595  -0.3504  -0.3420  -0.3315  -0.3263  -0.3169
 -0.3059  -0.2924  -0.2770  -0.2573  -0.2400  -0.2335  -0.2275  -0.2095
 -0.1913  -0.1280

          Ground-State Mulliken Net Atomic Charges

     Atom                 Charge (a.u.)
  ----------------------------------------
      1 C                    -0.215440
      2 C                    -0.458700
      3 C                    -0.418911
      4 C                     0.265513
      5 C                     0.295193
      6 C                    -0.112347
      7 C                    -0.323266
      8 C                    -0.259989
      9 C                     0.631389
     10 C                     0.453215
     11 C                    -0.535934
     12 C                    -0.300118
     13 C                     0.043067
     14 C                    -0.505093
     15 O                    -0.545042
     16 O                    -0.605579
     17 H                     0.181067
     18 H                     0.186065
     19 H                     0.190585
     20 H                     0.155450
     21 H                     0.196846
     22 O                    -0.679392
     23 O                    -0.050644
     24 C                     0.118372
     25 C                    -0.482586
     26 O                    -0.357154
     27 H                     0.173479
     28 H                     0.422325
     29 H                     0.202735
     30 H                     0.174202
     31 H                     0.160694
  ----------------------------------------
  Sum of atomic charges =    -2.000000

                    Cartesian Multipole Moments
 -----------------------------------------------------------------
    Charge (ESU x 10^10)
                -9.6064
    Dipole Moment (Debye)
         X      -1.9006      Y       6.9749      Z       2.2686
       Tot       7.5768
    Quadrupole Moments (Debye-Ang)
        XX    -156.4147     XY      13.3347     YY    -184.5655
        XZ      -7.6900     YZ       0.0029     ZZ    -140.2509

 Total job time:  114.11s(wall), 821.77s(cpu)
        *  Thank you very much for using Q-Chem.  Have a nice day.  *
