 Q-Chem 5.4, Q-Chem, Inc., Pleasanton, CA (2021)
 Q-Chem 5.4.0 for Intel X86 EM64T Linux

User input:
--------------------------------------------------------------
$molecule
-1 2
C                 -5.5148860000     -0.0404140000     -0.4310770000
C                 -5.7487700000     -0.4882650000     -1.7197660000
C                 -4.6873610000     -0.5633470000     -2.6403330000
C                 -4.2244880000      0.3449330000     -0.0209240000
C                 -3.1561100000      0.2694130000     -0.9489970000
C                 -3.4120850000     -0.1888320000     -2.2552240000
C                 -4.0288170000      0.8243870000      1.3692780000
C                 -2.6647720000      1.1860620000      1.7021190000
C                 -1.6228280000      1.1046550000      0.7897210000
C                 -1.7852830000      0.6607260000     -0.5648610000
S                 -2.3270720000      1.8957690000      3.3104900000
C                 -2.4307660000      0.5358800000      4.4605460000
C                 -2.5675630000     -0.8009320000      4.0759670000
C                 -2.3347030000      0.8463200000      5.8249600000
C                 -2.3682750000     -0.1474280000      6.8034200000
C                 -2.6014610000     -1.7960790000      5.0485240000
C                 -2.4997540000     -1.4823930000      6.4030070000
C                 -2.3010680000      0.2171160000      8.2692720000
O                 -4.9843110000      0.8907500000      2.1722520000
O                 -0.8247410000      0.5984580000     -1.3770720000
H                 -6.3128390000      0.0282330000      0.2992700000
H                 -6.7500850000     -0.7819830000     -2.0205050000
H                 -4.8700900000     -0.9148480000     -3.6515610000
H                 -2.5741590000     -0.2354280000     -2.9414830000
H                 -0.6190960000      1.3858830000      1.0887120000
H                 -2.6480080000     -1.0530590000      3.0265610000
H                 -2.2364620000      1.8859760000      6.1246950000
H                 -2.7071600000     -2.8320790000      4.7420040000
H                 -2.5258020000     -2.2712140000      7.1488280000
H                 -1.7804560000      1.1662960000      8.4206080000
H                 -1.7790490000     -0.5510010000      8.8472120000
H                 -3.3048800000      0.3222550000      8.6972680000
$end
$rem
MAX_SCF_CYCLES=200
BASIS  =  6-311++G(d,p)
GUI  =  2
JOB_TYPE  =  SP
METHOD  =  B3LYP
SOLVENT_METHOD = PCM
$end
$pcm
theory = CPCM
$end
$solvent
dielectric 37.219
opticaldielectric 1.43
$end

--------------------------------------------------------------

             Standard Nuclear Orientation (Angstroms)
    I     Atom           X                Y                Z
 ----------------------------------------------------------------
    1      C      -5.5148860000    -0.0404140000    -0.4310770000
    2      C      -5.7487700000    -0.4882650000    -1.7197660000
    3      C      -4.6873610000    -0.5633470000    -2.6403330000
    4      C      -4.2244880000     0.3449330000    -0.0209240000
    5      C      -3.1561100000     0.2694130000    -0.9489970000
    6      C      -3.4120850000    -0.1888320000    -2.2552240000
    7      C      -4.0288170000     0.8243870000     1.3692780000
    8      C      -2.6647720000     1.1860620000     1.7021190000
    9      C      -1.6228280000     1.1046550000     0.7897210000
   10      C      -1.7852830000     0.6607260000    -0.5648610000
   11      S      -2.3270720000     1.8957690000     3.3104900000
   12      C      -2.4307660000     0.5358800000     4.4605460000
   13      C      -2.5675630000    -0.8009320000     4.0759670000
   14      C      -2.3347030000     0.8463200000     5.8249600000
   15      C      -2.3682750000    -0.1474280000     6.8034200000
   16      C      -2.6014610000    -1.7960790000     5.0485240000
   17      C      -2.4997540000    -1.4823930000     6.4030070000
   18      C      -2.3010680000     0.2171160000     8.2692720000
   19      O      -4.9843110000     0.8907500000     2.1722520000
   20      O      -0.8247410000     0.5984580000    -1.3770720000
   21      H      -6.3128390000     0.0282330000     0.2992700000
   22      H      -6.7500850000    -0.7819830000    -2.0205050000
   23      H      -4.8700900000    -0.9148480000    -3.6515610000
   24      H      -2.5741590000    -0.2354280000    -2.9414830000
   25      H      -0.6190960000     1.3858830000     1.0887120000
   26      H      -2.6480080000    -1.0530590000     3.0265610000
   27      H      -2.2364620000     1.8859760000     6.1246950000
   28      H      -2.7071600000    -2.8320790000     4.7420040000
   29      H      -2.5258020000    -2.2712140000     7.1488280000
   30      H      -1.7804560000     1.1662960000     8.4206080000
   31      H      -1.7790490000    -0.5510010000     8.8472120000
   32      H      -3.3048800000     0.3222550000     8.6972680000
 ----------------------------------------------------------------

    8   -1204.0669491017      8.34e-06  Convergence criterion met
 Total energy in the final basis set =    -1204.0669491017

                    Orbital Energies (a.u.)
 --------------------------------------------------------------

 Alpha MOs
 -- Occupied --
-88.8520 -19.0857 -19.0836 -10.2353 -10.2289 -10.2078 -10.1987 -10.1852
-10.1798 -10.1786 -10.1761 -10.1756 -10.1751 -10.1734 -10.1732 -10.1725
-10.1724 -10.1713 -10.1677 -10.1624  -7.9380  -5.9019  -5.8979  -5.8923
 -1.0143  -1.0072  -0.8685  -0.8628  -0.8254  -0.7874  -0.7662  -0.7541
 -0.7479  -0.7071  -0.6848  -0.6713  -0.6213  -0.6115  -0.6004  -0.5747
 -0.5573  -0.5141  -0.5089  -0.4989  -0.4736  -0.4678  -0.4534  -0.4418
 -0.4295  -0.4286  -0.4241  -0.4217  -0.4188  -0.4102  -0.4070  -0.3964
 -0.3867  -0.3842  -0.3697  -0.3647  -0.3579  -0.3500  -0.3441  -0.3426
 -0.3306  -0.2939  -0.2818  -0.2602  -0.2567  -0.2539  -0.2510  -0.2449
 -0.2148  -0.1626

 Beta MOs
 -- Occupied --
-88.8520 -19.0804 -19.0774 -10.2338 -10.2274 -10.2076 -10.1969 -10.1852
-10.1794 -10.1783 -10.1759 -10.1753 -10.1751 -10.1733 -10.1730 -10.1724
-10.1713 -10.1703 -10.1677 -10.1624  -7.9380  -5.9019  -5.8980  -5.8923
 -1.0048  -0.9962  -0.8680  -0.8611  -0.8214  -0.7857  -0.7659  -0.7525
 -0.7465  -0.7034  -0.6846  -0.6643  -0.6193  -0.6091  -0.6003  -0.5736
 -0.5551  -0.5123  -0.5074  -0.4966  -0.4721  -0.4666  -0.4523  -0.4412
 -0.4282  -0.4244  -0.4195  -0.4187  -0.4151  -0.4081  -0.4015  -0.3937
 -0.3854  -0.3702  -0.3639  -0.3603  -0.3504  -0.3488  -0.3437  -0.3415
 -0.3267  -0.2921  -0.2579  -0.2543  -0.2514  -0.2504  -0.2479  -0.2398
 -0.2136

          Ground-State Mulliken Net Atomic Charges

     Atom                 Charge (a.u.)    Spin (a.u.)
  --------------------------------------------------------
      1 C                     0.095538       0.029337
      2 C                    -0.440784       0.019849
      3 C                    -0.504734       0.013256
      4 C                    -0.151405      -0.016597
      5 C                     0.588140       0.022992
      6 C                    -0.091206       0.028810
      7 C                    -0.805960       0.113538
      8 C                     1.555428       0.097250
      9 C                    -0.257151       0.156498
     10 C                    -0.583257       0.109272
     11 S                    -0.268446      -0.001145
     12 C                     0.210560       0.007432
     13 C                     0.063765       0.005657
     14 C                    -0.742116       0.000962
     15 C                     0.176367      -0.001735
     16 C                    -0.234441      -0.008028
     17 C                    -0.535111       0.003158
     18 C                    -0.459066       0.000060
     19 O                    -0.434229       0.204508
     20 O                    -0.499584       0.231813
     21 H                     0.190933      -0.002354
     22 H                     0.201857      -0.001749
     23 H                     0.200390      -0.001306
     24 H                     0.182790      -0.003089
     25 H                     0.224288      -0.013051
     26 H                     0.200828       0.004753
     27 H                     0.211401       0.000143
     28 H                     0.221711      -0.000137
     29 H                     0.180410      -0.000063
     30 H                     0.158993       0.000009
     31 H                     0.157550      -0.000001
     32 H                     0.186536      -0.000041
  --------------------------------------------------------
  Sum of atomic charges =    -1.000006

                    Cartesian Multipole Moments
 -----------------------------------------------------------------
    Charge (ESU x 10^10)
                -4.8032
    Dipole Moment (Debye)
         X      12.8427      Y      -5.2055      Z      -3.4029
       Tot      14.2693
    Quadrupole Moments (Debye-Ang)
        XX    -182.6596     XY      17.9542     YY    -130.9437
        XZ      29.3905     YZ      -6.3774     ZZ    -133.0824

 Total job time:  73.75s(wall), 527.70s(cpu)
        *  Thank you very much for using Q-Chem.  Have a nice day.  *
