 Gaussian 16, Revision A.03,
 Gaussian 16:  ES64L-G16RevA.03 25-Dec-2016

 --------------------------------------
 #P UB3LYP/6-311++G(d,p) nosym opt freq
 --------------------------------------

 -------
 Radical
 -------
 Symbolic Z-matrix:
 Charge = -1 Multiplicity = 2

 SCF Done:  E(UB3LYP) =  -764.237063565     A.U. after   24 cycles
 SCF Done:  E(UB3LYP) =  -764.260088849     A.U. after   19 cycles
 SCF Done:  E(UB3LYP) =  -764.262381488     A.U. after   17 cycles
 SCF Done:  E(UB3LYP) =  -764.262569135     A.U. after   15 cycles
 SCF Done:  E(UB3LYP) =  -764.262655822     A.U. after   15 cycles
 SCF Done:  E(UB3LYP) =  -764.262756335     A.U. after   16 cycles
 SCF Done:  E(UB3LYP) =  -764.263288727     A.U. after   17 cycles
 SCF Done:  E(UB3LYP) =  -764.263359625     A.U. after   20 cycles
 SCF Done:  E(UB3LYP) =  -764.263666833     A.U. after   17 cycles
 SCF Done:  E(UB3LYP) =  -764.264560481     A.U. after   17 cycles
 SCF Done:  E(UB3LYP) =  -764.265912547     A.U. after   16 cycles
 SCF Done:  E(UB3LYP) =  -764.267286032     A.U. after   17 cycles
 SCF Done:  E(UB3LYP) =  -764.268262440     A.U. after   16 cycles
 SCF Done:  E(UB3LYP) =  -764.268705809     A.U. after   16 cycles
 SCF Done:  E(UB3LYP) =  -764.268769847     A.U. after   15 cycles
 SCF Done:  E(UB3LYP) =  -764.268816120     A.U. after   14 cycles
 SCF Done:  E(UB3LYP) =  -764.268819810     A.U. after   11 cycles
 Optimization completed.
    -- Stationary point found.
 Normal termination of Gaussian 16 at Thu Dec 21 07:32:12 2023.

 ----------------------------------------------------------------------
 #P Geom=AllCheck Guess=TCheck SCRF=Check GenChk UB3LYP/6-311++G(d,p) F
 req
 ----------------------------------------------------------------------

 Structure from the checkpoint file:  "178-rad.chk"
 -------
 Radical
 -------
 Charge = -1 Multiplicity = 2

                          Input orientation:
 ---------------------------------------------------------------------
 Center     Atomic      Atomic             Coordinates (Angstroms)
 Number     Number       Type             X           Y           Z
 ---------------------------------------------------------------------
      1          8           0       -4.706581   -0.672912    0.989145
      2          6           0       -3.463236   -0.229619    0.569254
      3          6           0       -3.429416    0.978777   -0.157202
      4          6           0       -2.215218    1.462751   -0.597527
      5          6           0       -1.005488    0.781751   -0.341908
      6          6           0        0.253879    1.342438   -0.834653
      7          8           0        0.296638    2.416090   -1.482955
      8          6           0        1.462665    0.572722   -0.525128
      9          6           0        2.714837    1.050945   -0.967101
     10          6           0        3.881330    0.361580   -0.700177
     11          6           0        3.830577   -0.847535    0.029107
     12          6           0        2.618156   -1.335772    0.472035
     13          6           0        1.410503   -0.648318    0.211456
     14          6           0        0.151589   -1.205361    0.701047
     15          8           0        0.100649   -2.283330    1.352556
     16          6           0       -1.052395   -0.437059    0.392221
     17          6           0       -2.303482   -0.921139    0.838167
     18          1           0       -4.579425   -1.498615    1.467651
     19          1           0       -4.357877    1.502846   -0.354770
     20          1           0       -2.155075    2.388473   -1.158354
     21          1           0        2.722180    1.980971   -1.524170
     22          1           0        4.835229    0.746190   -1.048908
     23          1           0        4.746611   -1.391766    0.240394
     24          1           0        2.551375   -2.260714    1.033374
     25          1           0       -2.308029   -1.853393    1.396444
 ---------------------------------------------------------------------

 SCF Done:  E(UB3LYP) =  -764.268819810     A.U. after    1 cycles

 Alpha  occ. eigenvalues --  -19.05235 -18.94641 -18.94451 -10.12209 -10.09777
 Alpha  occ. eigenvalues --  -10.09288 -10.05868 -10.05777 -10.05721 -10.05679
 Alpha  occ. eigenvalues --  -10.05418 -10.05188 -10.05087 -10.05023 -10.04927
 Alpha  occ. eigenvalues --  -10.04857 -10.04754  -0.95837  -0.87298  -0.86825
 Alpha  occ. eigenvalues --   -0.74068  -0.73156  -0.66419  -0.63463  -0.62956
 Alpha  occ. eigenvalues --   -0.61942  -0.54450  -0.53268  -0.49804  -0.48243
 Alpha  occ. eigenvalues --   -0.43966  -0.43652  -0.41571  -0.38454  -0.35661
 Alpha  occ. eigenvalues --   -0.34998  -0.33789  -0.31434  -0.31180  -0.30818
 Alpha  occ. eigenvalues --   -0.30348  -0.28880  -0.28743  -0.28294  -0.27550
 Alpha  occ. eigenvalues --   -0.26342  -0.24923  -0.23715  -0.23646  -0.22873
 Alpha  occ. eigenvalues --   -0.21307  -0.20435  -0.14268  -0.13719  -0.13389
 Alpha  occ. eigenvalues --   -0.11628  -0.11569  -0.10744  -0.01442
 Alpha virt. eigenvalues --    0.06798   0.07760   0.08321   0.09675   0.09968
 Alpha virt. eigenvalues --    0.10268   0.11499   0.11545   0.13020   0.13182
 Alpha virt. eigenvalues --    0.14759   0.15146   0.15440   0.16187   0.16996

  Beta  occ. eigenvalues --  -19.05223 -18.94097 -18.93810 -10.12174 -10.09659
  Beta  occ. eigenvalues --  -10.09122 -10.05829 -10.05739 -10.05738 -10.05608
  Beta  occ. eigenvalues --  -10.05316 -10.05162 -10.05112 -10.05017 -10.04847
  Beta  occ. eigenvalues --  -10.04748 -10.04685  -0.95806  -0.86357  -0.85713
  Beta  occ. eigenvalues --   -0.73814  -0.73038  -0.66020  -0.63262  -0.62782
  Beta  occ. eigenvalues --   -0.61764  -0.53702  -0.53142  -0.49566  -0.48135
  Beta  occ. eigenvalues --   -0.43892  -0.43432  -0.41379  -0.38304  -0.35470
  Beta  occ. eigenvalues --   -0.34804  -0.33662  -0.31340  -0.31121  -0.30443
  Beta  occ. eigenvalues --   -0.30313  -0.28609  -0.28057  -0.27681  -0.27119
  Beta  occ. eigenvalues --   -0.26128  -0.23561  -0.23344  -0.22746  -0.22532
  Beta  occ. eigenvalues --   -0.21101  -0.19388  -0.13543  -0.12524  -0.11941
  Beta  occ. eigenvalues --   -0.11023  -0.10873  -0.10185
  Beta virt. eigenvalues --    0.04546   0.07596   0.07753   0.08312   0.09666
  Beta virt. eigenvalues --    0.10260   0.10976   0.11545   0.11744   0.13013
  Beta virt. eigenvalues --    0.13172   0.14743   0.15252   0.15449   0.16319

 Mulliken charges and spin densities:
               1          2
     1  O   -0.268926   0.003042
     2  C   -0.544436   0.019203
     3  C   -0.082222   0.037694
     4  C    0.157291   0.004228
     5  C    0.224993   0.030058
     6  C   -0.682775   0.059886
     7  O   -0.369320   0.202240
     8  C    0.202324   0.057960
     9  C    0.091942   0.003121
    10  C   -0.408985   0.057751
    11  C   -0.380293   0.027994
    12  C    0.059987   0.031292
    13  C    0.279361   0.041493
    14  C   -0.702022   0.093285
    15  O   -0.381946   0.240145
    16  C    0.424467   0.063216
    17  C    0.126285   0.044793
    18  H    0.255642  -0.000154
    19  H    0.159734  -0.003270
    20  H    0.163609  -0.000521
    21  H    0.156615  -0.000230
    22  H    0.121013  -0.004565
    23  H    0.122225  -0.002630
    24  H    0.154886  -0.002131
    25  H    0.120552  -0.003899
 Sum of Mulliken charges =  -1.00000   1.00000

 Dipole moment (field-independent basis, Debye):
    X=             -0.1652    Y=             -0.9475    Z=              0.5909  Tot=              1.1288
 Quadrupole moment (field-independent basis, Debye-Ang):
   XX=           -120.5121   YY=           -121.4120   ZZ=           -110.7874
   XY=              3.0650   XZ=              0.0725   YZ=              9.3122

  Exact polarizability: 325.372  -9.448 185.229 -23.276 -53.664 128.500
 Approx polarizability: 483.484 -10.664 346.673 -35.469-117.488 222.645

                      1                      2                      3
                      A                      A                      A
 Frequencies --     51.1835               102.6355               134.8353
 Red. masses --      7.7070                 4.5188                 5.3699
 Frc consts  --      0.0119                 0.0280                 0.0575
 IR Inten    --      4.8307                 0.1381                 0.3962

                      4                      5                      6
                      A                      A                      A
 Frequencies --    160.6722               192.1063               205.4972
 Red. masses --      7.3023                 6.1491                 5.6106
 Frc consts  --      0.1111                 0.1337                 0.1396
 IR Inten    --      2.8709                 2.2377                 0.6085

                      7                      8                      9
                      A                      A                      A
 Frequencies --    280.3210               298.2100               327.4276
 Red. masses --      6.6696                 2.0207                 1.7981
 Frc consts  --      0.3088                 0.1059                 0.1136
 IR Inten    --      2.7732                40.7490                62.2046

                     10                     11                     12
                      A                      A                      A
 Frequencies --    336.7148               378.3221               395.6077
 Red. masses --      8.0577                10.6477                 6.5269
 Frc consts  --      0.5383                 0.8979                 0.6018
 IR Inten    --      0.5807                 5.6495                 7.3052

                     13                     14                     15
                      A                      A                      A
 Frequencies --    417.6453               444.0380               449.2408
 Red. masses --      3.8972                 4.8947                 5.5894
 Frc consts  --      0.4005                 0.5686                 0.6646
 IR Inten    --      4.1072                 0.9602                14.7633

                     16                     17                     18
                      A                      A                      A
 Frequencies --    463.2086               489.4873               546.5267
 Red. masses --      3.0584                12.4265                 4.4777
 Frc consts  --      0.3866                 1.7542                 0.7880
 IR Inten    --      0.6738                 0.4495                 3.6870

                     19                     20                     21
                      A                      A                      A
 Frequencies --    578.8907               643.7868               647.9026
 Red. masses --      6.9664                 6.7783                 3.8469
 Frc consts  --      1.3755                 1.6552                 0.9514
 IR Inten    --     17.2460                 3.0262                 6.9030

                     22                     23                     24
                      A                      A                      A
 Frequencies --    670.1126               702.4941               706.2432
 Red. masses --      6.7621                 6.3831                 2.3969
 Frc consts  --      1.7891                 1.8559                 0.7044
 IR Inten    --      2.1137                 0.5288                70.7505

                     25                     26                     27
                      A                      A                      A
 Frequencies --    723.9884               755.6213               777.3592
 Red. masses --      4.5014                 7.1130                 1.8038
 Frc consts  --      1.3901                 2.3928                 0.6422
 IR Inten    --      0.7126                19.3131                10.1378

                     28                     29                     30
                      A                      A                      A
 Frequencies --    791.2030               821.8663               864.8110
 Red. masses --      2.4277                 2.0022                 6.5800
 Frc consts  --      0.8954                 0.7968                 2.8995
 IR Inten    --      5.3856                18.2517                42.3491

                     31                     32                     33
                      A                      A                      A
 Frequencies --    866.8471               882.8928               937.0687
 Red. masses --      1.5156                 1.4999                 6.6894
 Frc consts  --      0.6710                 0.6889                 3.4608
 IR Inten    --      0.2674                20.9962                16.3062

                     34                     35                     36
                      A                      A                      A
 Frequencies --    979.1434               982.5389               983.6573
 Red. masses --      1.3121                 1.2833                 1.3348
 Frc consts  --      0.7412                 0.7299                 0.7609
 IR Inten    --      0.1463                 0.9233                 3.2513

                     37                     38                     39
                      A                      A                      A
 Frequencies --    992.9312              1036.6998              1102.5332
 Red. masses --      3.2269                 1.9833                 2.1019
 Frc consts  --      1.8744                 1.2558                 1.5053
 IR Inten    --      3.4773                26.2179                12.6298

                     40                     41                     42
                      A                      A                      A
 Frequencies --   1109.2885              1141.4367              1153.5306
 Red. masses --      1.8975                 1.6415                 1.4999
 Frc consts  --      1.3757                 1.2601                 1.1759
 IR Inten    --      3.5383                35.0310                12.9211

                     43                     44                     45
                      A                      A                      A
 Frequencies --   1178.6675              1192.3961              1219.2972
 Red. masses --      1.6699                 2.1900                 1.9109
 Frc consts  --      1.3668                 1.8346                 1.6738
 IR Inten    --    193.2302                24.2975               101.7175

                     46                     47                     48
                      A                      A                      A
 Frequencies --   1223.5203              1248.9805              1279.4863
 Red. masses --      2.2939                 2.3158                 2.4796
 Frc consts  --      2.0232                 2.1285                 2.3917
 IR Inten    --     68.1284                36.2729                34.3102

                     49                     50                     51
                      A                      A                      A
 Frequencies --   1344.9454              1358.3173              1372.5236
 Red. masses --      2.1513                10.7497                 7.8056
 Frc consts  --      2.2927                11.6855                 8.6635
 IR Inten    --     11.2596                16.9121                 0.9556

                     52                     53                     54
                      A                      A                      A
 Frequencies --   1424.2399              1467.1602              1484.1021
 Red. masses --      2.8964                 2.5464                 3.6630
 Frc consts  --      3.4616                 3.2295                 4.7535
 IR Inten    --    303.8418               114.9618                13.6106

                     55                     56                     57
                      A                      A                      A
 Frequencies --   1493.4622              1525.4824              1541.9432
 Red. masses --      3.3008                 5.3726                 7.3080
 Frc consts  --      4.3376                 7.3663                10.2373
 IR Inten    --     35.6931               521.9984               121.3042

                     58                     59                     60
                      A                      A                      A
 Frequencies --   1571.4880              1615.0754              1621.5484
 Red. masses --      5.7881                 7.9796                 5.7803
 Frc consts  --      8.4219                12.2635                 8.9549
 IR Inten    --     38.1355                33.5057                85.3716

                     61                     62                     63
                      A                      A                      A
 Frequencies --   1640.7863              3132.8602              3149.6245
 Red. masses --      7.2127                 1.0846                 1.0894
 Frc consts  --     11.4407                 6.2718                 6.3672
 IR Inten    --    140.9243                18.6886                25.8348

                     64                     65                     66
                      A                      A                      A
 Frequencies --   3152.1374              3167.4891              3180.8088
 Red. masses --      1.0910                 1.0870                 1.0914
 Frc consts  --      6.3867                 6.4253                 6.5057
 IR Inten    --     49.0803                 7.6514                11.6459

                     67                     68                     69
                      A                      A                      A
 Frequencies --   3183.4563              3186.5252              3830.8726
 Red. masses --      1.0929                 1.0936                 1.0657
 Frc consts  --      6.5254                 6.5426                 9.2148
 IR Inten    --     35.2617                17.6385                41.3820

 - Thermochemistry -
 -------------------
 Temperature   298.150 Kelvin.  Pressure   1.00000 Atm.
 Atom     1 has atomic number  8 and mass  15.99491

 Molecular mass:   224.04734 amu.
 Principal axes and moments of inertia in atomic units:
                           1         2         3
     Eigenvalues --  1737.463565336.577907074.04123
           X            0.99198  -0.06811   0.10646
           Y            0.00428   0.85999   0.51030
           Z           -0.12631  -0.50575   0.85338
 This molecule is an asymmetric top.
 Rotational symmetry number  1.
 Warning -- assumption of classical behavior for rotation
           may cause significant error
 Rotational temperatures (Kelvin)      0.04985     0.01623     0.01224
 Rotational constants (GHZ):           1.03872     0.33818     0.25512
 Zero-point vibrational energy     474401.4 (Joules/Mol)
                                  113.38466 (Kcal/Mol)
 Warning -- explicit consideration of  19 degrees of freedom as
           vibrations may cause significant error
 Vibrational temperatures:     73.64   147.67   194.00   231.17   276.40
          (Kelvin)            295.66   403.32   429.06   471.10   484.46
                              544.32   569.19   600.90   638.87   646.36
                              666.45   704.26   786.33   832.89   926.27
                              932.19   964.14  1010.73  1016.13  1041.66
                             1087.17  1118.45  1138.36  1182.48  1244.27
                             1247.20  1270.29  1348.23  1408.77  1413.65
                             1415.26  1428.61  1491.58  1586.30  1596.02
                             1642.27  1659.67  1695.84  1715.59  1754.30
                             1760.37  1797.00  1840.90  1935.08  1954.32
                             1974.76  2049.16  2110.92  2135.29  2148.76
                             2194.83  2218.51  2261.02  2323.73  2333.05
                             2360.73  4507.49  4531.61  4535.22  4557.31
                             4576.47  4580.28  4584.70  5511.77

 Zero-point correction=                           0.180690 (Hartree/Particle)
 Thermal correction to Energy=                    0.193177
 Thermal correction to Enthalpy=                  0.194121
 Thermal correction to Gibbs Free Energy=         0.141403
 Sum of electronic and zero-point Energies=           -764.088130
 Sum of electronic and thermal Energies=              -764.075643
 Sum of electronic and thermal Enthalpies=            -764.074698
 Sum of electronic and thermal Free Energies=         -764.127417

                     E (Thermal)             CV                S
                      KCal/Mol        Cal/Mol-Kelvin    Cal/Mol-Kelvin
 Total                  121.221             51.069            110.955
 Electronic               0.000              0.000              1.377
 Translational            0.889              2.981             42.123
 Rotational               0.889              2.981             32.550
 Vibrational            119.443             45.108             34.905
 Vibration     1          0.595              1.977              4.771
 Vibration     2          0.605              1.947              3.404
 Vibration     3          0.613              1.919              2.876
 Vibration     4          0.622              1.891              2.542
 Vibration     5          0.634              1.851              2.207
 Vibration     6          0.640              1.832              2.083
 Vibration     7          0.680              1.710              1.532
 Vibration     8          0.691              1.677              1.427
 Vibration     9          0.711              1.621              1.273
 Vibration    10          0.717              1.602              1.228
 Vibration    11          0.749              1.516              1.046
 Vibration    12          0.762              1.480              0.979
 Vibration    13          0.781              1.432              0.900
 Vibration    14          0.804              1.374              0.814
 Vibration    15          0.808              1.363              0.798
 Vibration    16          0.821              1.332              0.757
 Vibration    17          0.845              1.273              0.685
 Vibration    18          0.902              1.147              0.551
 Vibration    19          0.935              1.077              0.487

 Optimization completed.
    -- Stationary point found.
 Normal termination of Gaussian 16 at Thu Dec 21 08:26:28 2023.
