 Gaussian 16, Revision A.03,
 Gaussian 16:  ES64L-G16RevA.03 25-Dec-2016

 ----------------------------------------------------------------------
 #P UB3LYP/6-311++G(d,p) nosym opt freq SCRF=(PCM,Solvent=n,n-DiMethylF
 ormamide)
 ----------------------------------------------------------------------

 -------
 Radical
 -------
 Symbolic Z-matrix:
 Charge = -1 Multiplicity = 2

 SCF Done:  E(UB3LYP) =  -921.424305368     A.U. after   19 cycles
 SCF Done:  E(UB3LYP) =  -921.424540407     A.U. after   16 cycles
 SCF Done:  E(UB3LYP) =  -921.424570191     A.U. after   15 cycles
 SCF Done:  E(UB3LYP) =  -921.424584542     A.U. after   13 cycles
 SCF Done:  E(UB3LYP) =  -921.424584903     A.U. after    9 cycles
 SCF Done:  E(UB3LYP) =  -921.424585046     A.U. after    8 cycles
 Optimization completed.
    -- Stationary point found.
 Normal termination of Gaussian 16 at Sat Feb 10 17:00:07 2024.

 ----------------------------------------------------------------------
 #P Geom=AllCheck Guess=TCheck SCRF=Check GenChk UB3LYP/6-311++G(d,p) F
 req
 ----------------------------------------------------------------------

 Structure from the checkpoint file:  "134-rad.chk"
 -------
 Radical
 -------
 Charge = -1 Multiplicity = 2

                          Input orientation:
 ---------------------------------------------------------------------
 Center     Atomic      Atomic             Coordinates (Angstroms)
 Number     Number       Type             X           Y           Z
 ---------------------------------------------------------------------
      1          6           0        7.107913   -1.846636   -0.603206
      2          6           0        7.630427   -0.808983   -1.445238
      3          6           0        6.780219    0.277813   -1.866170
      4          6           0        5.481674    0.290993   -1.443589
      5          6           0        4.917436   -0.714126   -0.608741
      6          6           0        5.715588   -1.807469   -0.170271
      7          6           0        5.120449   -2.833785    0.682526
      8          6           0        3.701600   -2.675334    1.047191
      9          6           0        2.923229   -1.578461    0.602144
     10          6           0        3.513589   -0.549579   -0.247974
     11          6           0        3.091662   -3.648277    1.868781
     12          6           0        1.763114   -3.544802    2.237845
     13          6           0        0.991632   -2.452818    1.792930
     14          6           0        1.568206   -1.488403    0.988527
     15          8           0        5.747599   -3.840734    1.120264
     16          8           0        2.832187    0.436401   -0.649782
     17          1           0        4.822666    1.096424   -1.745027
     18          1           0        3.696691   -4.481583    2.203304
     19          1           0        0.992368   -0.641108    0.636441
     20          6           0        7.304329    1.380210   -2.752827
     21          1           0       -0.050674   -2.371109    2.081891
     22          6           0        8.984203   -0.859246   -1.858875
     23          6           0        8.011769   -2.879434   -0.232593
     24          6           0        9.326259   -2.892372   -0.656488
     25          6           0        9.844202   -1.876446   -1.484062
     26          6           0       11.283225   -1.908176   -1.936408
     27          1           0        1.313877   -4.303494    2.869735
     28          1           0        8.140126    1.914171   -2.288212
     29          1           0        6.517156    2.106593   -2.961164
     30          1           0        7.667592    0.994024   -3.711190
     31          1           0        9.363144   -0.068259   -2.494986
     32          1           0        7.641477   -3.669284    0.400216
     33          1           0        9.973985   -3.706144   -0.342851
     34          1           0       11.519737   -1.053503   -2.573346
     35          1           0       11.500223   -2.820830   -2.500791
     36          1           0       11.966785   -1.891777   -1.081341
 ---------------------------------------------------------------------

 SCF Done:  E(UB3LYP) =  -921.424585046     A.U. after    2 cycles

 Alpha  occ. eigenvalues --  -19.07533 -19.07259 -10.22574 -10.22304 -10.18302
 Alpha  occ. eigenvalues --  -10.18047 -10.17987 -10.17945 -10.17629 -10.17318
 Alpha  occ. eigenvalues --  -10.17313 -10.17265 -10.17214 -10.17150 -10.17040
 Alpha  occ. eigenvalues --  -10.16927 -10.16624 -10.16621 -10.16398 -10.16323
 Alpha  occ. eigenvalues --  -10.16196 -10.16061  -1.00013  -0.99744  -0.87284
 Alpha  occ. eigenvalues --   -0.85706  -0.82901  -0.79568  -0.77191  -0.74978
 Alpha  occ. eigenvalues --   -0.74952  -0.73050  -0.70327  -0.68448  -0.65839
 Alpha  occ. eigenvalues --   -0.62454  -0.61535  -0.60041  -0.58261  -0.55664
 Alpha  occ. eigenvalues --   -0.53308  -0.51375  -0.49626  -0.48408  -0.46966
 Alpha  occ. eigenvalues --   -0.45803  -0.44324  -0.43462  -0.43039  -0.42921
 Alpha  occ. eigenvalues --   -0.42465  -0.41788  -0.41504  -0.41397  -0.40751
 Alpha  occ. eigenvalues --   -0.40191  -0.38808  -0.38489  -0.37986  -0.37649
 Alpha  occ. eigenvalues --   -0.36935  -0.36699  -0.35172  -0.34792  -0.33941
 Alpha  occ. eigenvalues --   -0.33392  -0.32681  -0.31094  -0.27496  -0.26073
 Alpha  occ. eigenvalues --   -0.25594  -0.24359  -0.24312  -0.23208  -0.21912
 Alpha  occ. eigenvalues --   -0.14508
 Alpha virt. eigenvalues --   -0.05120  -0.03653  -0.01257  -0.00550   0.00111
 Alpha virt. eigenvalues --    0.00768   0.00771   0.01531   0.01836   0.02902
 Alpha virt. eigenvalues --    0.03008   0.03167   0.03772   0.04356   0.04617

  Beta  occ. eigenvalues --  -19.06961 -19.06734 -10.22403 -10.22140 -10.18305
  Beta  occ. eigenvalues --  -10.18042 -10.17965 -10.17853 -10.17533 -10.17279
  Beta  occ. eigenvalues --  -10.17256 -10.17229 -10.17162 -10.17031 -10.17024
  Beta  occ. eigenvalues --  -10.16928 -10.16615 -10.16604 -10.16399 -10.16330
  Beta  occ. eigenvalues --  -10.16230 -10.16044  -0.99055  -0.98760  -0.87158
  Beta  occ. eigenvalues --   -0.85534  -0.82748  -0.79273  -0.77044  -0.74832
  Beta  occ. eigenvalues --   -0.74779  -0.72983  -0.70085  -0.68328  -0.65249
  Beta  occ. eigenvalues --   -0.62362  -0.61378  -0.59883  -0.58183  -0.55448
  Beta  occ. eigenvalues --   -0.53131  -0.51214  -0.49539  -0.48272  -0.46734
  Beta  occ. eigenvalues --   -0.45746  -0.44195  -0.43395  -0.42949  -0.42552
  Beta  occ. eigenvalues --   -0.42421  -0.41577  -0.41240  -0.40522  -0.40502
  Beta  occ. eigenvalues --   -0.39955  -0.38622  -0.38464  -0.37632  -0.36950
  Beta  occ. eigenvalues --   -0.36604  -0.35513  -0.35094  -0.34004  -0.33852
  Beta  occ. eigenvalues --   -0.33288  -0.32591  -0.30261  -0.26886  -0.25039
  Beta  occ. eigenvalues --   -0.24662  -0.23843  -0.23723  -0.22730  -0.21243
  Beta virt. eigenvalues --   -0.08764  -0.04362  -0.02851  -0.00953  -0.00540
  Beta virt. eigenvalues --    0.00117   0.00773   0.01292   0.01540   0.01842
  Beta virt. eigenvalues --    0.03016   0.03045   0.03171   0.03777   0.04618

 Mulliken charges and spin densities:
               1          2
     1  C    0.794889   0.000286
     2  C    0.152532   0.004258
     3  C    0.440371   0.068850
     4  C   -0.223755  -0.028655
     5  C    0.196723   0.089774
     6  C    0.571811   0.074925
     7  C   -0.897585   0.101862
     8  C    0.146037   0.006647
     9  C    0.196993   0.031520
    10  C   -0.592912   0.103211
    11  C    0.042722   0.021873
    12  C   -0.482031   0.032183
    13  C   -0.358018   0.024199
    14  C   -0.005650   0.028634
    15  O   -0.418761   0.199410
    16  O   -0.452085   0.212631
    17  H    0.111506   0.000559
    18  H    0.163687  -0.001221
    19  H    0.162478  -0.001987
    20  C   -0.374176  -0.006865
    21  H    0.182550  -0.002048
    22  C   -0.847189   0.005468
    23  C   -0.596445   0.014323
    24  C   -0.516300   0.007576
    25  C    0.294782   0.012856
    26  C   -0.283334  -0.000335
    27  H    0.182427  -0.002661
    28  H    0.163446   0.003683
    29  H    0.179390   0.000151
    30  H    0.163446   0.003687
    31  H    0.068342  -0.001149
    32  H    0.148792  -0.003998
    33  H    0.192182  -0.000959
    34  H    0.168158   0.000038
    35  H    0.162254   0.000630
    36  H    0.162721   0.000645
 Sum of Mulliken charges =  -1.00000   1.00000

 Dipole moment (field-independent basis, Debye):
    X=            -20.6633    Y=              8.2850    Z=             -1.1819  Tot=             22.2937
 Quadrupole moment (field-independent basis, Debye-Ang):
   XX=           -221.5167   YY=           -163.3343   ZZ=           -135.3900
   XY=             50.5680   XZ=            -16.0335   YZ=              4.6952

  Exact polarizability: 633.712 -22.802 380.903-134.394-120.600 302.655
 Approx polarizability: 643.235 -50.889 449.899-109.898-136.924 334.284

                      1                      2                      3
                      A                      A                      A
 Frequencies --     30.2332                42.2506                64.6552
 Red. masses --      6.2973                 4.9400                 1.2326
 Frc consts  --      0.0034                 0.0052                 0.0030
 IR Inten    --      5.3611                 5.7080                 0.1361

                      4                      5                      6
                      A                      A                      A
 Frequencies --     77.1665               125.4279               141.4652
 Red. masses --      2.6481                 4.4338                 4.2640
 Frc consts  --      0.0093                 0.0411                 0.0503
 IR Inten    --      5.1131                 0.0580                 0.0318

                      7                      8                      9
                      A                      A                      A
 Frequencies --    153.4078               167.8093               191.6166
 Red. masses --      4.5920                 3.4965                 2.2925
 Frc consts  --      0.0637                 0.0580                 0.0496
 IR Inten    --      4.4413                 6.8691                 0.9010

                     10                     11                     12
                      A                      A                      A
 Frequencies --    218.8326               237.9706               277.8682
 Red. masses --      1.5201                 3.1888                 4.2012
 Frc consts  --      0.0429                 0.1064                 0.1911
 IR Inten    --      1.1557                 2.0776                 1.2268

                     13                     14                     15
                      A                      A                      A
 Frequencies --    283.3953               292.5882               344.9034
 Red. masses --      5.9462                 4.7313                 7.5483
 Frc consts  --      0.2814                 0.2386                 0.5290
 IR Inten    --      2.9313                 3.5450                 0.8385

                     16                     17                     18
                      A                      A                      A
 Frequencies --    358.2807               373.3929               398.3649
 Red. masses --      4.5096                 3.5225                11.4723
 Frc consts  --      0.3411                 0.2894                 1.0727
 IR Inten    --      0.0265                 2.3154                29.3285

                     19                     20                     21
                      A                      A                      A
 Frequencies --    417.1801               444.8860               450.2012
 Red. masses --      3.6957                 3.7125                 4.1711
 Frc consts  --      0.3790                 0.4329                 0.4981
 IR Inten    --      6.3309                 2.3130                 0.0230

                     22                     23                     24
                      A                      A                      A
 Frequencies --    483.4899               492.1081               515.2925
 Red. masses --      9.7450                 5.7442                 5.3146
 Frc consts  --      1.3422                 0.8196                 0.8314
 IR Inten    --      1.2508                 5.8688                 2.8343

                     25                     26                     27
                      A                      A                      A
 Frequencies --    526.2587               539.3443               572.0237
 Red. masses --      3.2025                 5.2835                 4.7265
 Frc consts  --      0.5226                 0.9055                 0.9112
 IR Inten    --     15.8370                 7.3193                 2.3052

                     28                     29                     30
                      A                      A                      A
 Frequencies --    591.6440               631.8855               641.7119
 Red. masses --      5.9654                 3.7107                 6.3042
 Frc consts  --      1.2303                 0.8729                 1.5295
 IR Inten    --     20.1824                 2.5937                19.1944

                     31                     32                     33
                      A                      A                      A
 Frequencies --    684.8474               698.8216               714.8717
 Red. masses --      6.1456                 4.7883                 2.5693
 Frc consts  --      1.6983                 1.3777                 0.7736
 IR Inten    --      3.0368                 1.1545                85.0097

                     34                     35                     36
                      A                      A                      A
 Frequencies --    721.9028               738.7523               768.8749
 Red. masses --      5.4853                 6.6524                 4.3354
 Frc consts  --      1.6842                 2.1391                 1.5101
 IR Inten    --      3.2923                 1.8417                 0.6835

                     37                     38                     39
                      A                      A                      A
 Frequencies --    791.5204               797.3865               818.4792
 Red. masses --      1.7945                 4.9134                 6.0878
 Frc consts  --      0.6624                 1.8406                 2.4028
 IR Inten    --     48.8245                 1.7971                11.3292

                     40                     41                     42
                      A                      A                      A
 Frequencies --    839.5665               881.6516               887.3215
 Red. masses --      1.4522                 6.2876                 1.3756
 Frc consts  --      0.6031                 2.8796                 0.6381
 IR Inten    --     57.8353                 0.4510                 3.8840

                     43                     44                     45
                      A                      A                      A
 Frequencies --    889.0645               927.0816               931.7776
 Red. masses --      1.4434                 3.9186                 1.3581
 Frc consts  --      0.6722                 1.9843                 0.6947
 IR Inten    --      0.6689                22.7691                22.3351

                     46                     47                     48
                      A                      A                      A
 Frequencies --    990.4203               999.1380              1000.1666
 Red. masses --      1.3643                 1.3021                 2.5233
 Frc consts  --      0.7885                 0.7658                 1.4872
 IR Inten    --      2.9018                 3.7201                47.1683

                     49                     50                     51
                      A                      A                      A
 Frequencies --   1003.4403              1015.4937              1025.5752
 Red. masses --      1.2862                 1.7888                 2.4730
 Frc consts  --      0.7630                 1.0868                 1.5326
 IR Inten    --      0.0397                19.4272                 7.0196

                     52                     53                     54
                      A                      A                      A
 Frequencies --   1048.6080              1057.1005              1058.6899
 Red. masses --      2.0068                 1.5257                 1.5229
 Frc consts  --      1.3001                 1.0045                 1.0057
 IR Inten    --     31.7417                 6.9442                 3.4008

                     55                     56                     57
                      A                      A                      A
 Frequencies --   1085.6032              1098.3558              1123.1039
 Red. masses --      2.2331                 4.5992                 1.9877
 Frc consts  --      1.5506                 3.2691                 1.4772
 IR Inten    --      0.3714                10.0610                19.6567

                     58                     59                     60
                      A                      A                      A
 Frequencies --   1153.1574              1173.7880              1189.9679
 Red. masses --      1.3249                 1.5143                 2.1786
 Frc consts  --      1.0380                 1.2293                 1.8176
 IR Inten    --     21.9805                42.6815                28.3714

                     61                     62                     63
                      A                      A                      A
 Frequencies --   1217.8254              1224.1067              1234.1544
 Red. masses --      2.0612                 2.4151                 2.0988
 Frc consts  --      1.8011                 2.1322                 1.8835
 IR Inten    --     22.1470                39.8674                46.4796

                     64                     65                     66
                      A                      A                      A
 Frequencies --   1249.9441              1287.9136              1298.5780
 Red. masses --      3.1759                 1.9443                 2.6842
 Frc consts  --      2.9235                 1.9002                 2.6669
 IR Inten    --     25.8888               203.8582                86.3368

                     67                     68                     69
                      A                      A                      A
 Frequencies --   1342.2128              1361.9798              1372.1084
 Red. masses --      5.0122                 9.4602                 3.8177
 Frc consts  --      5.3201                10.3393                 4.2347
 IR Inten    --     13.0424                17.0236               171.4820

                     70                     71                     72
                      A                      A                      A
 Frequencies --   1397.9868              1401.1318              1407.3550
 Red. masses --      2.5601                 2.6190                 1.2738
 Frc consts  --      2.9479                 3.0293                 1.4864
 IR Inten    --    396.0916                63.8584                 1.7469

                     73                     74                     75
                      A                      A                      A
 Frequencies --   1411.7326              1451.0920              1470.4051
 Red. masses --      1.5735                 2.8519                 2.1745
 Frc consts  --      1.8476                 3.5382                 2.7700
 IR Inten    --     48.1139               383.9225               108.8543

                     76                     77                     78
                      A                      A                      A
 Frequencies --   1473.5881              1475.2832              1476.6621
 Red. masses --      1.0432                 1.0437                 2.5349
 Frc consts  --      1.3346                 1.3384                 3.2567
 IR Inten    --     12.0338                 9.7765                45.7235

                     79                     80                     81
                      A                      A                      A
 Frequencies --   1485.3045              1489.8897              1500.8322
 Red. masses --      1.6318                 1.6743                 2.6509
 Frc consts  --      2.1210                 2.1897                 3.5181
 IR Inten    --     16.4757                26.2957               328.0769

                     82                     83                     84
                      A                      A                      A
 Frequencies --   1508.2459              1536.4097              1561.5488
 Red. masses --      3.0027                 4.3278                 5.4319
 Frc consts  --      4.0245                 6.0190                 7.8039
 IR Inten    --    574.5468               129.1470               109.7606

                     85                     86                     87
                      A                      A                      A
 Frequencies --   1605.4468              1624.8415              1634.0682
 Red. masses --      8.2357                 5.8346                 6.4950
 Frc consts  --     12.5066                 9.0758                10.2180
 IR Inten    --     83.4690                 8.3833                 2.9575

                     88                     89                     90
                      A                      A                      A
 Frequencies --   1644.9615              3013.7368              3018.2683
 Red. masses --      5.5712                 1.0387                 1.0373
 Frc consts  --      8.8819                 5.5585                 5.5678
 IR Inten    --     18.7537               102.7618                84.4737

                     91                     92                     93
                      A                      A                      A
 Frequencies --   3056.6890              3064.3001              3098.8741
 Red. masses --      1.0999                 1.1002                 1.1005
 Frc consts  --      6.0547                 6.0869                 6.2263
 IR Inten    --     31.9745                29.2613                35.5337

                     94                     95                     96
                      A                      A                      A
 Frequencies --   3102.5225              3148.5708              3158.8386
 Red. masses --      1.0988                 1.0899                 1.0862
 Frc consts  --      6.2316                 6.3660                 6.3856
 IR Inten    --     37.8250                44.3456                11.9614

                     97                     98                     99
                      A                      A                      A
 Frequencies --   3173.2395              3180.0647              3181.0204
 Red. masses --      1.0909                 1.0891                 1.0891
 Frc consts  --      6.4721                 6.4891                 6.4929
 IR Inten    --     28.4629                12.3401                45.7277

                    100                    101                    102
                      A                      A                      A
 Frequencies --   3191.1207              3195.0349              3238.3084
 Red. masses --      1.0920                 1.0935                 1.0914
 Frc consts  --      6.5520                 6.5767                 6.7432
 IR Inten    --     21.1006                41.9286                32.1322

 - Thermochemistry -
 -------------------
 Temperature   298.150 Kelvin.  Pressure   1.00000 Atm.
 Atom     1 has atomic number  6 and mass  12.00000

 Molecular mass:   286.09938 amu.
 Principal axes and moments of inertia in atomic units:
                           1         2         3
     Eigenvalues --  2915.169659758.05808**********
           X            0.91435  -0.30461   0.26678
           Y            0.12921   0.84391   0.52070
           Z           -0.38375  -0.44163   0.81099
 This molecule is an asymmetric top.
 Rotational symmetry number  1.
 Warning -- assumption of classical behavior for rotation
           may cause significant error
 Rotational temperatures (Kelvin)      0.02971     0.00888     0.00685
 Rotational constants (GHZ):           0.61909     0.18495     0.14266
 Zero-point vibrational energy     730717.2 (Joules/Mol)
                                  174.64561 (Kcal/Mol)
 Warning -- explicit consideration of  28 degrees of freedom as
           vibrations may cause significant error
 Vibrational temperatures:     43.50    60.79    93.02   111.03   180.46
          (Kelvin)            203.54   220.72   241.44   275.69   314.85
                              342.39   399.79   407.74   420.97   496.24
                              515.49   537.23   573.16   600.23   640.09
                              647.74   695.63   708.03   741.39   757.17
                              776.00   823.01   851.24   909.14   923.28
                              985.34  1005.45  1028.54  1038.66  1062.90
                             1106.24  1138.82  1147.26  1177.61  1207.95
                             1268.50  1276.66  1279.17  1333.86  1340.62
                             1424.99  1437.54  1439.02  1443.73  1461.07
                             1475.57  1508.71  1520.93  1523.22  1561.94
                             1580.29  1615.90  1659.14  1688.82  1712.10
                             1752.18  1761.22  1775.67  1798.39  1853.02
                             1868.36  1931.14  1959.59  1974.16  2011.39
                             2015.92  2024.87  2031.17  2087.80  2115.59
                             2120.16  2122.60  2124.59  2137.02  2143.62
                             2159.36  2170.03  2210.55  2246.72  2309.88
                             2337.78  2351.06  2366.73  4336.10  4342.61
                             4397.89  4408.84  4458.59  4463.84  4530.09
                             4544.86  4565.58  4575.40  4576.78  4591.31
                             4596.94  4659.20

 Zero-point correction=                           0.278315 (Hartree/Particle)
 Thermal correction to Energy=                    0.295718
 Thermal correction to Enthalpy=                  0.296663
 Thermal correction to Gibbs Free Energy=         0.232204
 Sum of electronic and zero-point Energies=           -921.146270
 Sum of electronic and thermal Energies=              -921.128867
 Sum of electronic and thermal Enthalpies=            -921.127922
 Sum of electronic and thermal Free Energies=         -921.192381

                     E (Thermal)             CV                S
                      KCal/Mol        Cal/Mol-Kelvin    Cal/Mol-Kelvin
 Total                  185.566             69.831            135.664
 Electronic               0.000              0.000              1.377
 Translational            0.889              2.981             42.851
 Rotational               0.889              2.981             34.242
 Vibrational            183.789             63.869             57.193
 Vibration     1          0.594              1.984              5.814
 Vibration     2          0.595              1.980              5.151
 Vibration     3          0.597              1.971              4.310
 Vibration     4          0.599              1.964              3.962
 Vibration     5          0.610              1.928              3.015
 Vibration     6          0.615              1.912              2.784
 Vibration     7          0.619              1.899              2.630
 Vibration     8          0.625              1.882              2.460
 Vibration     9          0.634              1.851              2.212
 Vibration    10          0.647              1.812              1.969
 Vibration    11          0.656              1.782              1.818
 Vibration    12          0.679              1.714              1.547
 Vibration    13          0.682              1.704              1.513
 Vibration    14          0.688              1.688              1.459
 Vibration    15          0.723              1.586              1.189
 Vibration    16          0.733              1.558              1.130
 Vibration    17          0.745              1.527              1.066
 Vibration    18          0.765              1.474              0.969
 Vibration    19          0.780              1.433              0.902
 Vibration    20          0.804              1.372              0.811
 Vibration    21          0.809              1.360              0.795
 Vibration    22          0.840              1.287              0.701
 Vibration    23          0.848              1.268              0.678
 Vibration    24          0.870              1.216              0.621
 Vibration    25          0.881              1.192              0.596
 Vibration    26          0.894              1.163              0.567
 Vibration    27          0.928              1.092              0.500
 Vibration    28          0.949              1.050              0.464

                           ! Non-Optimized Parameters !
 Normal termination of Gaussian 16 at Sat Feb 10 19:35:50 2024.
