 Gaussian 16, Revision A.03,
 Gaussian 16:  ES64L-G16RevA.03 25-Dec-2016

 --------------------------------------
 #P UB3LYP/6-311++G(d,p) nosym opt freq
 --------------------------------------

 -------
 Reduced
 -------
 Symbolic Z-matrix:
 Charge = -2 Multiplicity = 1

 SCF Done:  E(UB3LYP) =  -767.579014796     A.U. after   37 cycles
 Optimization completed.
    -- Stationary point found.
 Normal termination of Gaussian 16 at Wed Dec 27 20:01:20 2023.

 ----------------------------------------------------------------------
 #P Geom=AllCheck Guess=TCheck SCRF=Check GenChk UB3LYP/6-311++G(d,p) F
 req
 ----------------------------------------------------------------------

 Structure from the checkpoint file:  "129-an.chk"
 -------
 Reduced
 -------
 Charge = -2 Multiplicity = 1

                          Input orientation:
 ---------------------------------------------------------------------
 Center     Atomic      Atomic             Coordinates (Angstroms)
 Number     Number       Type             X           Y           Z
 ---------------------------------------------------------------------
      1          6           0       -3.758550    1.761071   -0.376720
      2          6           0       -2.520332    0.926852   -0.134632
      3          6           0       -1.264171    1.429622   -0.412319
      4          6           0       -0.069282    0.687456   -0.240437
      5          6           0        1.206387    1.305567   -0.552773
      6          8           0        1.306972    2.509124   -0.978785
      7          6           0        2.360532    0.453997   -0.337240
      8          6           0        3.656379    0.960938   -0.608374
      9          6           0        4.796757    0.205455   -0.425369
     10          6           0        4.685096   -1.130985    0.052018
     11          6           0        3.438064   -1.653445    0.328863
     12          6           0        2.247387   -0.903830    0.155458
     13          6           0        0.970891   -1.518207    0.466558
     14          8           0        0.870077   -2.721786    0.892517
     15          6           0       -0.181808   -0.663070    0.249908
     16          6           0       -1.480403   -1.161805    0.520023
     17          6           0       -2.633565   -0.423780    0.337399
     18          6           0       -3.986782   -1.004924    0.682275
     19          1           0       -3.488204    2.775729   -0.683147
     20          1           0       -4.403895    1.338876   -1.168150
     21          1           0       -4.391418    1.840578    0.513271
     22          1           0       -1.148987    2.441735   -0.789817
     23          1           0        3.707820    1.982817   -0.971728
     24          1           0        5.776148    0.626901   -0.645143
     25          1           0        5.578787   -1.735211    0.198147
     26          1           0        3.319365   -2.668758    0.694847
     27          1           0       -1.533776   -2.179994    0.894994
     28          1           0       -4.473990   -0.472467    1.519070
     29          1           0       -4.691065   -0.953291   -0.154510
     30          1           0       -3.894433   -2.055164    0.973797
 ---------------------------------------------------------------------

 SCF Done:  E(UB3LYP) =  -767.579014796     A.U. after    5 cycles

 Alpha  occ. eigenvalues --  -18.79609 -18.79608  -9.96052  -9.96052  -9.95388
 Alpha  occ. eigenvalues --   -9.95387  -9.94358  -9.94317  -9.94013  -9.93969
 Alpha  occ. eigenvalues --   -9.93179  -9.93177  -9.92551  -9.92550  -9.91696
 Alpha  occ. eigenvalues --   -9.91659  -9.91466  -9.91426  -0.71506  -0.71141
 Alpha  occ. eigenvalues --   -0.61846  -0.60751  -0.55228  -0.53497  -0.51099
 Alpha  occ. eigenvalues --   -0.50669  -0.47350  -0.45411  -0.40867  -0.38330
 Alpha  occ. eigenvalues --   -0.35855  -0.34481  -0.30743  -0.28252  -0.27217
 Alpha  occ. eigenvalues --   -0.24218  -0.22100  -0.21737  -0.21381  -0.20540
 Alpha  occ. eigenvalues --   -0.19232  -0.19137  -0.18304  -0.17843  -0.16779
 Alpha  occ. eigenvalues --   -0.15435  -0.15014  -0.14568  -0.13896  -0.12938
 Alpha  occ. eigenvalues --   -0.11516  -0.10105  -0.09743  -0.09728  -0.07744
 Alpha  occ. eigenvalues --   -0.07512  -0.01476  -0.00170   0.00152   0.00925
 Alpha  occ. eigenvalues --    0.02604   0.03281   0.12534
 Alpha virt. eigenvalues --    0.14039   0.15527   0.15675   0.17303   0.17405
 Alpha virt. eigenvalues --    0.18394   0.19469   0.19766   0.20007   0.20197
 Alpha virt. eigenvalues --    0.20963   0.21178   0.22087   0.23535   0.23709

  Beta  occ. eigenvalues --  -18.79609 -18.79608  -9.96052  -9.96052  -9.95388
  Beta  occ. eigenvalues --   -9.95387  -9.94358  -9.94317  -9.94013  -9.93969
  Beta  occ. eigenvalues --   -9.93179  -9.93177  -9.92551  -9.92550  -9.91696
  Beta  occ. eigenvalues --   -9.91659  -9.91466  -9.91426  -0.71506  -0.71141
  Beta  occ. eigenvalues --   -0.61846  -0.60751  -0.55228  -0.53497  -0.51099
  Beta  occ. eigenvalues --   -0.50669  -0.47350  -0.45411  -0.40867  -0.38330
  Beta  occ. eigenvalues --   -0.35855  -0.34481  -0.30743  -0.28252  -0.27217
  Beta  occ. eigenvalues --   -0.24218  -0.22100  -0.21737  -0.21381  -0.20540
  Beta  occ. eigenvalues --   -0.19232  -0.19137  -0.18304  -0.17843  -0.16779
  Beta  occ. eigenvalues --   -0.15435  -0.15014  -0.14568  -0.13896  -0.12938
  Beta  occ. eigenvalues --   -0.11516  -0.10105  -0.09743  -0.09728  -0.07744
  Beta  occ. eigenvalues --   -0.07512  -0.01476  -0.00170   0.00152   0.00925
  Beta  occ. eigenvalues --    0.02604   0.03281   0.12534
  Beta virt. eigenvalues --    0.14039   0.15527   0.15675   0.17303   0.17405
  Beta virt. eigenvalues --    0.18394   0.19469   0.19766   0.20007   0.20197
  Beta virt. eigenvalues --    0.20963   0.21178   0.22087   0.23535   0.23709

 Mulliken charges and spin densities:
               1          2
     1  C    1.248778   0.000000
     2  C   -1.048523   0.000000
     3  C    0.076605  -0.000000
     4  C    0.432706  -0.000000
     5  C   -0.998753   0.000000
     6  O   -0.470853  -0.000000
     7  C    0.339074   0.000000
     8  C    0.014205   0.000000
     9  C   -0.493353  -0.000000
    10  C   -0.493435   0.000000
    11  C    0.014245   0.000000
    12  C    0.339231  -0.000000
    13  C   -0.998806  -0.000000
    14  O   -0.470862   0.000000
    15  C    0.432168   0.000000
    16  C    0.076309  -0.000000
    17  C   -1.048170   0.000000
    18  C    1.246710  -0.000000
    19  H   -0.222234   0.000000
    20  H   -0.155191   0.000000
    21  H   -0.103443   0.000000
    22  H    0.171936  -0.000000
    23  H    0.129700  -0.000000
    24  H    0.080153  -0.000000
    25  H    0.080149   0.000000
    26  H    0.129698   0.000000
    27  H    0.172040  -0.000000
    28  H   -0.154557  -0.000000
    29  H   -0.103417  -0.000000
    30  H   -0.222107   0.000000
 Sum of Mulliken charges =  -2.00000  -0.00000

 Dipole moment (field-independent basis, Debye):
    X=             -1.2361    Y=              0.1199    Z=              0.0507  Tot=              1.2429
 Quadrupole moment (field-independent basis, Debye-Ang):
   XX=           -216.1480   YY=           -167.3513   ZZ=           -130.8148
   XY=              5.4182   XZ=              4.8177   YZ=             14.6581

  Exact polarizability:2036.183-137.3471229.537 -67.950-256.873 533.025
 Approx polarizability:6900.303-587.5491028.750-272.162-173.273 483.591

                      1                      2                      3
                      A                      A                      A
 Frequencies --     49.2004                74.0785               130.8721
 Red. masses --      5.5090                 3.5565                 3.6944
 Frc consts  --      0.0079                 0.0115                 0.0373
 IR Inten    --      2.1606                 0.1463                 1.1306

                      4                      5                      6
                      A                      A                      A
 Frequencies --    139.6589               157.9122               173.7418
 Red. masses --      5.1772                 1.1343                 4.2790
 Frc consts  --      0.0595                 0.0167                 0.0761
 IR Inten    --      2.2632                 4.0387                 5.2462

                      7                      8                      9
                      A                      A                      A
 Frequencies --    191.6531               227.9081               237.5447
 Red. masses --      3.5447                 1.2101                 3.1665
 Frc consts  --      0.0767                 0.0370                 0.1053
 IR Inten    --      5.4615                 8.6384                 0.1639

                     10                     11                     12
                      A                      A                      A
 Frequencies --    276.5442               285.8958               324.4456
 Red. masses --      5.9418                 2.7923                 4.1630
 Frc consts  --      0.2677                 0.1345                 0.2582
 IR Inten    --      0.6456                81.7234                 6.3245

                     13                     14                     15
                      A                      A                      A
 Frequencies --    336.0589               358.1173               368.1447
 Red. masses --      5.2150                 5.2527                10.2301
 Frc consts  --      0.3470                 0.3969                 0.8169
 IR Inten    --     45.6780                11.9645                18.5768

                     16                     17                     18
                      A                      A                      A
 Frequencies --    413.5466               432.6477               468.3235
 Red. masses --      6.9773                 3.2829                 4.2919
 Frc consts  --      0.7030                 0.3621                 0.5546
 IR Inten    --      6.9412                13.8146                 1.3592

                     19                     20                     21
                      A                      A                      A
 Frequencies --    479.1196               479.6225               531.6033
 Red. masses --      3.0989                11.7040                 4.9226
 Frc consts  --      0.4191                 1.5863                 0.8196
 IR Inten    --     19.3912               735.1503                 1.1559

                     22                     23                     24
                      A                      A                      A
 Frequencies --    556.1691               616.0354               641.7107
 Red. masses --      4.3351                 6.6649                 4.6819
 Frc consts  --      0.7901                 1.4902                 1.1359
 IR Inten    --     22.3815                 0.2849                 9.1692

                     25                     26                     27
                      A                      A                      A
 Frequencies --    661.6250               692.1857               698.0662
 Red. masses --      5.8699                 1.5875                 6.0981
 Frc consts  --      1.5139                 0.4481                 1.7508
 IR Inten    --     33.7065                85.0380                 5.0062

                     28                     29                     30
                      A                      A                      A
 Frequencies --    717.1196               741.8725               743.1731
 Red. masses --      4.0815                 6.5815                 4.3163
 Frc consts  --      1.2367                 2.1342                 1.4046
 IR Inten    --      3.6607                14.3252                15.3047

                     31                     32                     33
                      A                      A                      A
 Frequencies --    760.4022               781.2316               830.5245
 Red. masses --      2.9358                 1.5771                 3.8164
 Frc consts  --      1.0002                 0.5671                 1.5510
 IR Inten    --      3.5089                 1.2434                 1.8953

                     34                     35                     36
                      A                      A                      A
 Frequencies --    878.0883               926.7551               929.6750
 Red. masses --      5.9836                 1.3813                 1.3923
 Frc consts  --      2.7183                 0.6990                 0.7090
 IR Inten    --     11.1176                16.7341                10.6240

                     37                     38                     39
                      A                      A                      A
 Frequencies --    943.4443               955.7658               961.6262
 Red. masses --      3.3809                 1.2384                 1.3726
 Frc consts  --      1.7730                 0.6665                 0.7478
 IR Inten    --      3.7713                 0.3405                10.4274

                     40                     41                     42
                      A                      A                      A
 Frequencies --   1004.0849              1016.8691              1017.3293
 Red. masses --      1.7753                 1.5193                 1.7298
 Frc consts  --      1.0546                 0.9256                 1.0548
 IR Inten    --    542.8134                26.1794               101.7583

                     43                     44                     45
                      A                      A                      A
 Frequencies --   1048.5281              1049.7147              1081.4103
 Red. masses --      1.4209                 1.4866                 5.2051
 Frc consts  --      0.9204                 0.9651                 3.5864
 IR Inten    --     20.1636                13.9089                15.2884

                     46                     47                     48
                      A                      A                      A
 Frequencies --   1106.3724              1126.0071              1152.1405
 Red. masses --      2.0713                 1.4124                 1.8333
 Frc consts  --      1.4938                 1.0551                 1.4338
 IR Inten    --     62.5248                96.9763               169.0090

                     49                     50                     51
                      A                      A                      A
 Frequencies --   1183.8745              1210.3370              1211.1352
 Red. masses --      3.6866                 2.7895                 1.9022
 Frc consts  --      3.0443                 2.4077                 1.6440
 IR Inten    --    104.6565               446.3496                 1.4618

                     52                     53                     54
                      A                      A                      A
 Frequencies --   1234.4548              1245.1382              1308.3483
 Red. masses --      4.9640                 1.5547                 2.8525
 Frc consts  --      4.4569                 1.4202                 2.8769
 IR Inten    --    480.2004                91.9299                 7.5556

                     55                     56                     57
                      A                      A                      A
 Frequencies --   1332.7020              1354.6502              1365.1117
 Red. masses --      7.8920                 6.2222                 1.5912
 Frc consts  --      8.2585                 6.7275                 1.7470
 IR Inten    --    942.4562               330.6030               250.1583

                     58                     59                     60
                      A                      A                      A
 Frequencies --   1395.4042              1400.4543              1453.2037
 Red. masses --      1.9703                 1.2565                 3.9346
 Frc consts  --      2.2603                 1.4519                 4.8956
 IR Inten    --   1293.3663               162.6088              1733.7961

                     61                     62                     63
                      A                      A                      A
 Frequencies --   1459.3795              1460.7140              1469.1756
 Red. masses --      2.5209                 2.6207                 1.1537
 Frc consts  --      3.1634                 3.2945                 1.4672
 IR Inten    --     65.2679               330.0046               327.1732

                     64                     65                     66
                      A                      A                      A
 Frequencies --   1484.4505              1485.1467              1488.7068
 Red. masses --      3.8320                 3.3353                 1.5344
 Frc consts  --      4.9752                 4.3344                 2.0036
 IR Inten    --    165.7764               222.5812                18.0262

                     67                     68                     69
                      A                      A                      A
 Frequencies --   1490.2986              1494.5691              1519.6820
 Red. masses --      1.4001                 1.1186                 2.9861
 Frc consts  --      1.8322                 1.4721                 4.0631
 IR Inten    --   1057.3872               100.4024                17.4235

                     70                     71                     72
                      A                      A                      A
 Frequencies --   1555.4814              1585.9576              1616.9943
 Red. masses --      6.9319                 5.3745                 6.1030
 Frc consts  --      9.8817                 7.9648                 9.4018
 IR Inten    --   4158.6435                 1.7491                52.9409

                     73                     74                     75
                      A                      A                      A
 Frequencies --   2910.0677              2910.9476              3021.2270
 Red. masses --      1.0646                 1.0640                 1.0698
 Frc consts  --      5.3120                 5.3119                 5.7532
 IR Inten    --     25.3535               492.8407               346.9573

                     76                     77                     78
                      A                      A                      A
 Frequencies --   3023.2917              3068.6963              3069.9816
 Red. masses --      1.0686                 1.0987                 1.0984
 Frc consts  --      5.7548                 6.0960                 6.0994
 IR Inten    --    591.5202                35.8029               169.7852

                     79                     80                     81
                      A                      A                      A
 Frequencies --   3093.5334              3116.8813              3147.7004
 Red. masses --      1.0826                 1.0904                 1.0882
 Frc consts  --      6.1041                 6.2414                 6.3526
 IR Inten    --     33.9912               327.0218                13.8612

                     82                     83                     84
                      A                      A                      A
 Frequencies --   3149.7601              3157.1348              3159.6352
 Red. masses --      1.0884                 1.0903                 1.0915
 Frc consts  --      6.3621                 6.4029                 6.4204
 IR Inten    --     84.2132                25.1420               253.3387

 - Thermochemistry -
 -------------------
 Temperature   298.150 Kelvin.  Pressure   1.00000 Atm.
 Atom     1 has atomic number  6 and mass  12.00000

 Molecular mass:   236.08373 amu.
 Principal axes and moments of inertia in atomic units:
                           1         2         3
     Eigenvalues --  1957.690576317.403628252.68191
           X            0.99450   0.07814   0.06967
           Y           -0.09708   0.93746   0.33429
           Z           -0.03918  -0.33922   0.93989
 This molecule is an asymmetric top.
 Rotational symmetry number  1.
 Warning -- assumption of classical behavior for rotation
           may cause significant error
 Rotational temperatures (Kelvin)      0.04424     0.01371     0.01050
 Rotational constants (GHZ):           0.92187     0.28568     0.21869
 Zero-point vibrational energy     600578.0 (Joules/Mol)
                                  143.54158 (Kcal/Mol)
 Warning -- explicit consideration of  23 degrees of freedom as
           vibrations may cause significant error
 Vibrational temperatures:     70.79   106.58   188.30   200.94   227.20
          (Kelvin)            249.98   275.75   327.91   341.77   397.89
                              411.34   466.80   483.51   515.25   529.68
                              595.00   622.48   673.81   689.35   690.07
                              764.86   800.20   886.34   923.28   951.93
                              995.90  1004.36  1031.78  1067.39  1069.26
                             1094.05  1124.02  1194.94  1263.37  1333.39
                             1337.60  1357.41  1375.13  1383.57  1444.65
                             1463.05  1463.71  1508.60  1510.31  1555.91
                             1591.82  1620.07  1657.67  1703.33  1741.40
                             1742.55  1776.11  1791.48  1882.42  1917.46
                             1949.04  1964.09  2007.68  2014.94  2090.84
                             2099.72  2101.64  2113.82  2135.79  2136.79
                             2141.92  2144.21  2150.35  2186.48  2237.99
                             2281.84  2326.49  4186.94  4188.20  4346.87
                             4349.84  4415.17  4417.02  4450.90  4484.50
                             4528.84  4531.80  4542.41  4546.01

 Zero-point correction=                           0.228748 (Hartree/Particle)
 Thermal correction to Energy=                    0.243347
 Thermal correction to Enthalpy=                  0.244291
 Thermal correction to Gibbs Free Energy=         0.187873
 Sum of electronic and zero-point Energies=           -767.350267
 Sum of electronic and thermal Energies=              -767.335668
 Sum of electronic and thermal Enthalpies=            -767.334724
 Sum of electronic and thermal Free Energies=         -767.391142

                     E (Thermal)             CV                S
                      KCal/Mol        Cal/Mol-Kelvin    Cal/Mol-Kelvin
 Total                  152.703             58.804            118.743
 Electronic               0.000              0.000              0.000
 Translational            0.889              2.981             42.279
 Rotational               0.889              2.981             32.990
 Vibrational            150.925             52.842             43.474
 Vibration     1          0.595              1.978              4.849
 Vibration     2          0.599              1.966              4.042
 Vibration     3          0.612              1.922              2.933
 Vibration     4          0.615              1.914              2.809
 Vibration     5          0.621              1.894              2.575
 Vibration     6          0.627              1.875              2.395
 Vibration     7          0.634              1.851              2.212
 Vibration     8          0.651              1.798              1.895
 Vibration     9          0.656              1.783              1.821
 Vibration    10          0.678              1.717              1.555
 Vibration    11          0.684              1.700              1.498
 Vibration    12          0.709              1.627              1.288
 Vibration    13          0.717              1.603              1.231
 Vibration    14          0.733              1.559              1.130
 Vibration    15          0.741              1.538              1.088
 Vibration    16          0.777              1.441              0.914
 Vibration    17          0.794              1.399              0.850
 Vibration    18          0.826              1.320              0.742
 Vibration    19          0.836              1.296              0.712
 Vibration    20          0.836              1.295              0.711
 Vibration    21          0.887              1.180              0.584
 Vibration    22          0.912              1.126              0.532
 Vibration    23          0.976              0.998              0.423

 Optimization completed.
    -- Stationary point found.
 Normal termination of Gaussian 16 at Wed Dec 27 21:31:52 2023.
