 Gaussian 16, Revision A.03,
 Gaussian 16:  ES64L-G16RevA.03 25-Dec-2016

 ----------------------------------------------------------------
 #P UB3LYP/6-311++G(d,p) SCRF=(PCM,Solvent=n,n-DiMethylFormamide)
 ----------------------------------------------------------------

 -------
 Reduced
 -------
 Symbolic Z-matrix:
 Charge = -2 Multiplicity = 1

                         Standard orientation:
 ---------------------------------------------------------------------
 Center     Atomic      Atomic             Coordinates (Angstroms)
 Number     Number       Type             X           Y           Z
 ---------------------------------------------------------------------
      1          6           0       -4.320415    1.485016   -0.026262
      2          6           0       -3.017503    0.717590    0.008212
      3          6           0       -1.806171    1.381277    0.003196
      4          6           0       -0.552535    0.720599   -0.000499
      5          6           0        0.668358    1.505686    0.001907
      6          8           0        0.668244    2.786333    0.011607
      7          6           0        1.890385    0.724454   -0.000244
      8          6           0        3.140522    1.392922    0.005061
      9          6           0        4.340804    0.711726    0.003559
     10          6           0        4.340790   -0.711788   -0.003132
     11          6           0        3.140482   -1.392930   -0.004864
     12          6           0        1.890371   -0.724424    0.000188
     13          6           0        0.668342   -1.505656   -0.002187
     14          8           0        0.668232   -2.786324   -0.011960
     15          6           0       -0.552549   -0.720589    0.000209
     16          6           0       -1.806177   -1.381234   -0.003497
     17          6           0       -3.017492   -0.717529   -0.008374
     18          6           0       -4.320371   -1.485081    0.026770
     19          1           0       -4.138049    2.561244    0.044394
     20          1           0       -4.890213    1.307815   -0.956321
     21          1           0       -4.992401    1.207709    0.792557
     22          1           0       -1.775083    2.467148   -0.004602
     23          1           0        3.106716    2.478163    0.009380
     24          1           0        5.282512    1.257897    0.006437
     25          1           0        5.282502   -1.257955   -0.005836
     26          1           0        3.106659   -2.478163   -0.009202
     27          1           0       -1.775105   -2.467115    0.004202
     28          1           0       -4.889385   -1.308405    0.957424
     29          1           0       -4.993004   -1.207376   -0.791358
     30          1           0       -4.137996   -2.561266   -0.044521
 ---------------------------------------------------------------------

 SCF Done:  E(UB3LYP) =  -767.839992554     A.U. after   16 cycles

 The electronic state is 1-A.
 Alpha  occ. eigenvalues --  -19.01616 -19.01615 -10.16863 -10.16862 -10.15333
 Alpha  occ. eigenvalues --  -10.15303 -10.15288 -10.15277 -10.14568 -10.14524
 Alpha  occ. eigenvalues --  -10.14264 -10.14264 -10.13833 -10.13831 -10.13052
 Alpha  occ. eigenvalues --  -10.13014 -10.12992 -10.12953  -0.93764  -0.93441
 Alpha  occ. eigenvalues --   -0.82991  -0.81926  -0.76237  -0.73990  -0.71996
 Alpha  occ. eigenvalues --   -0.71894  -0.68026  -0.65923  -0.62096  -0.59215
 Alpha  occ. eigenvalues --   -0.56840  -0.55633  -0.52075  -0.49124  -0.48232
 Alpha  occ. eigenvalues --   -0.44826  -0.42968  -0.42140  -0.41659  -0.41214
 Alpha  occ. eigenvalues --   -0.39626  -0.39457  -0.38618  -0.38442  -0.37385
 Alpha  occ. eigenvalues --   -0.37021  -0.36301  -0.36207  -0.34908  -0.34238
 Alpha  occ. eigenvalues --   -0.32881  -0.32228  -0.31172  -0.30863  -0.29392
 Alpha  occ. eigenvalues --   -0.29046  -0.22978  -0.21953  -0.21920  -0.20575
 Alpha  occ. eigenvalues --   -0.19895  -0.19095  -0.09918
 Alpha virt. eigenvalues --   -0.02238  -0.00213   0.00458   0.00877   0.01378
 Alpha virt. eigenvalues --    0.02121   0.02145   0.02310   0.03840   0.04170
 Alpha virt. eigenvalues --    0.04176   0.04456   0.05359   0.05558   0.06224

  Beta  occ. eigenvalues --  -19.01616 -19.01615 -10.16863 -10.16862 -10.15333
  Beta  occ. eigenvalues --  -10.15303 -10.15288 -10.15277 -10.14568 -10.14524
  Beta  occ. eigenvalues --  -10.14264 -10.14264 -10.13833 -10.13831 -10.13052
  Beta  occ. eigenvalues --  -10.13014 -10.12992 -10.12953  -0.93764  -0.93441
  Beta  occ. eigenvalues --   -0.82991  -0.81926  -0.76237  -0.73990  -0.71996
  Beta  occ. eigenvalues --   -0.71894  -0.68026  -0.65923  -0.62096  -0.59215
  Beta  occ. eigenvalues --   -0.56840  -0.55633  -0.52075  -0.49124  -0.48232
  Beta  occ. eigenvalues --   -0.44826  -0.42968  -0.42140  -0.41659  -0.41214
  Beta  occ. eigenvalues --   -0.39626  -0.39457  -0.38618  -0.38442  -0.37385
  Beta  occ. eigenvalues --   -0.37021  -0.36301  -0.36207  -0.34908  -0.34238
  Beta  occ. eigenvalues --   -0.32881  -0.32228  -0.31172  -0.30863  -0.29392
  Beta  occ. eigenvalues --   -0.29046  -0.22978  -0.21953  -0.21920  -0.20575
  Beta  occ. eigenvalues --   -0.19895  -0.19095  -0.09918
  Beta virt. eigenvalues --   -0.02238  -0.00213   0.00458   0.00877   0.01378
  Beta virt. eigenvalues --    0.02121   0.02145   0.02310   0.03840   0.04170
  Beta virt. eigenvalues --    0.04176   0.04456   0.05359   0.05558   0.06224

 Mulliken charges and spin densities:
               1          2
     1  C   -0.514603  -0.000000
     2  C    0.254821  -0.000000
     3  C   -0.230491   0.000000
     4  C    0.198019  -0.000000
     5  C   -0.591767   0.000000
     6  O   -0.653088   0.000000
     7  C    0.246111  -0.000000
     8  C   -0.011654  -0.000000
     9  C   -0.555379  -0.000000
    10  C   -0.555435   0.000000
    11  C   -0.011641  -0.000000
    12  C    0.246210  -0.000000
    13  C   -0.591818   0.000000
    14  O   -0.653106  -0.000000
    15  C    0.198164   0.000000
    16  C   -0.230104   0.000000
    17  C    0.255360   0.000000
    18  C   -0.514979  -0.000000
    19  H    0.160245  -0.000000
    20  H    0.153301   0.000000
    21  H    0.142945   0.000000
    22  H    0.108611   0.000000
    23  H    0.138609  -0.000000
    24  H    0.153982  -0.000000
    25  H    0.153981   0.000000
    26  H    0.138612  -0.000000
    27  H    0.108627  -0.000000
    28  H    0.153349   0.000000
    29  H    0.142888   0.000000
    30  H    0.160230  -0.000000
 Sum of Mulliken charges =  -2.00000  -0.00000

 Dipole moment (field-independent basis, Debye):
    X=             -7.8210    Y=              0.0002    Z=              0.0017  Tot=              7.8210
 Quadrupole moment (field-independent basis, Debye-Ang):
   XX=           -135.6418   YY=           -169.3287   ZZ=           -118.7076
   XY=              0.0000   XZ=             -0.0015   YZ=             -0.3383

 Normal termination of Gaussian 16 at Sun Jan 14 01:23:02 2024.
