 Gaussian 16, Revision A.03,
 Gaussian 16:  ES64L-G16RevA.03 25-Dec-2016

 ----------------------------------------------------------------------
 #P UB3LYP/6-311++G(d,p) nosym opt freq SCRF=(PCM,Solvent=n,n-DiMethylF
 ormamide)
 ----------------------------------------------------------------------

 --------
 Oxidized
 --------
 Symbolic Z-matrix:
 Charge =  0 Multiplicity = 1

 SCF Done:  E(UB3LYP) =  -842.634088036     A.U. after   15 cycles
 SCF Done:  E(UB3LYP) =  -842.634156640     A.U. after   10 cycles
 SCF Done:  E(UB3LYP) =  -842.634110287     A.U. after   11 cycles
 SCF Done:  E(UB3LYP) =  -842.634147188     A.U. after   11 cycles
 SCF Done:  E(UB3LYP) =  -842.634166829     A.U. after   11 cycles
 SCF Done:  E(UB3LYP) =  -842.634169759     A.U. after    9 cycles
 SCF Done:  E(UB3LYP) =  -842.634169933     A.U. after    9 cycles
 SCF Done:  E(UB3LYP) =  -842.634170165     A.U. after    8 cycles
 SCF Done:  E(UB3LYP) =  -842.634171130     A.U. after   10 cycles
 SCF Done:  E(UB3LYP) =  -842.634176548     A.U. after   12 cycles
 SCF Done:  E(UB3LYP) =  -842.632068800     A.U. after   13 cycles
 SCF Done:  E(UB3LYP) =  -842.631161565     A.U. after   13 cycles
 SCF Done:  E(UB3LYP) =  -842.634268002     A.U. after    6 cycles
 SCF Done:  E(UB3LYP) =  -842.633909445     A.U. after   13 cycles
 SCF Done:  E(UB3LYP) =  -842.634295035     A.U. after   12 cycles
 SCF Done:  E(UB3LYP) =  -842.634298795     A.U. after   12 cycles
 SCF Done:  E(UB3LYP) =  -842.634303596     A.U. after   11 cycles
 SCF Done:  E(UB3LYP) =  -842.634308298     A.U. after   11 cycles
 SCF Done:  E(UB3LYP) =  -842.634308875     A.U. after   10 cycles
 Optimization completed.
    -- Stationary point found.
 Normal termination of Gaussian 16 at Sat Feb 10 18:18:44 2024.

 ----------------------------------------------------------------------
 #P Geom=AllCheck Guess=TCheck SCRF=Check GenChk UB3LYP/6-311++G(d,p) F
 req
 ----------------------------------------------------------------------

 Structure from the checkpoint file:  "133.chk"
 --------
 Oxidized
 --------
 Charge =  0 Multiplicity = 1

                          Input orientation:
 ---------------------------------------------------------------------
 Center     Atomic      Atomic             Coordinates (Angstroms)
 Number     Number       Type             X           Y           Z
 ---------------------------------------------------------------------
      1          8           0        1.521872   -3.038508   -0.070674
      2          6           0        1.302571   -1.833416   -0.067152
      3          6           0        2.410478   -0.850605   -0.038856
      4          6           0        3.732764   -1.287629    0.086104
      5          6           0        4.771503   -0.363630    0.115325
      6          6           0        4.494109    1.001924    0.009332
      7          6           0        3.181103    1.440680   -0.129836
      8          6           0        2.129977    0.518968   -0.148353
      9          6           0        0.730528    1.016791   -0.317578
     10          8           0        0.552173    2.188893   -0.627392
     11          6           0       -0.395360    0.052795   -0.120398
     12          6           0       -1.769881    0.482625   -0.037605
     13          6           0       -2.187776    1.844229   -0.013102
     14          6           0       -3.519822    2.179312    0.082627
     15          6           0       -4.519757    1.185419    0.156267
     16          6           0       -4.158148   -0.139041    0.148599
     17          6           0       -2.794212   -0.520553    0.060719
     18          6           0       -2.439192   -1.892544    0.077664
     19          6           0       -1.127808   -2.278983    0.028996
     20          6           0       -0.099565   -1.313084   -0.059405
     21          1           0        3.929905   -2.349470    0.160858
     22          1           0        5.795321   -0.702977    0.219319
     23          1           0        5.303276    1.722391    0.033114
     24          1           0        2.955935    2.495287   -0.221413
     25          1           0       -1.446398    2.623084   -0.072865
     26          1           0       -3.803660    3.225427    0.103990
     27          1           0       -5.563304    1.469483    0.226383
     28          1           0       -4.909181   -0.918219    0.216898
     29          1           0       -3.227467   -2.634719    0.140898
     30          1           0       -0.849989   -3.323931    0.057538
 ---------------------------------------------------------------------

 SCF Done:  E(UB3LYP) =  -842.634308875     A.U. after    1 cycles

 Alpha  occ. eigenvalues --  -19.13356 -19.13184 -10.28690 -10.28484 -10.21879
 Alpha  occ. eigenvalues --  -10.21427 -10.21293 -10.20975 -10.20837 -10.20723
 Alpha  occ. eigenvalues --  -10.19976 -10.19963 -10.19940 -10.19873 -10.19829
 Alpha  occ. eigenvalues --  -10.19414 -10.19095 -10.19031 -10.18938 -10.18547
 Alpha  occ. eigenvalues --   -1.06725  -1.06534  -0.90215  -0.88919  -0.85203
 Alpha  occ. eigenvalues --   -0.81323  -0.78883  -0.77944  -0.76819  -0.74618
 Alpha  occ. eigenvalues --   -0.69457  -0.66706  -0.65202  -0.62981  -0.61875
 Alpha  occ. eigenvalues --   -0.58765  -0.57164  -0.55037  -0.52592  -0.51796
 Alpha  occ. eigenvalues --   -0.50248  -0.49130  -0.47809  -0.46638  -0.46349
 Alpha  occ. eigenvalues --   -0.45748  -0.45348  -0.45242  -0.43650  -0.43179
 Alpha  occ. eigenvalues --   -0.42586  -0.41894  -0.40887  -0.40051  -0.38355
 Alpha  occ. eigenvalues --   -0.37995  -0.37204  -0.36529  -0.35890  -0.34661
 Alpha  occ. eigenvalues --   -0.30842  -0.28898  -0.28535  -0.28048  -0.27339
 Alpha  occ. eigenvalues --   -0.26967  -0.24392
 Alpha virt. eigenvalues --   -0.12479  -0.07350  -0.05628  -0.03365  -0.01374
 Alpha virt. eigenvalues --   -0.00716  -0.00013   0.00648   0.01417   0.01762
 Alpha virt. eigenvalues --    0.02135   0.02971   0.03156   0.03313   0.03789

  Beta  occ. eigenvalues --  -19.13356 -19.13184 -10.28690 -10.28484 -10.21879
  Beta  occ. eigenvalues --  -10.21427 -10.21293 -10.20975 -10.20837 -10.20723
  Beta  occ. eigenvalues --  -10.19976 -10.19963 -10.19940 -10.19873 -10.19829
  Beta  occ. eigenvalues --  -10.19414 -10.19095 -10.19031 -10.18938 -10.18547
  Beta  occ. eigenvalues --   -1.06725  -1.06534  -0.90215  -0.88919  -0.85203
  Beta  occ. eigenvalues --   -0.81323  -0.78883  -0.77944  -0.76819  -0.74618
  Beta  occ. eigenvalues --   -0.69457  -0.66706  -0.65202  -0.62981  -0.61875
  Beta  occ. eigenvalues --   -0.58765  -0.57164  -0.55037  -0.52592  -0.51796
  Beta  occ. eigenvalues --   -0.50248  -0.49130  -0.47809  -0.46638  -0.46349
  Beta  occ. eigenvalues --   -0.45748  -0.45348  -0.45242  -0.43650  -0.43179
  Beta  occ. eigenvalues --   -0.42586  -0.41894  -0.40887  -0.40051  -0.38355
  Beta  occ. eigenvalues --   -0.37995  -0.37204  -0.36529  -0.35890  -0.34661
  Beta  occ. eigenvalues --   -0.30842  -0.28898  -0.28535  -0.28048  -0.27339
  Beta  occ. eigenvalues --   -0.26967  -0.24392
  Beta virt. eigenvalues --   -0.12479  -0.07350  -0.05628  -0.03365  -0.01374
  Beta virt. eigenvalues --   -0.00716  -0.00013   0.00648   0.01417   0.01762
  Beta virt. eigenvalues --    0.02135   0.02971   0.03156   0.03313   0.03789

 Mulliken charges and spin densities:
               1          2
     1  O   -0.265073  -0.000000
     2  C   -0.573400  -0.000000
     3  C    0.339454   0.000000
     4  C    0.122828  -0.000000
     5  C   -0.410183   0.000000
     6  C   -0.403267  -0.000000
     7  C    0.147040   0.000000
     8  C    0.159903  -0.000000
     9  C   -1.365473   0.000000
    10  O   -0.248568  -0.000000
    11  C    0.381509  -0.000000
    12  C    0.428481  -0.000000
    13  C   -0.714246   0.000000
    14  C   -0.493170   0.000000
    15  C   -0.391716  -0.000000
    16  C   -0.278071  -0.000000
    17  C    0.956232  -0.000000
    18  C   -0.352074   0.000000
    19  C   -0.263202   0.000000
    20  C    1.331718  -0.000000
    21  H    0.188731  -0.000000
    22  H    0.207335   0.000000
    23  H    0.208703  -0.000000
    24  H    0.191536   0.000000
    25  H    0.147898   0.000000
    26  H    0.209635  -0.000000
    27  H    0.194815  -0.000000
    28  H    0.166840   0.000000
    29  H    0.196351  -0.000000
    30  H    0.179434   0.000000
 Sum of Mulliken charges =  -0.00000   0.00000

 Dipole moment (field-independent basis, Debye):
    X=             -0.7685    Y=              0.7044    Z=              1.1853  Tot=              1.5785
 Quadrupole moment (field-independent basis, Debye-Ang):
   XX=            -77.8559   YY=           -120.5959   ZZ=           -119.7328
   XY=              6.3546   XZ=              0.1923   YZ=              1.5799

  Exact polarizability: 465.782 -30.923 374.162  -4.035 -10.094 141.631
 Approx polarizability: 498.084 -37.796 491.778  -3.685 -16.096 169.076

                      1                      2                      3
                      A                      A                      A
 Frequencies --     28.3324                49.1209                97.3004
 Red. masses --      7.7066                 5.5178                 5.2597
 Frc consts  --      0.0036                 0.0078                 0.0293
 IR Inten    --      8.9554                 0.6803                 2.7508

                      4                      5                      6
                      A                      A                      A
 Frequencies --    109.0233               171.6767               178.7178
 Red. masses --      4.7731                 5.6242                 5.5597
 Frc consts  --      0.0334                 0.0977                 0.1046
 IR Inten    --      0.5280                 0.3609                 1.8964

                      7                      8                      9
                      A                      A                      A
 Frequencies --    200.1719               263.5701               288.7819
 Red. masses --      4.5886                 5.3033                 5.8365
 Frc consts  --      0.1083                 0.2171                 0.2868
 IR Inten    --      3.3777                 0.4184                 0.2243

                     10                     11                     12
                      A                      A                      A
 Frequencies --    317.5951               359.0569               395.4331
 Red. masses --      7.7613                 7.5624                 7.3661
 Frc consts  --      0.4612                 0.5744                 0.6786
 IR Inten    --      0.3744                 2.1381                26.7022

                     13                     14                     15
                      A                      A                      A
 Frequencies --    403.3901               423.6773               438.2270
 Red. masses --      4.4734                 3.3940                 5.7750
 Frc consts  --      0.4289                 0.3590                 0.6534
 IR Inten    --     13.9403                 0.3385                14.7665

                     16                     17                     18
                      A                      A                      A
 Frequencies --    450.6228               479.1168               503.2161
 Red. masses --      4.2926                10.6092                 3.8296
 Frc consts  --      0.5136                 1.4349                 0.5714
 IR Inten    --      3.5531                 3.2696                 1.0191

                     19                     20                     21
                      A                      A                      A
 Frequencies --    520.1585               540.1913               568.2327
 Red. masses --      3.4865                 6.7398                 6.9608
 Frc consts  --      0.5558                 1.1587                 1.3242
 IR Inten    --     31.5725                 2.5135                16.9683

                     22                     23                     24
                      A                      A                      A
 Frequencies --    622.6060               643.9963               671.2050
 Red. masses --      4.6624                 6.4914                 6.7126
 Frc consts  --      1.0648                 1.5862                 1.7818
 IR Inten    --      4.7708                21.0180                 9.1817

                     25                     26                     27
                      A                      A                      A
 Frequencies --    686.4700               702.5423               726.7060
 Red. masses --      6.8606                 4.4839                 1.9598
 Frc consts  --      1.9048                 1.3039                 0.6098
 IR Inten    --      1.5357                 2.6321                49.4815

                     28                     29                     30
                      A                      A                      A
 Frequencies --    753.2629               762.7684               773.0013
 Red. masses --      6.1534                 2.0116                 1.9361
 Frc consts  --      2.0571                 0.6896                 0.6816
 IR Inten    --      3.3368                48.6930               103.2336

                     31                     32                     33
                      A                      A                      A
 Frequencies --    809.0774               810.0082               818.1281
 Red. masses --      2.2761                 5.2088                 3.7054
 Frc consts  --      0.8779                 2.0136                 1.4613
 IR Inten    --      2.2705                23.8094                 6.5548

                     34                     35                     36
                      A                      A                      A
 Frequencies --    859.1163               870.6874               891.1131
 Red. masses --      1.5362                 5.8715                 1.5545
 Frc consts  --      0.6680                 2.6225                 0.7273
 IR Inten    --     48.6387                42.4690                12.0159

                     37                     38                     39
                      A                      A                      A
 Frequencies --    913.9322               915.4752               989.4630
 Red. masses --      1.6339                 4.3197                 1.3416
 Frc consts  --      0.8041                 2.1330                 0.7739
 IR Inten    --      0.6730                 0.9857                 4.2442

                     40                     41                     42
                      A                      A                      A
 Frequencies --    997.1311              1000.7485              1009.5296
 Red. masses --      4.1773                 1.5571                 1.3402
 Frc consts  --      2.4471                 0.9188                 0.8048
 IR Inten    --    126.6655                29.0740                 0.6923

                     43                     44                     45
                      A                      A                      A
 Frequencies --   1014.6355              1022.2488              1051.6015
 Red. masses --      1.3006                 1.3298                 2.3059
 Frc consts  --      0.7889                 0.8188                 1.5024
 IR Inten    --      0.4248                 0.1075                28.4611

                     46                     47                     48
                      A                      A                      A
 Frequencies --   1057.8273              1076.6077              1115.4093
 Red. masses --      2.2737                 3.4090                 2.0800
 Frc consts  --      1.4990                 2.3281                 1.5247
 IR Inten    --     16.5469                38.0112                 4.6768

                     49                     50                     51
                      A                      A                      A
 Frequencies --   1168.1117              1175.6891              1181.9335
 Red. masses --      1.3659                 1.2956                 1.2301
 Frc consts  --      1.0981                 1.0552                 1.0124
 IR Inten    --      3.9172                18.3810                15.2597

                     52                     53                     54
                      A                      A                      A
 Frequencies --   1183.4077              1200.1371              1228.2388
 Red. masses --      1.3768                 2.1553                 2.1437
 Frc consts  --      1.1360                 1.8290                 1.9054
 IR Inten    --     21.5335                30.3673                99.2960

                     55                     56                     57
                      A                      A                      A
 Frequencies --   1244.9596              1283.6110              1292.4847
 Red. masses --      2.0456                 2.1267                 2.3735
 Frc consts  --      1.8680                 2.0646                 2.3361
 IR Inten    --     43.6160               349.2477               482.4172

                     58                     59                     60
                      A                      A                      A
 Frequencies --   1315.0595              1359.1093              1363.0284
 Red. masses --      2.7734                 7.4004                 5.0088
 Frc consts  --      2.8259                 8.0541                 5.4826
 IR Inten    --    406.5894                27.1607                10.6844

                     61                     62                     63
                      A                      A                      A
 Frequencies --   1385.8663              1397.9871              1455.7531
 Red. masses --      5.8586                 4.1785                 2.1086
 Frc consts  --      6.6296                 4.8115                 2.6328
 IR Inten    --     29.9718                75.2671                45.7656

                     64                     65                     66
                      A                      A                      A
 Frequencies --   1479.1310              1486.8342              1507.5181
 Red. masses --      2.3197                 2.3095                 2.6111
 Frc consts  --      2.9902                 3.0082                 3.4962
 IR Inten    --     11.6700                80.7667                 5.7101

                     67                     68                     69
                      A                      A                      A
 Frequencies --   1538.0146              1588.7115              1615.7460
 Red. masses --      3.2883                 7.5287                 6.8504
 Frc consts  --      4.5829                11.1959                10.5369
 IR Inten    --     39.4351                40.2883                54.6624

                     70                     71                     72
                      A                      A                      A
 Frequencies --   1618.9941              1625.1920              1648.6285
 Red. masses --      6.2027                 6.0369                 5.5979
 Frc consts  --      9.5790                 9.3946                 8.9643
 IR Inten    --    286.4550                 3.5999                 6.6266

                     73                     74                     75
                      A                      A                      A
 Frequencies --   1686.7499              1693.5028              3168.8487
 Red. masses --     11.7605                11.9288                 1.0872
 Frc consts  --     19.7141                20.1566                 6.4325
 IR Inten    --     68.0445               774.9308                 0.2273

                     76                     77                     78
                      A                      A                      A
 Frequencies --   3174.6705              3177.7959              3178.6997
 Red. masses --      1.0902                 1.0908                 1.0875
 Frc consts  --      6.4736                 6.4903                 6.4741
 IR Inten    --      1.4495                32.9889                 3.5652

                     79                     80                     81
                      A                      A                      A
 Frequencies --   3191.1481              3192.0022              3204.2588
 Red. masses --      1.0917                 1.0969                 1.0930
 Frc consts  --      6.5500                 6.5847                 6.6118
 IR Inten    --     12.8870                36.3056                 5.8509

                     82                     83                     84
                      A                      A                      A
 Frequencies --   3207.7204              3211.6472              3257.7420
 Red. masses --      1.0947                 1.0928                 1.0914
 Frc consts  --      6.6364                 6.6413                 6.8244
 IR Inten    --     18.5099                 8.2560                14.9620

 - Thermochemistry -
 -------------------
 Temperature   298.150 Kelvin.  Pressure   1.00000 Atm.
 Atom     1 has atomic number  8 and mass  15.99491

 Molecular mass:   258.06808 amu.
 Principal axes and moments of inertia in atomic units:
                           1         2         3
     Eigenvalues --  2274.155077387.076059609.74947
           X            0.99350   0.11212   0.01966
           Y           -0.11292   0.99254   0.04588
           Z           -0.01437  -0.04780   0.99875
 This molecule is an asymmetric top.
 Rotational symmetry number  1.
 Warning -- assumption of classical behavior for rotation
           may cause significant error
 Rotational temperatures (Kelvin)      0.03809     0.01173     0.00901
 Rotational constants (GHZ):           0.79359     0.24431     0.18780
 Zero-point vibrational energy     592389.8 (Joules/Mol)
                                  141.58457 (Kcal/Mol)
 Warning -- explicit consideration of  21 degrees of freedom as
           vibrations may cause significant error
 Vibrational temperatures:     40.76    70.67   139.99   156.86   247.00
          (Kelvin)            257.14   288.00   379.22   415.49   456.95
                              516.60   568.94   580.39   609.58   630.51
                              648.35   689.34   724.02   748.39   777.21
                              817.56   895.79   926.57   965.71   987.68
                             1010.80  1045.57  1083.78  1097.45  1112.18
                             1164.08  1165.42  1177.10  1236.08  1252.73
                             1282.11  1314.94  1317.16  1423.62  1434.65
                             1439.85  1452.49  1459.83  1470.79  1513.02
                             1521.98  1549.00  1604.83  1680.65  1691.55
                             1700.54  1702.66  1726.73  1767.16  1791.22
                             1846.83  1859.60  1892.08  1955.46  1961.09
                             1993.95  2011.39  2094.50  2128.14  2139.22
                             2168.98  2212.86  2285.80  2324.70  2329.37
                             2338.29  2372.01  2426.86  2436.57  4559.27
                             4567.64  4572.14  4573.44  4591.35  4592.58
                             4610.21  4615.19  4620.84  4687.16

 Zero-point correction=                           0.225629 (Hartree/Particle)
 Thermal correction to Energy=                    0.239616
 Thermal correction to Enthalpy=                  0.240560
 Thermal correction to Gibbs Free Energy=         0.184028
 Sum of electronic and zero-point Energies=           -842.408680
 Sum of electronic and thermal Energies=              -842.394693
 Sum of electronic and thermal Enthalpies=            -842.393749
 Sum of electronic and thermal Free Energies=         -842.450281

                     E (Thermal)             CV                S
                      KCal/Mol        Cal/Mol-Kelvin    Cal/Mol-Kelvin
 Total                  150.361             57.523            118.983
 Electronic               0.000              0.000              0.000
 Translational            0.889              2.981             42.544
 Rotational               0.889              2.981             33.445
 Vibrational            148.584             51.561             42.994
 Vibration     1          0.593              1.984              5.943
 Vibration     2          0.595              1.978              4.852
 Vibration     3          0.603              1.951              3.508
 Vibration     4          0.606              1.942              3.286
 Vibration     5          0.626              1.877              2.417
 Vibration     6          0.629              1.868              2.342
 Vibration     7          0.638              1.840              2.132
 Vibration     8          0.670              1.740              1.638
 Vibration     9          0.685              1.695              1.481
 Vibration    10          0.704              1.640              1.322
 Vibration    11          0.734              1.557              1.126
 Vibration    12          0.762              1.480              0.980
 Vibration    13          0.769              1.463              0.950
 Vibration    14          0.786              1.419              0.880
 Vibration    15          0.798              1.387              0.832
 Vibration    16          0.809              1.360              0.794
 Vibration    17          0.836              1.296              0.712
 Vibration    18          0.859              1.243              0.650
 Vibration    19          0.875              1.205              0.610
 Vibration    20          0.895              1.161              0.565
 Vibration    21          0.924              1.100              0.508

 Optimization completed.
    -- Stationary point found.
 Normal termination of Gaussian 16 at Sat Feb 10 19:06:26 2024.
