 Q-Chem 5.4, Q-Chem, Inc., Pleasanton, CA (2021)
 Q-Chem 5.4.0 for Intel X86 EM64T Linux

User input:
--------------------------------------------------------------
$molecule
-2 1
Br                -1.6318400000      2.7103350000      1.0572520000
C                 -0.7019160000      1.1321790000      0.3168440000
C                 -1.4354630000      0.0849210000     -0.2620900000
C                 -0.7406460000     -0.9475960000     -1.0374030000
O                 -1.3569590000     -1.8524960000     -1.6906570000
C                  0.6833050000     -0.8388920000     -0.9555310000
C                  1.4191400000      0.1728560000     -0.3190680000
C                  0.7182180000      1.3035250000      0.2973410000
O                  1.3278130000      2.3136660000      0.7804540000
C                  2.8910130000      0.1546230000     -0.1846290000
C                  3.6621240000      1.3172990000     -0.3927440000
C                  5.0462590000      1.3071720000     -0.2383150000
C                  5.7160070000      0.1447760000      0.1544420000
C                  4.9663670000     -1.0100150000      0.3911560000
C                  3.5834840000     -1.0020790000      0.2259370000
Br                 1.5980050000     -2.1739440000     -2.0889860000
C                 -2.8958910000     -0.0786630000     -0.1029310000
C                 -3.7174030000     -0.4401420000     -1.1911280000
C                 -5.0893370000     -0.6226090000     -1.0352610000
C                 -5.6949600000     -0.4771870000      0.2161600000
C                 -4.8935200000     -0.1454950000      1.3112430000
C                 -3.5233710000      0.0475540000      1.1525950000
H                  3.1463140000      2.2305690000     -0.6525440000
H                  5.6082840000      2.2210560000     -0.4173240000
H                  6.7954740000      0.1415920000      0.2824560000
H                  5.4607210000     -1.9237440000      0.7126650000
H                  3.0187790000     -1.9042920000      0.4230020000
H                 -3.2491150000     -0.5985090000     -2.1519810000
H                 -5.6919670000     -0.8914840000     -1.8999240000
H                 -6.7646340000     -0.6284070000      0.3369160000
H                 -5.3368440000     -0.0414960000      2.2988160000
H                 -2.9174400000      0.2949240000      2.0147840000
$end
$rem
MAX_SCF_CYCLES=200
BASIS  =  6-311++G(d,p)
GUI  =  2
JOB_TYPE  =  SP
METHOD  =  B3LYP
SOLVENT_METHOD = COSMO
$end
$solvent
dielectric 37.219
opticaldielectric 1.43
$end

--------------------------------------------------------------

             Standard Nuclear Orientation (Angstroms)
    I     Atom           X                Y                Z
 ----------------------------------------------------------------
    1      Br     -2.0876792689    -2.5863838805     0.3049309362
    2      C      -0.8830023821    -1.0375280375     0.0739803164
    3      C      -1.4033860849     0.2655670692     0.0400828110
    4      C      -0.4959217092     1.4135098969     0.1333991433
    5      O      -0.9103227168     2.6150326941     0.2336053573
    6      C       0.8828471360     1.0372422115     0.0736067116
    7      C       1.4032615225    -0.2659087086     0.0398597285
    8      C       0.4959152547    -1.4137910968     0.1334164807
    9      O       0.9102452544    -2.6153428459     0.2333820769
   10      C       2.8392776238    -0.5705698109    -0.1329285371
   11      C       3.4744315390    -1.5731188313     0.6294456979
   12      C       4.8206567358    -1.8798983561     0.4468406237
   13      C       5.5827060901    -1.2180640818    -0.5202380082
   14      C       4.9643256398    -0.2404892404    -1.3034933620
   15      C       3.6208822789     0.0734585563    -1.1129089800
   16      Br      2.0876529449     2.5859941523     0.3050598567
   17      C      -2.8393980495     0.5704811732    -0.1326547996
   18      C      -3.4742394288     1.5732133707     0.6297271963
   19      C      -4.8203009577     1.8806094095     0.4469222077
   20      C      -5.5824517097     1.2191610321    -0.5203386520
   21      C      -4.9643771254     0.2413696259    -1.3035628902
   22      C      -3.6210998596    -0.0731946500    -1.1127727175
   23      H       2.8802087054    -2.1199222565     1.3474452294
   24      H       5.2783012280    -2.6524835722     1.0606597264
   25      H       6.6311140076    -1.4651713788    -0.6666126929
   26      H       5.5302218878     0.2786810028    -2.0734792677
   27      H       3.1569829037     0.8274156893    -1.7358541300
   28      H      -2.8798438102     2.1198065876     1.3477396955
   29      H      -5.2777148128     2.6533816749     1.0606765373
   30      H      -6.6307176227     1.4667588793    -0.6669191689
   31      H      -5.5303766015    -0.2774695789    -2.0736946088
   32      H      -3.1573939268    -0.8271725396    -1.7358363702
 ----------------------------------------------------------------

   11   -5990.8873138606      3.39e-06  Convergence criterion met
 Total energy in the final basis set =    -5990.8873138606
    6   -5991.1444107044      2.91e-06  Convergence criterion met
 Total energy in the final basis set =    -5991.1444107044

                    Orbital Energies (a.u.)
 --------------------------------------------------------------

 Alpha MOs
 -- Occupied --
********-482.8031 -62.4561 -62.4560 -56.2763 -56.2762 -56.2730 -56.2729
-56.2726 -56.2726 -19.0319 -19.0319 -10.1989 -10.1989 -10.1909 -10.1909
-10.1736 -10.1736 -10.1645 -10.1645 -10.1639 -10.1639 -10.1633 -10.1633
-10.1615 -10.1615 -10.1609 -10.1609 -10.1582 -10.1582  -8.6648  -8.6647
 -6.4952  -6.4951  -6.4842  -6.4842  -6.4832  -6.4832  -2.6063  -2.6062
 -2.6033  -2.6032  -2.6026  -2.6026  -2.5939  -2.5938  -2.5938  -2.5937
 -0.9608  -0.9572  -0.8499  -0.8486  -0.8173  -0.7913  -0.7543  -0.7518
 -0.7352  -0.7350  -0.7317  -0.6831  -0.6528  -0.6181  -0.5946  -0.5940
 -0.5803  -0.5500  -0.5292  -0.5074  -0.4938  -0.4723  -0.4535  -0.4490
 -0.4408  -0.4310  -0.4219  -0.4133  -0.4085  -0.4084  -0.3901  -0.3836
 -0.3734  -0.3708  -0.3606  -0.3599  -0.3464  -0.3415  -0.3349  -0.3341
 -0.3310  -0.3288  -0.3015  -0.2849  -0.2752  -0.2720  -0.2546  -0.2542
 -0.2467  -0.2447  -0.2273  -0.2117  -0.2069  -0.2042  -0.1348

          Ground-State Mulliken Net Atomic Charges

     Atom                 Charge (a.u.)
  ----------------------------------------
      1 Br                   -0.267584
      2 C                    -0.389519
      3 C                     1.158715
      4 C                    -1.580038
      5 O                    -0.561589
      6 C                    -0.391970
      7 C                     1.155063
      8 C                    -1.581375
      9 O                    -0.561612
     10 C                     1.549523
     11 C                     0.095751
     12 C                    -0.291410
     13 C                    -0.397412
     14 C                    -0.532387
     15 C                    -0.797628
     16 Br                   -0.267824
     17 C                     1.546592
     18 C                     0.096402
     19 C                    -0.291670
     20 C                    -0.398225
     21 C                    -0.530576
     22 C                    -0.799244
     23 H                     0.216646
     24 H                     0.204656
     25 H                     0.192648
     26 H                     0.201653
     27 H                     0.203465
     28 H                     0.216613
     29 H                     0.204656
     30 H                     0.192669
     31 H                     0.201682
     32 H                     0.203294
  ----------------------------------------
  Sum of atomic charges =    -2.000035

                    Cartesian Multipole Moments
 -----------------------------------------------------------------
    Charge (ESU x 10^10)
                -9.6066
    Dipole Moment (Debye)
         X      -0.0001      Y       0.0016      Z      -1.8805
       Tot       1.8805
    Quadrupole Moments (Debye-Ang)
        XX    -185.3308     XY       4.3392     YY    -222.1635
        XZ       0.0078     YZ      -0.0032     ZZ    -160.1885

 Total job time:  145.41s(wall), 1101.09s(cpu)
        *  Thank you very much for using Q-Chem.  Have a nice day.  *
