 Gaussian 16, Revision A.03,
 Gaussian 16:  ES64L-G16RevA.03 25-Dec-2016

 ----------------------------------------------------------------------
 #P UB3LYP/6-311++G(d,p) nosym opt freq SCRF=(PCM,Solvent=n,n-DiMethylF
 ormamide)
 ----------------------------------------------------------------------

 -------
 Radical
 -------
 Symbolic Z-matrix:
 Charge = -1 Multiplicity = 2

 SCF Done:  E(UB3LYP) =  -3393.27956032     A.U. after   20 cycles
 SCF Done:  E(UB3LYP) =  -3393.27970170     A.U. after   15 cycles
 SCF Done:  E(UB3LYP) =  -3393.27975290     A.U. after   14 cycles
 SCF Done:  E(UB3LYP) =  -3393.27985369     A.U. after   13 cycles
 SCF Done:  E(UB3LYP) =  -3393.27981554     A.U. after   11 cycles
 SCF Done:  E(UB3LYP) =  -3393.27981436     A.U. after   11 cycles
 SCF Done:  E(UB3LYP) =  -3393.27981355     A.U. after   12 cycles
 SCF Done:  E(UB3LYP) =  -3393.27981707     A.U. after   11 cycles
 SCF Done:  E(UB3LYP) =  -3393.27981702     A.U. after    9 cycles
 Optimization completed.
    -- Stationary point found.
 Normal termination of Gaussian 16 at Sat Feb 10 23:14:01 2024.

 ----------------------------------------------------------------------
 #P Geom=AllCheck Guess=TCheck SCRF=Check GenChk UB3LYP/6-311++G(d,p) F
 req
 ----------------------------------------------------------------------

 Structure from the checkpoint file:  "183-rad.chk"
 -------
 Radical
 -------
 Charge = -1 Multiplicity = 2

                          Input orientation:
 ---------------------------------------------------------------------
 Center     Atomic      Atomic             Coordinates (Angstroms)
 Number     Number       Type             X           Y           Z
 ---------------------------------------------------------------------
      1          6           0        4.865645   -2.857150   -0.357885
      2          6           0        5.596265   -1.964008   -1.115158
      3          6           0        5.009653   -0.751429   -1.534237
      4          6           0        3.528711   -2.576406    0.007384
      5          6           0        2.936131   -1.357407   -0.414430
      6          6           0        3.704930   -0.459241   -1.186750
      7          6           0        2.778272   -3.521095    0.808157
      8          6           0        1.415852   -3.191641    1.154974
      9          6           0        0.793467   -1.969383    0.714920
     10          6           0        1.555229   -1.010413   -0.071848
     11          6           0        0.678333   -4.103836    1.964482
     12          6           0       -0.625540   -3.813844    2.333221
     13          6           0       -0.570935   -1.694821    1.079157
     14          6           0       -1.221983   -2.633181    1.889887
     15          8           0        3.320644   -4.621077    1.200902
     16          8           0        1.078898    0.101353   -0.462047
     17          8           0        1.232781   -5.264157    2.394316
     18         35           0       -3.044996   -2.304764    2.434472
     19          7           0       -1.223259   -0.578039    0.606642
     20          1           0        5.301981   -3.791346   -0.026953
     21          1           0        6.620633   -2.192601   -1.388432
     22          1           0        5.584022   -0.049804   -2.129242
     23          1           0        3.241889    0.467549   -1.501203
     24          1           0       -1.168785   -4.511226    2.957181
     25          1           0        2.168859   -5.251448    2.010138
     26          1           0       -0.602558    0.117003    0.198040
     27          1           0       -2.027863   -0.260761    1.125731
 ---------------------------------------------------------------------

 SCF Done:  E(UB3LYP) =  -3393.27981702     A.U. after    1 cycles

 Alpha  occ. eigenvalues -- -482.83431 -62.48717 -56.30736 -56.30374 -56.30360
 Alpha  occ. eigenvalues --  -19.12792 -19.09033 -19.08267 -14.31032 -10.23489
 Alpha  occ. eigenvalues --  -10.23382 -10.23370 -10.22740 -10.22587 -10.18451
 Alpha  occ. eigenvalues --  -10.18094 -10.17875 -10.17828 -10.17729 -10.17642
 Alpha  occ. eigenvalues --  -10.17583 -10.17445 -10.17361  -8.69687  -6.52772
 Alpha  occ. eigenvalues --   -6.51564  -6.51540  -2.63876  -2.63530  -2.63514
 Alpha  occ. eigenvalues --   -2.62553  -2.62551  -1.05208  -1.00886  -1.00276
 Alpha  occ. eigenvalues --   -0.92489  -0.86483  -0.84836  -0.81553  -0.77676
 Alpha  occ. eigenvalues --   -0.75595  -0.74152  -0.72666  -0.67357  -0.64111
 Alpha  occ. eigenvalues --   -0.63031  -0.59622  -0.57389  -0.55373  -0.53000
 Alpha  occ. eigenvalues --   -0.51895  -0.50607  -0.48157  -0.46874  -0.45980
 Alpha  occ. eigenvalues --   -0.45302  -0.43905  -0.42846  -0.42669  -0.42255
 Alpha  occ. eigenvalues --   -0.41268  -0.40768  -0.40128  -0.39620  -0.38045
 Alpha  occ. eigenvalues --   -0.36587  -0.36252  -0.35713  -0.35326  -0.34133
 Alpha  occ. eigenvalues --   -0.31626  -0.30015  -0.29360  -0.26735  -0.26081
 Alpha  occ. eigenvalues --   -0.25944  -0.25013  -0.24650  -0.20773  -0.14584
 Alpha virt. eigenvalues --   -0.05228  -0.02939  -0.01804  -0.00254   0.00486
 Alpha virt. eigenvalues --    0.00565   0.01135   0.02070   0.02410   0.03822
 Alpha virt. eigenvalues --    0.03859   0.04126   0.04709   0.04790   0.05373

  Beta  occ. eigenvalues -- -482.83430 -62.48716 -56.30737 -56.30369 -56.30360
  Beta  occ. eigenvalues --  -19.12731 -19.08563 -19.07796 -14.30986 -10.23341
  Beta  occ. eigenvalues --  -10.23312 -10.23142 -10.22718 -10.22425 -10.18425
  Beta  occ. eigenvalues --  -10.18100 -10.17826 -10.17754 -10.17633 -10.17617
  Beta  occ. eigenvalues --  -10.17528 -10.17419 -10.17371  -8.69686  -6.52776
  Beta  occ. eigenvalues --   -6.51557  -6.51539  -2.63877  -2.63527  -2.63515
  Beta  occ. eigenvalues --   -2.62549  -2.62547  -1.05001  -1.00084  -0.99492
  Beta  occ. eigenvalues --   -0.92333  -0.86262  -0.84662  -0.81362  -0.77415
  Beta  occ. eigenvalues --   -0.75372  -0.73968  -0.72419  -0.66728  -0.63887
  Beta  occ. eigenvalues --   -0.62818  -0.59520  -0.57217  -0.55192  -0.52851
  Beta  occ. eigenvalues --   -0.51790  -0.50456  -0.47873  -0.46752  -0.45877
  Beta  occ. eigenvalues --   -0.45167  -0.43073  -0.42797  -0.42518  -0.41921
  Beta  occ. eigenvalues --   -0.40983  -0.40582  -0.39301  -0.38555  -0.37880
  Beta  occ. eigenvalues --   -0.36203  -0.35580  -0.35135  -0.34464  -0.34017
  Beta  occ. eigenvalues --   -0.31255  -0.29998  -0.28547  -0.25552  -0.25449
  Beta  occ. eigenvalues --   -0.25272  -0.24541  -0.24241  -0.19651
  Beta virt. eigenvalues --   -0.09243  -0.04181  -0.01931  -0.01656  -0.00233
  Beta virt. eigenvalues --    0.00497   0.01080   0.01155   0.02085   0.02415
  Beta virt. eigenvalues --    0.03850   0.04065   0.04134   0.04725   0.05101

 Mulliken charges and spin densities:
               1          2
     1  C   -0.011715   0.045631
     2  C   -0.514882   0.015157
     3  C   -0.555757   0.048256
     4  C    0.189147   0.003738
     5  C   -0.003775   0.033958
     6  C    0.084502   0.012532
     7  C   -0.272591   0.137256
     8  C    0.579370  -0.004588
     9  C    0.512286   0.025012
    10  C   -0.253870   0.081873
    11  C   -0.387282   0.053525
    12  C    0.023680   0.069249
    13  C   -0.494876   0.016346
    14  C    0.116912   0.094856
    15  O   -0.498277   0.170073
    16  O   -0.449053   0.171467
    17  O   -0.412998   0.018809
    18  Br  -0.186236   0.003628
    19  N   -0.339351   0.023914
    20  H    0.174157  -0.001713
    21  H    0.183357  -0.001619
    22  H    0.183092  -0.003698
    23  H    0.172833  -0.000233
    24  H    0.233699  -0.006039
    25  H    0.364567  -0.003913
    26  H    0.317416  -0.002377
    27  H    0.245645  -0.001100
 Sum of Mulliken charges =  -1.00000   1.00000

 Dipole moment (field-independent basis, Debye):
    X=             -6.7086    Y=             14.0537    Z=             -4.0098  Tot=             16.0808
 Quadrupole moment (field-independent basis, Debye-Ang):
   XX=           -145.3426   YY=           -189.4044   ZZ=           -138.0618
   XY=             24.2711   XZ=             -8.8972   YZ=             22.6316

  Exact polarizability: 527.632 -15.422 340.375-135.422 -99.102 258.015
 Approx polarizability: 534.827 -34.578 410.201-119.242-117.458 284.945

                      1                      2                      3
                      A                      A                      A
 Frequencies --     36.8019                78.2813                96.2093
 Red. masses --      8.6055                 7.1067                 7.2763
 Frc consts  --      0.0069                 0.0257                 0.0397
 IR Inten    --      4.3468                 0.4588                 5.3612

                      4                      5                      6
                      A                      A                      A
 Frequencies --    134.0173               142.4096               159.2927
 Red. masses --      5.2679                10.8411                 7.7228
 Frc consts  --      0.0557                 0.1295                 0.1155
 IR Inten    --      0.2910                 1.4551                 0.4479

                      7                      8                      9
                      A                      A                      A
 Frequencies --    190.7966               219.5950               245.5360
 Red. masses --      7.5770                14.0620                 6.5518
 Frc consts  --      0.1625                 0.3995                 0.2327
 IR Inten    --      0.6719                 3.4744                 1.3306

                     10                     11                     12
                      A                      A                      A
 Frequencies --    263.0038               338.2804               352.6776
 Red. masses --      4.7771                 5.4351                 4.0655
 Frc consts  --      0.1947                 0.3664                 0.2979
 IR Inten    --      6.6524                18.0819                44.4335

                     13                     14                     15
                      A                      A                      A
 Frequencies --    368.2394               391.1481               403.9443
 Red. masses --      5.8579                 2.9920                 2.4485
 Frc consts  --      0.4680                 0.2697                 0.2354
 IR Inten    --     23.1680               131.1426               171.6374

                     16                     17                     18
                      A                      A                      A
 Frequencies --    423.6071               438.6867               440.3980
 Red. masses --      6.0605                 4.3971                 4.8080
 Frc consts  --      0.6407                 0.4986                 0.5494
 IR Inten    --      1.5332                40.4822                75.4245

                     19                     20                     21
                      A                      A                      A
 Frequencies --    465.6052               481.8612               502.9819
 Red. masses --      6.3396                 9.3632                 4.6280
 Frc consts  --      0.8097                 1.2809                 0.6898
 IR Inten    --     26.4932                41.5582                17.6677

                     22                     23                     24
                      A                      A                      A
 Frequencies --    524.0436               539.8055               609.7631
 Red. masses --      5.6502                 7.4808                 4.0441
 Frc consts  --      0.9142                 1.2843                 0.8859
 IR Inten    --     14.3891                13.2319                31.3252

                     25                     26                     27
                      A                      A                      A
 Frequencies --    631.5398               649.5018               660.9837
 Red. masses --      3.4291                 6.7060                 2.0997
 Frc consts  --      0.8058                 1.6668                 0.5405
 IR Inten    --     64.9724                 7.3464                75.8477

                     28                     29                     30
                      A                      A                      A
 Frequencies --    673.0641               714.7088               723.7325
 Red. masses --      2.5057                 4.4893                 6.2797
 Frc consts  --      0.6688                 1.3511                 1.9380
 IR Inten    --     41.1218                10.6316                49.2357

                     31                     32                     33
                      A                      A                      A
 Frequencies --    729.4426               778.7301               783.5399
 Red. masses --      3.1916                 6.2991                 3.5324
 Frc consts  --      1.0006                 2.2506                 1.2777
 IR Inten    --     79.4568               110.8104                22.4669

                     34                     35                     36
                      A                      A                      A
 Frequencies --    794.7730               838.3963               885.5831
 Red. masses --      2.3561                 1.4811                 1.4437
 Frc consts  --      0.8769                 0.6134                 0.6671
 IR Inten    --     28.3025                54.9648                 0.7310

                     37                     38                     39
                      A                      A                      A
 Frequencies --    889.5602               909.2745               909.4795
 Red. masses --      8.2147                 1.4482                 2.5490
 Frc consts  --      3.8300                 0.7055                 1.2422
 IR Inten    --     40.7019                98.8280               101.3802

                     40                     41                     42
                      A                      A                      A
 Frequencies --    986.0710               989.6045              1002.9944
 Red. masses --      5.9737                 1.3661                 1.2905
 Frc consts  --      3.4222                 0.7882                 0.7649
 IR Inten    --    106.4094                 1.9577                 0.0495

                     43                     44                     45
                      A                      A                      A
 Frequencies --   1036.4345              1066.5794              1112.9731
 Red. masses --      2.4662                 2.1618                 2.2878
 Frc consts  --      1.5609                 1.4490                 1.6697
 IR Inten    --    104.8419               149.6911                65.3762

                     46                     47                     48
                      A                      A                      A
 Frequencies --   1143.7911              1162.0940              1197.2685
 Red. masses --      1.9447                 1.4471                 1.9470
 Frc consts  --      1.4990                 1.1514                 1.6444
 IR Inten    --     67.7796                28.5512                15.8724

                     49                     50                     51
                      A                      A                      A
 Frequencies --   1228.8071              1246.0052              1259.6316
 Red. masses --      1.8789                 3.0117                 3.0257
 Frc consts  --      1.6716                 2.7549                 2.8285
 IR Inten    --     99.3885                29.7616               197.0887

                     52                     53                     54
                      A                      A                      A
 Frequencies --   1292.7815              1317.3368              1351.8550
 Red. masses --      3.7145                 3.6350                 5.2436
 Frc consts  --      3.6576                 3.7166                 5.6460
 IR Inten    --     24.1612               682.1379               234.6338

                     55                     56                     57
                      A                      A                      A
 Frequencies --   1357.7758              1380.7020              1391.0987
 Red. masses --      9.4539                 4.1142                 3.0468
 Frc consts  --     10.2687                 4.6210                 3.4738
 IR Inten    --      5.4264                31.7294               523.9738

                     58                     59                     60
                      A                      A                      A
 Frequencies --   1428.4796              1476.2404              1482.3611
 Red. masses --      4.9827                 4.1863                 2.7273
 Frc consts  --      5.9905                 5.3752                 3.5309
 IR Inten    --    237.6295               837.1530               211.3907

                     61                     62                     63
                      A                      A                      A
 Frequencies --   1499.9002              1528.9584              1561.7186
 Red. masses --      4.0352                 2.9283                 4.0815
 Frc consts  --      5.3487                 4.0333                 5.8650
 IR Inten    --   1025.2841               156.7713               134.2267

                     64                     65                     66
                      A                      A                      A
 Frequencies --   1588.8346              1607.0059              1626.2754
 Red. masses --      1.4642                 4.2206                 4.4202
 Frc consts  --      2.1778                 6.4219                 6.8878
 IR Inten    --    167.5834                97.5731                 7.7305

                     67                     68                     69
                      A                      A                      A
 Frequencies --   1634.2007              2849.7695              3162.1751
 Red. masses --      3.4793                 1.0754                 1.0864
 Frc consts  --      5.4747                 5.1458                 6.4007
 IR Inten    --     88.3182               751.9652                13.3247

                     70                     71                     72
                      A                      A                      A
 Frequencies --   3176.3652              3195.3917              3199.7428
 Red. masses --      1.0912                 1.0924                 1.0930
 Frc consts  --      6.4865                 6.5718                 6.5933
 IR Inten    --     26.5069                18.1508                33.9762

                     73                     74                     75
                      A                      A                      A
 Frequencies --   3201.9334              3422.5531              3635.8851
 Red. masses --      1.0913                 1.0593                 1.0903
 Frc consts  --      6.5922                 7.3107                 8.4923
 IR Inten    --      8.5596               146.7109               137.9426

 - Thermochemistry -
 -------------------
 Temperature   298.150 Kelvin.  Pressure   1.00000 Atm.
 Atom     1 has atomic number  6 and mass  12.00000

 Molecular mass:   316.96875 amu.
 Principal axes and moments of inertia in atomic units:
                           1         2         3
     Eigenvalues --  2700.70585********************
           X            0.91983  -0.22431   0.32186
           Y            0.05688   0.88800   0.45632
           Z           -0.38817  -0.40143   0.82956
 This molecule is an asymmetric top.
 Rotational symmetry number  1.
 Warning -- assumption of classical behavior for rotation
           may cause significant error
 Rotational temperatures (Kelvin)      0.03207     0.00829     0.00659
 Rotational constants (GHZ):           0.66825     0.17280     0.13733
 Zero-point vibrational energy     491790.1 (Joules/Mol)
                                  117.54066 (Kcal/Mol)
 Warning -- explicit consideration of  24 degrees of freedom as
           vibrations may cause significant error
 Vibrational temperatures:     52.95   112.63   138.42   192.82   204.90
          (Kelvin)            229.19   274.51   315.95   353.27   378.40
                              486.71   507.42   529.81   562.77   581.19
                              609.48   631.17   633.63   669.90   693.29
                              723.68   753.98   776.66   877.31   908.64
                              934.49   951.01   968.39  1028.31  1041.29
                             1049.51  1120.42  1127.34  1143.50  1206.27
                             1274.16  1279.88  1308.24  1308.54  1418.74
                             1423.82  1443.09  1491.20  1534.57  1601.32
                             1645.66  1671.99  1722.60  1767.98  1792.72
                             1812.33  1860.02  1895.35  1945.02  1953.54
                             1986.52  2001.48  2055.26  2123.98  2132.79
                             2158.02  2199.83  2246.96  2285.98  2312.12
                             2339.85  2351.25  4100.18  4549.66  4570.08
                             4597.46  4603.72  4606.87  4924.29  5231.23

 Zero-point correction=                           0.187313 (Hartree/Particle)
 Thermal correction to Energy=                    0.202121
 Thermal correction to Enthalpy=                  0.203065
 Thermal correction to Gibbs Free Energy=         0.144229
 Sum of electronic and zero-point Energies=          -3393.092504
 Sum of electronic and thermal Energies=             -3393.077696
 Sum of electronic and thermal Enthalpies=           -3393.076752
 Sum of electronic and thermal Free Energies=        -3393.135588

                     E (Thermal)             CV                S
                      KCal/Mol        Cal/Mol-Kelvin    Cal/Mol-Kelvin
 Total                  126.833             59.204            123.832
 Electronic               0.000              0.000              1.377
 Translational            0.889              2.981             43.157
 Rotational               0.889              2.981             34.271
 Vibrational            125.056             53.242             45.027
 Vibration     1          0.594              1.982              5.424
 Vibration     2          0.600              1.964              3.934
 Vibration     3          0.603              1.952              3.530
 Vibration     4          0.613              1.919              2.888
 Vibration     5          0.616              1.911              2.771
 Vibration     6          0.621              1.892              2.558
 Vibration     7          0.634              1.853              2.220
 Vibration     8          0.647              1.811              1.962
 Vibration     9          0.660              1.770              1.762
 Vibration    10          0.670              1.741              1.642
 Vibration    11          0.719              1.599              1.220
 Vibration    12          0.729              1.570              1.154
 Vibration    13          0.741              1.538              1.087
 Vibration    14          0.759              1.489              0.996
 Vibration    15          0.769              1.462              0.948
 Vibration    16          0.786              1.419              0.880
 Vibration    17          0.799              1.386              0.831
 Vibration    18          0.800              1.382              0.825
 Vibration    19          0.823              1.326              0.750
 Vibration    20          0.838              1.290              0.705
 Vibration    21          0.858              1.243              0.651
 Vibration    22          0.879              1.197              0.601
 Vibration    23          0.895              1.162              0.566
 Vibration    24          0.969              1.011              0.433

                           ! Non-Optimized Parameters !
 Normal termination of Gaussian 16 at Sun Feb 11 00:59:00 2024.
