 Gaussian 16, Revision A.03,
 Gaussian 16:  ES64L-G16RevA.03 25-Dec-2016

 ----------------------------------------------------------------
 #P UB3LYP/6-311++G(d,p) SCRF=(PCM,Solvent=n,n-DiMethylFormamide)
 ----------------------------------------------------------------

 ------------------
 Radical PCM in DMF
 ------------------
 Symbolic Z-matrix:
 Charge = -1 Multiplicity = 2

                         Standard orientation:
 ---------------------------------------------------------------------
 Center     Atomic      Atomic             Coordinates (Angstroms)
 Number     Number       Type             X           Y           Z
 ---------------------------------------------------------------------
      1          6           0       -4.877928   -1.045588    0.000626
      2          6           0       -3.472178   -0.492488    0.000095
      3          6           0       -3.274168    0.903579    0.000063
      4          6           0       -1.997201    1.443403   -0.000076
      5          8           0       -1.856765    2.787955   -0.000140
      6          6           0       -0.849663    0.588012   -0.000152
      7          6           0        0.477429    1.145737   -0.000164
      8          8           0        0.655719    2.436556   -0.000207
      9          6           0        1.605116    0.248132   -0.000086
     10          6           0        2.939593    0.764081    0.000134
     11          8           0        3.167809    2.096599    0.000105
     12          6           0        4.025291   -0.101860    0.000404
     13          6           0        3.817923   -1.490782    0.000378
     14          6           0        2.538944   -2.017571    0.000084
     15          6           0        1.417731   -1.166441   -0.000139
     16          6           0        0.072643   -1.754967   -0.000351
     17          8           0       -0.099919   -2.995084   -0.000565
     18          6           0       -1.058842   -0.820878   -0.000197
     19          6           0       -2.371059   -1.332607   -0.000105
     20          1           0       -5.437424   -0.712546    0.882689
     21          1           0       -5.439034   -0.710332   -0.879559
     22          1           0       -4.870859   -2.137963   -0.000698
     23          1           0       -4.117790    1.586674    0.000156
     24          1           0       -0.871316    2.953566   -0.000259
     25          1           0        2.263728    2.522458   -0.000070
     26          1           0        5.023391    0.321701    0.000606
     27          1           0        4.677501   -2.154639    0.000593
     28          1           0        2.361310   -3.085592    0.000057
     29          1           0       -2.486049   -2.410099   -0.000156
 ---------------------------------------------------------------------

 SCF Done:  E(UB3LYP) =  -878.947131497     A.U. after   19 cycles

 The electronic state is 2-A.
 Alpha  occ. eigenvalues --  -19.13694 -19.13653 -19.10403 -19.08042 -10.24158
 Alpha  occ. eigenvalues --  -10.23944 -10.23868 -10.22997 -10.18583 -10.18090
 Alpha  occ. eigenvalues --  -10.17903 -10.17844 -10.17769 -10.17718 -10.16806
 Alpha  occ. eigenvalues --  -10.16548 -10.16446 -10.16435 -10.16156  -1.06402
 Alpha  occ. eigenvalues --   -1.05518  -1.00997  -1.00817  -0.86542  -0.85089
 Alpha  occ. eigenvalues --   -0.79894  -0.75825  -0.74916  -0.74283  -0.70308
 Alpha  occ. eigenvalues --   -0.66954  -0.64085  -0.62029  -0.59352  -0.58588
 Alpha  occ. eigenvalues --   -0.53782  -0.52609  -0.51611  -0.50319  -0.47825
 Alpha  occ. eigenvalues --   -0.47079  -0.46845  -0.44326  -0.43920  -0.42882
 Alpha  occ. eigenvalues --   -0.42274  -0.42117  -0.41328  -0.40583  -0.40352
 Alpha  occ. eigenvalues --   -0.39612  -0.39300  -0.37576  -0.37494  -0.36493
 Alpha  occ. eigenvalues --   -0.36030  -0.35188  -0.34554  -0.33590  -0.32328
 Alpha  occ. eigenvalues --   -0.27439  -0.26928  -0.24907  -0.24367  -0.23760
 Alpha  occ. eigenvalues --   -0.22806  -0.14819
 Alpha virt. eigenvalues --   -0.04844  -0.02563  -0.00325   0.00417   0.00782
 Alpha virt. eigenvalues --    0.01091   0.01910   0.02375   0.02994   0.03790
 Alpha virt. eigenvalues --    0.04002   0.04440   0.04987   0.05261   0.05835

  Beta  occ. eigenvalues --  -19.13669 -19.13629 -19.09972 -19.07519 -10.23919
  Beta  occ. eigenvalues --  -10.23863 -10.23843 -10.22850 -10.18515 -10.18098
  Beta  occ. eigenvalues --  -10.17922 -10.17744 -10.17669 -10.17655 -10.16736
  Beta  occ. eigenvalues --  -10.16526 -10.16452 -10.16381 -10.16124  -1.06231
  Beta  occ. eigenvalues --   -1.05469  -1.00278  -0.99918  -0.86276  -0.84946
  Beta  occ. eigenvalues --   -0.79555  -0.75663  -0.74592  -0.74096  -0.70095
  Beta  occ. eigenvalues --   -0.66381  -0.63887  -0.61845  -0.59224  -0.58413
  Beta  occ. eigenvalues --   -0.53538  -0.52481  -0.51481  -0.50128  -0.47693
  Beta  occ. eigenvalues --   -0.46934  -0.46685  -0.43811  -0.43494  -0.42655
  Beta  occ. eigenvalues --   -0.42014  -0.41865  -0.41001  -0.40386  -0.40285
  Beta  occ. eigenvalues --   -0.39204  -0.38114  -0.37503  -0.36442  -0.35963
  Beta  occ. eigenvalues --   -0.35897  -0.35057  -0.34413  -0.33133  -0.31281
  Beta  occ. eigenvalues --   -0.26601  -0.25876  -0.24424  -0.23896  -0.22620
  Beta  occ. eigenvalues --   -0.22335
  Beta virt. eigenvalues --   -0.09285  -0.03581  -0.01595  -0.00309   0.00419
  Beta virt. eigenvalues --    0.01110   0.01125   0.01925   0.02375   0.03204
  Beta virt. eigenvalues --    0.03802   0.04008   0.04458   0.05081   0.05954

 Mulliken charges and spin densities:
               1          2
     1  C   -0.311217  -0.002665
     2  C    0.383718   0.051233
     3  C   -0.259050   0.042077
     4  C   -0.027814   0.034134
     5  O   -0.397206   0.008080
     6  C    0.325441  -0.037889
     7  C   -0.534711   0.167888
     8  O   -0.569404   0.149175
     9  C    0.518889  -0.016333
    10  C   -0.100776   0.032217
    11  O   -0.397536   0.008682
    12  C   -0.241436   0.047416
    13  C   -0.380243   0.051259
    14  C   -0.238813   0.037856
    15  C    0.304913   0.053399
    16  C   -0.485963   0.083307
    17  O   -0.440972   0.196381
    18  C    0.164181   0.071583
    19  C   -0.445416   0.037519
    20  H    0.165008   0.003305
    21  H    0.164827   0.003297
    22  H    0.168146   0.000153
    23  H    0.178632  -0.003849
    24  H    0.396697  -0.002234
    25  H    0.395304  -0.002128
    26  H    0.185738  -0.004516
    27  H    0.191316  -0.003832
    28  H    0.160851  -0.002410
    29  H    0.126896  -0.003102
 Sum of Mulliken charges =  -1.00000   1.00000

 Dipole moment (field-independent basis, Debye):
    X=             -2.2578    Y=             -0.1959    Z=              0.0020  Tot=              2.2663
 Quadrupole moment (field-independent basis, Debye-Ang):
   XX=           -119.5504   YY=           -149.4040   ZZ=           -116.4768
   XY=             -3.2533   XZ=             -0.0023   YZ=             -0.0051

 Normal termination of Gaussian 16 at Tue Jan 16 05:44:04 2024.
