 Q-Chem 5.4, Q-Chem, Inc., Pleasanton, CA (2021)
 Q-Chem 5.4.0 for Intel X86 EM64T Linux

User input:
--------------------------------------------------------------
$molecule
-1 2
C                 -4.6719690000      0.2882570000     -0.0832530000
C                 -3.2078340000     -0.0797270000     -0.0289460000
C                 -2.8304750000     -1.4379350000     -0.0618450000
C                 -1.4956010000     -1.8092540000     -0.0140060000
O                 -1.1819560000     -3.1237890000     -0.0481880000
C                 -0.4700470000     -0.8144190000      0.0701280000
C                  0.9168040000     -1.1970500000      0.1198140000
O                  1.2609670000     -2.4534780000      0.0891680000
C                  1.9172220000     -0.1629160000      0.2040920000
C                  3.3059750000     -0.5031890000      0.2552020000
O                  3.7050030000     -1.7945440000      0.2257740000
C                  4.2689250000      0.4941880000      0.3362010000
C                  3.8832210000      1.8441130000      0.3684670000
C                  2.5480270000      2.2022410000      0.3205580000
C                  1.5479800000      1.2149910000      0.2381790000
C                  0.1392960000      1.6258330000      0.1887570000
O                 -0.1926240000      2.8327370000      0.2183910000
C                 -0.8601380000      0.5550630000      0.1029360000
C                 -2.2262800000      0.8940190000      0.0525050000
H                 -5.1423630000     -0.0809140000     -1.0021820000
H                 -5.2246560000     -0.1484680000      0.7568490000
H                 -4.8068410000      1.3717250000     -0.0480070000
H                 -3.5773750000     -2.2230570000     -0.1254010000
H                 -0.1844020000     -3.1616070000     -0.0035460000
H                  2.8648130000     -2.3324900000      0.1673460000
H                  5.3125110000      0.2023590000      0.3732330000
H                  4.6484370000      2.6122270000      0.4319280000
H                  2.2334340000      3.2379440000      0.3444610000
H                 -2.4800570000      1.9471380000      0.0798770000
$end
$rem
MAX_SCF_CYCLES=200
BASIS  =  6-311++G(d,p)
GUI  =  2
JOB_TYPE  =  SP
METHOD  =  B3LYP
SOLVENT_METHOD = PCM
$end
$pcm
theory = CPCM
$end
$solvent
dielectric 37.219
opticaldielectric 1.43
$end

--------------------------------------------------------------

             Standard Nuclear Orientation (Angstroms)
    I     Atom           X                Y                Z
 ----------------------------------------------------------------
    1      C      -4.6719690000     0.2882570000    -0.0832530000
    2      C      -3.2078340000    -0.0797270000    -0.0289460000
    3      C      -2.8304750000    -1.4379350000    -0.0618450000
    4      C      -1.4956010000    -1.8092540000    -0.0140060000
    5      O      -1.1819560000    -3.1237890000    -0.0481880000
    6      C      -0.4700470000    -0.8144190000     0.0701280000
    7      C       0.9168040000    -1.1970500000     0.1198140000
    8      O       1.2609670000    -2.4534780000     0.0891680000
    9      C       1.9172220000    -0.1629160000     0.2040920000
   10      C       3.3059750000    -0.5031890000     0.2552020000
   11      O       3.7050030000    -1.7945440000     0.2257740000
   12      C       4.2689250000     0.4941880000     0.3362010000
   13      C       3.8832210000     1.8441130000     0.3684670000
   14      C       2.5480270000     2.2022410000     0.3205580000
   15      C       1.5479800000     1.2149910000     0.2381790000
   16      C       0.1392960000     1.6258330000     0.1887570000
   17      O      -0.1926240000     2.8327370000     0.2183910000
   18      C      -0.8601380000     0.5550630000     0.1029360000
   19      C      -2.2262800000     0.8940190000     0.0525050000
   20      H      -5.1423630000    -0.0809140000    -1.0021820000
   21      H      -5.2246560000    -0.1484680000     0.7568490000
   22      H      -4.8068410000     1.3717250000    -0.0480070000
   23      H      -3.5773750000    -2.2230570000    -0.1254010000
   24      H      -0.1844020000    -3.1616070000    -0.0035460000
   25      H       2.8648130000    -2.3324900000     0.1673460000
   26      H       5.3125110000     0.2023590000     0.3732330000
   27      H       4.6484370000     2.6122270000     0.4319280000
   28      H       2.2334340000     3.2379440000     0.3444610000
   29      H      -2.4800570000     1.9471380000     0.0798770000
 ----------------------------------------------------------------

    8    -878.9510894412      7.90e-06  Convergence criterion met
 Total energy in the final basis set =     -878.9510894412

                    Orbital Energies (a.u.)
 --------------------------------------------------------------

 Alpha MOs
 -- Occupied --
-19.1376 -19.1372 -19.1051 -19.0813 -10.2424 -10.2397 -10.2389 -10.2313
-10.1853 -10.1812 -10.1793 -10.1786 -10.1779 -10.1763 -10.1675 -10.1652
-10.1638 -10.1613 -10.1613  -1.0647  -1.0559  -1.0110  -1.0094  -0.8656
 -0.8508  -0.7986  -0.7578  -0.7493  -0.7429  -0.7021  -0.6695  -0.6408
 -0.6198  -0.5933  -0.5862  -0.5377  -0.5262  -0.5160  -0.5034  -0.4780
 -0.4708  -0.4681  -0.4438  -0.4389  -0.4290  -0.4231  -0.4198  -0.4140
 -0.4052  -0.4033  -0.3973  -0.3927  -0.3756  -0.3738  -0.3646  -0.3595
 -0.3514  -0.3460  -0.3363  -0.3237  -0.2746  -0.2701  -0.2489  -0.2452
 -0.2381  -0.2285  -0.1487

 Beta MOs
 -- Occupied --
-19.1374 -19.1369 -19.1010 -19.0764 -10.2395 -10.2395 -10.2387 -10.2296
-10.1846 -10.1812 -10.1794 -10.1777 -10.1770 -10.1757 -10.1667 -10.1649
-10.1632 -10.1614 -10.1609  -1.0631  -1.0554  -1.0039  -1.0010  -0.8630
 -0.8494  -0.7952  -0.7561  -0.7461  -0.7409  -0.6998  -0.6638  -0.6388
 -0.6180  -0.5920  -0.5844  -0.5353  -0.5249  -0.5147  -0.5016  -0.4766
 -0.4693  -0.4665  -0.4378  -0.4353  -0.4266  -0.4205  -0.4174  -0.4112
 -0.4033  -0.4026  -0.3917  -0.3824  -0.3731  -0.3641  -0.3601  -0.3588
 -0.3501  -0.3447  -0.3316  -0.3135  -0.2670  -0.2594  -0.2441  -0.2408
 -0.2268  -0.2235

          Ground-State Mulliken Net Atomic Charges

     Atom                 Charge (a.u.)    Spin (a.u.)
  --------------------------------------------------------
      1 C                    -0.337302      -0.001915
      2 C                     0.356679       0.046891
      3 C                    -0.274173       0.046375
      4 C                    -0.020439       0.031213
      5 O                    -0.408521       0.007989
      6 C                     0.335449      -0.033172
      7 C                    -0.520197       0.165617
      8 O                    -0.581110       0.146158
      9 C                     0.520546      -0.011991
     10 C                    -0.096170       0.029306
     11 O                    -0.408538       0.008526
     12 C                    -0.265003       0.051552
     13 C                    -0.399620       0.046754
     14 C                    -0.243287       0.044928
     15 C                     0.294168       0.045971
     16 C                    -0.437189       0.096764
     17 O                    -0.463857       0.187679
     18 C                     0.167459       0.063192
     19 C                    -0.456935       0.045028
     20 H                     0.172313       0.003104
     21 H                     0.171976       0.003092
     22 H                     0.175699       0.000131
     23 H                     0.196011      -0.004252
     24 H                     0.405423      -0.002143
     25 H                     0.404350      -0.002034
     26 H                     0.201735      -0.004862
     27 H                     0.207752      -0.003445
     28 H                     0.167477      -0.002872
     29 H                     0.135304      -0.003585
  --------------------------------------------------------
  Sum of atomic charges =    -1.000000

                    Cartesian Multipole Moments
 -----------------------------------------------------------------
    Charge (ESU x 10^10)
                -4.8032
    Dipole Moment (Debye)
         X      -3.7025      Y       0.4279      Z      -0.7437
       Tot       3.8006
    Quadrupole Moments (Debye-Ang)
        XX    -120.5880     XY       7.9733     YY    -148.3847
        XZ      -0.3439     YZ      -0.7704     ZZ    -116.5998

 Total job time:  66.73s(wall), 446.56s(cpu)
        *  Thank you very much for using Q-Chem.  Have a nice day.  *
