 Q-Chem 5.4, Q-Chem, Inc., Pleasanton, CA (2021)
 Q-Chem 5.4.0 for Intel X86 EM64T Linux

User input:
--------------------------------------------------------------
$molecule
0 1
C                  0.3002570000     -0.5360530000     -0.1073290000
C                 -0.2607020000     -1.6897750000     -0.5482890000
C                 -1.7117020000     -1.8690220000     -0.6052010000
O                 -2.2045600000     -2.9138320000     -1.0092670000
C                 -2.5873190000     -0.7371570000     -0.1545200000
C                 -3.9741050000     -0.8727380000     -0.1931380000
C                 -4.7891480000      0.1762580000      0.2252870000
C                 -4.2242770000      1.3680130000      0.6853230000
C                 -2.8418230000      1.5122110000      0.7273500000
C                 -2.0198920000      0.4613790000      0.3078180000
C                 -0.5506630000      0.6184450000      0.3545670000
O                 -0.0060920000      1.6400430000      0.7508020000
H                  0.3486960000     -2.5198110000     -0.8739460000
H                 -4.3920140000     -1.8049340000     -0.5528150000
H                 -5.8672870000      0.0664430000      0.1936890000
H                 -4.8628040000      2.1814240000      1.0100820000
H                 -2.3824230000      2.4271150000      1.0805760000
N                  1.6396430000     -0.2347200000     -0.0114200000
C                  2.7252200000     -1.0578870000     -0.3318110000
N                  3.9377610000     -0.4506970000     -0.1326850000
C                  5.1732680000     -1.1216480000     -0.5117030000
O                  2.6023740000     -2.2029590000     -0.7256260000
H                  1.8012840000      0.6916090000      0.3714350000
H                  3.9695710000      0.5452790000      0.0181570000
H                  5.1001310000     -2.1754250000     -0.2473170000
H                  6.0022190000     -0.6733770000      0.0371840000
H                  5.3715320000     -1.0493310000     -1.5862880000
$end

$rem
BASIS  =  6-311++G(d,p)
GUI  =  2
JOB_TYPE  =  SP
METHOD  =  B3LYP
SCF_CONVERGENCE  = 8
SOLVENT_METHOD = sm12
$end

$smx
solvent dimethylformamide
charges CM5
$end

--------------------------------------------------------------

             Standard Nuclear Orientation (Angstroms)
    I     Atom           X                Y                Z
 ----------------------------------------------------------------
    1      C       0.3002570000    -0.5360530000    -0.1073290000
    2      C      -0.2607020000    -1.6897750000    -0.5482890000
    3      C      -1.7117020000    -1.8690220000    -0.6052010000
    4      O      -2.2045600000    -2.9138320000    -1.0092670000
    5      C      -2.5873190000    -0.7371570000    -0.1545200000
    6      C      -3.9741050000    -0.8727380000    -0.1931380000
    7      C      -4.7891480000     0.1762580000     0.2252870000
    8      C      -4.2242770000     1.3680130000     0.6853230000
    9      C      -2.8418230000     1.5122110000     0.7273500000
   10      C      -2.0198920000     0.4613790000     0.3078180000
   11      C      -0.5506630000     0.6184450000     0.3545670000
   12      O      -0.0060920000     1.6400430000     0.7508020000
   13      H       0.3486960000    -2.5198110000    -0.8739460000
   14      H      -4.3920140000    -1.8049340000    -0.5528150000
   15      H      -5.8672870000     0.0664430000     0.1936890000
   16      H      -4.8628040000     2.1814240000     1.0100820000
   17      H      -2.3824230000     2.4271150000     1.0805760000
   18      N       1.6396430000    -0.2347200000    -0.0114200000
   19      C       2.7252200000    -1.0578870000    -0.3318110000
   20      N       3.9377610000    -0.4506970000    -0.1326850000
   21      C       5.1732680000    -1.1216480000    -0.5117030000
   22      O       2.6023740000    -2.2029590000    -0.7256260000
   23      H       1.8012840000     0.6916090000     0.3714350000
   24      H       3.9695710000     0.5452790000     0.0181570000
   25      H       5.1001310000    -2.1754250000    -0.2473170000
   26      H       6.0022190000    -0.6733770000     0.0371840000
   27      H       5.3715320000    -1.0493310000    -1.5862880000
 ----------------------------------------------------------------

   16    -798.7246210972      3.02e-09  Convergence criterion met
 Total energy in the final basis set =     -798.7594419403

                    Orbital Energies (a.u.)
 --------------------------------------------------------------

 Alpha MOs
 -- Occupied --
-19.1466 -19.1207 -19.1002 -14.3715 -14.3445 -10.3155 -10.2944 -10.2739
-10.2583 -10.2104 -10.2081 -10.2002 -10.1989 -10.1970 -10.1964 -10.1956
-10.1908  -1.0835  -1.0692  -1.0534  -0.9666  -0.9277  -0.8905  -0.8291
 -0.7793  -0.7741  -0.7255  -0.6919  -0.6534  -0.6495  -0.6042  -0.5974
 -0.5815  -0.5543  -0.5238  -0.5204  -0.4926  -0.4780  -0.4716  -0.4601
 -0.4587  -0.4540  -0.4517  -0.4421  -0.4335  -0.4266  -0.4200  -0.4132
 -0.3921  -0.3836  -0.3817  -0.3694  -0.3484  -0.2987  -0.2927  -0.2875
 -0.2788  -0.2735  -0.2717  -0.2487

          Ground-State Mulliken Net Atomic Charges

     Atom                 Charge (a.u.)
  ----------------------------------------
      1 C                     0.968689
      2 C                    -1.025072
      3 C                    -1.399781
      4 O                    -0.352144
      5 C                    -0.667057
      6 C                    -0.067770
      7 C                     0.498179
      8 C                     0.388176
      9 C                     0.548860
     10 C                     0.458094
     11 C                    -0.923390
     12 O                    -0.181933
     13 H                     0.145731
     14 H                     0.169629
     15 H                     0.319938
     16 H                     0.336621
     17 H                     0.223259
     18 N                    -0.221655
     19 C                     0.003670
     20 N                    -0.008460
     21 C                    -0.050482
     22 O                    -0.565240
     23 H                     0.453210
     24 H                     0.412986
     25 H                     0.136827
     26 H                     0.224846
     27 H                     0.174272
  ----------------------------------------
  Sum of atomic charges =     0.000000

                    Cartesian Multipole Moments
 -----------------------------------------------------------------
    Charge (ESU x 10^10)
                 0.0000
    Dipole Moment (Debye)
         X       1.8065      Y       6.0105      Z       1.7859
       Tot       6.5252
    Quadrupole Moments (Debye-Ang)
        XX     -60.0884     XY      -3.9469     YY    -116.6634
        XZ      -4.0167     YZ      -5.6620     ZZ    -102.2722

 Total job time:  534.31s(wall), 4101.78s(cpu)
        *  Thank you very much for using Q-Chem.  Have a nice day.  *
