 Gaussian 16, Revision A.03,
 Gaussian 16:  ES64L-G16RevA.03 25-Dec-2016

 --------------------------------------
 #P UB3LYP/6-311++G(d,p) nosym opt freq
 --------------------------------------

 --------
 Oxidized
 --------
 Symbolic Z-matrix:
 Charge =  0 Multiplicity = 1

 SCF Done:  E(UB3LYP) =  -798.727712489     A.U. after   17 cycles
 SCF Done:  E(UB3LYP) =  -798.727774555     A.U. after   11 cycles
 SCF Done:  E(UB3LYP) =  -798.727761576     A.U. after   11 cycles
 SCF Done:  E(UB3LYP) =  -798.727774356     A.U. after   11 cycles
 SCF Done:  E(UB3LYP) =  -798.727777478     A.U. after   10 cycles
 SCF Done:  E(UB3LYP) =  -798.727778662     A.U. after   10 cycles
 SCF Done:  E(UB3LYP) =  -798.727783895     A.U. after   11 cycles
 SCF Done:  E(UB3LYP) =  -798.727788366     A.U. after   12 cycles
 SCF Done:  E(UB3LYP) =  -798.727791662     A.U. after   12 cycles
 SCF Done:  E(UB3LYP) =  -798.727800577     A.U. after   12 cycles
 SCF Done:  E(UB3LYP) =  -798.727867011     A.U. after   13 cycles
 SCF Done:  E(UB3LYP) =  -798.727873432     A.U. after   11 cycles
 SCF Done:  E(UB3LYP) =  -798.727879466     A.U. after   11 cycles
 SCF Done:  E(UB3LYP) =  -798.727880951     A.U. after   10 cycles
 SCF Done:  E(UB3LYP) =  -798.727882117     A.U. after   11 cycles
 SCF Done:  E(UB3LYP) =  -798.727882330     A.U. after   10 cycles
 SCF Done:  E(UB3LYP) =  -798.727882377     A.U. after    8 cycles
 SCF Done:  E(UB3LYP) =  -798.727882414     A.U. after    9 cycles
 SCF Done:  E(UB3LYP) =  -798.727882424     A.U. after    9 cycles
 Optimization completed.
    -- Stationary point found.
 Normal termination of Gaussian 16 at Fri Jan 19 06:02:47 2024.

 ----------------------------------------------------------------------
 #P Geom=AllCheck Guess=TCheck SCRF=Check GenChk UB3LYP/6-311++G(d,p) F
 req
 ----------------------------------------------------------------------

 Structure from the checkpoint file:  "275.chk"
 --------
 Oxidized
 --------
 Charge =  0 Multiplicity = 1

                          Input orientation:
 ---------------------------------------------------------------------
 Center     Atomic      Atomic             Coordinates (Angstroms)
 Number     Number       Type             X           Y           Z
 ---------------------------------------------------------------------
      1          6           0        0.300257   -0.536053   -0.107329
      2          6           0       -0.260702   -1.689775   -0.548289
      3          6           0       -1.711702   -1.869022   -0.605201
      4          8           0       -2.204560   -2.913832   -1.009267
      5          6           0       -2.587319   -0.737157   -0.154520
      6          6           0       -3.974105   -0.872738   -0.193138
      7          6           0       -4.789148    0.176258    0.225287
      8          6           0       -4.224277    1.368013    0.685323
      9          6           0       -2.841823    1.512211    0.727350
     10          6           0       -2.019892    0.461379    0.307818
     11          6           0       -0.550663    0.618445    0.354567
     12          8           0       -0.006092    1.640043    0.750802
     13          1           0        0.348696   -2.519811   -0.873946
     14          1           0       -4.392014   -1.804934   -0.552815
     15          1           0       -5.867287    0.066443    0.193689
     16          1           0       -4.862804    2.181424    1.010082
     17          1           0       -2.382423    2.427115    1.080576
     18          7           0        1.639643   -0.234720   -0.011420
     19          6           0        2.725220   -1.057887   -0.331811
     20          7           0        3.937761   -0.450697   -0.132685
     21          6           0        5.173268   -1.121648   -0.511703
     22          8           0        2.602374   -2.202959   -0.725626
     23          1           0        1.801284    0.691609    0.371435
     24          1           0        3.969571    0.545279    0.018157
     25          1           0        5.100131   -2.175425   -0.247317
     26          1           0        6.002219   -0.673377    0.037184
     27          1           0        5.371532   -1.049331   -1.586288
 ---------------------------------------------------------------------

 SCF Done:  E(UB3LYP) =  -798.727882424     A.U. after    1 cycles

 Alpha  occ. eigenvalues --  -19.14734 -19.11773 -19.10484 -14.37433 -14.35847
 Alpha  occ. eigenvalues --  -10.32162 -10.29523 -10.27024 -10.25725 -10.21658
 Alpha  occ. eigenvalues --  -10.21282 -10.20944 -10.20498 -10.20461 -10.20344
 Alpha  occ. eigenvalues --  -10.19930 -10.19038  -1.08490  -1.07405  -1.04931
 Alpha  occ. eigenvalues --   -0.97046  -0.94043  -0.89373  -0.83097  -0.78267
 Alpha  occ. eigenvalues --   -0.77806  -0.73469  -0.69785  -0.65834  -0.65466
 Alpha  occ. eigenvalues --   -0.61245  -0.60236  -0.58988  -0.55893  -0.52727
 Alpha  occ. eigenvalues --   -0.52198  -0.49643  -0.48593  -0.47914  -0.46752
 Alpha  occ. eigenvalues --   -0.46163  -0.45997  -0.45526  -0.44418  -0.43452
 Alpha  occ. eigenvalues --   -0.42768  -0.42679  -0.41474  -0.41198  -0.38921
 Alpha  occ. eigenvalues --   -0.38451  -0.37359  -0.35023  -0.29949  -0.29460
 Alpha  occ. eigenvalues --   -0.29014  -0.28165  -0.28148  -0.26743  -0.25259
 Alpha virt. eigenvalues --   -0.12343  -0.05797  -0.03361  -0.02457  -0.00926
 Alpha virt. eigenvalues --    0.00064   0.01191   0.01340   0.01924   0.02435
 Alpha virt. eigenvalues --    0.03088   0.03356   0.03750   0.04369   0.04511

  Beta  occ. eigenvalues --  -19.14734 -19.11773 -19.10484 -14.37433 -14.35847
  Beta  occ. eigenvalues --  -10.32162 -10.29523 -10.27024 -10.25725 -10.21658
  Beta  occ. eigenvalues --  -10.21282 -10.20944 -10.20498 -10.20461 -10.20344
  Beta  occ. eigenvalues --  -10.19930 -10.19038  -1.08490  -1.07405  -1.04931
  Beta  occ. eigenvalues --   -0.97046  -0.94043  -0.89373  -0.83097  -0.78267
  Beta  occ. eigenvalues --   -0.77806  -0.73469  -0.69785  -0.65834  -0.65466
  Beta  occ. eigenvalues --   -0.61245  -0.60236  -0.58988  -0.55893  -0.52727
  Beta  occ. eigenvalues --   -0.52198  -0.49643  -0.48593  -0.47914  -0.46752
  Beta  occ. eigenvalues --   -0.46163  -0.45997  -0.45526  -0.44418  -0.43452
  Beta  occ. eigenvalues --   -0.42768  -0.42679  -0.41474  -0.41198  -0.38921
  Beta  occ. eigenvalues --   -0.38451  -0.37359  -0.35023  -0.29949  -0.29460
  Beta  occ. eigenvalues --   -0.29014  -0.28165  -0.28148  -0.26743  -0.25259
  Beta virt. eigenvalues --   -0.12343  -0.05797  -0.03361  -0.02457  -0.00926
  Beta virt. eigenvalues --    0.00064   0.01191   0.01340   0.01924   0.02435
  Beta virt. eigenvalues --    0.03088   0.03356   0.03750   0.04369   0.04511

 Mulliken charges and spin densities:
               1          2
     1  C    0.448614  -0.000000
     2  C    0.215435   0.000000
     3  C   -0.299778   0.000000
     4  O   -0.236532   0.000000
     5  C    0.739744   0.000000
     6  C    0.211747   0.000000
     7  C   -0.269927  -0.000000
     8  C   -0.362692  -0.000000
     9  C    0.162751  -0.000000
    10  C   -0.320174  -0.000000
    11  C   -1.200428   0.000000
    12  O   -0.230445  -0.000000
    13  H    0.286413  -0.000000
    14  H    0.180570   0.000000
    15  H    0.180670  -0.000000
    16  H    0.175972   0.000000
    17  H    0.184894  -0.000000
    18  N   -0.258733   0.000000
    19  C    0.085640   0.000000
    20  N   -0.203841   0.000000
    21  C   -0.237874   0.000000
    22  O   -0.340729   0.000000
    23  H    0.342630  -0.000000
    24  H    0.242349   0.000000
    25  H    0.191115  -0.000000
    26  H    0.139135  -0.000000
    27  H    0.173474  -0.000000
 Sum of Mulliken charges =  -0.00000   0.00000

 Dipole moment (field-independent basis, Debye):
    X=              1.3853    Y=              4.5863    Z=              1.2942  Tot=              4.9627
 Quadrupole moment (field-independent basis, Debye-Ang):
   XX=            -67.4205   YY=           -114.4053   ZZ=           -102.0432
   XY=             -2.5294   XZ=             -3.1743   YZ=             -5.0813

  Exact polarizability: 255.256   2.910 169.320  -2.425  32.456  98.803
 Approx polarizability: 345.845  50.688 328.883  16.256  74.735 163.231

                      1                      2                      3
                      A                      A                      A
 Frequencies --     32.3390                45.0435                68.7556
 Red. masses --      5.2002                 2.5968                 1.5865
 Frc consts  --      0.0032                 0.0031                 0.0044
 IR Inten    --      1.8786                 5.5169                 0.2348

                      4                      5                      6
                      A                      A                      A
 Frequencies --     80.3016                98.8184               120.1975
 Red. masses --      4.6242                 4.0047                 4.6998
 Frc consts  --      0.0176                 0.0230                 0.0400
 IR Inten    --      6.9189                 3.3061                 0.2567

                      7                      8                      9
                      A                      A                      A
 Frequencies --    138.1347               174.2514               209.4818
 Red. masses --      4.7509                 6.3313                 5.1994
 Frc consts  --      0.0534                 0.1133                 0.1344
 IR Inten    --     13.1345                 1.4074                 0.2666

                     10                     11                     12
                      A                      A                      A
 Frequencies --    235.9917               253.7625               287.1827
 Red. masses --      5.2358                 5.8884                 4.8794
 Frc consts  --      0.1718                 0.2234                 0.2371
 IR Inten    --      1.3774                 1.9241                 9.4225

                     13                     14                     15
                      A                      A                      A
 Frequencies --    332.1354               371.8424               391.7009
 Red. masses --      1.6173                 2.7263                10.6125
 Frc consts  --      0.1051                 0.2221                 0.9594
 IR Inten    --     56.1571                29.7663                18.8569

                     16                     17                     18
                      A                      A                      A
 Frequencies --    403.0086               448.4718               462.0681
 Red. masses --      3.7093                 4.7276                 9.9320
 Frc consts  --      0.3549                 0.5602                 1.2494
 IR Inten    --      0.4577                 0.8831                 8.2214

                     19                     20                     21
                      A                      A                      A
 Frequencies --    476.4939               493.3058               580.8041
 Red. masses --      8.0809                 4.0767                 6.7970
 Frc consts  --      1.0810                 0.5845                 1.3509
 IR Inten    --      1.1119                 1.1698                26.8332

                     22                     23                     24
                      A                      A                      A
 Frequencies --    645.5096               656.4229               680.7779
 Red. masses --      1.5261                 2.7990                 4.0030
 Frc consts  --      0.3747                 0.7106                 1.0931
 IR Inten    --     66.5324                30.8075                 8.7849

                     25                     26                     27
                      A                      A                      A
 Frequencies --    694.2561               722.4445               732.1416
 Red. masses --      6.0826                 6.6552                 3.1740
 Frc consts  --      1.7273                 2.0466                 1.0024
 IR Inten    --      2.6081                 1.5300                42.7924

                     28                     29                     30
                      A                      A                      A
 Frequencies --    760.2419               767.8135               782.1372
 Red. masses --      5.5023                 4.9021                 3.0458
 Frc consts  --      1.8737                 1.7027                 1.0978
 IR Inten    --      1.5337                 2.2072                18.2290

                     31                     32                     33
                      A                      A                      A
 Frequencies --    808.1462               835.1230               913.7838
 Red. masses --      2.3991                 4.0845                 1.3478
 Frc consts  --      0.9232                 1.6784                 0.6631
 IR Inten    --     19.1251                 4.8469                 0.3296

                     34                     35                     36
                      A                      A                      A
 Frequencies --    917.3565               962.5877               998.6638
 Red. masses --      1.3866                 3.7479                 1.3785
 Frc consts  --      0.6875                 2.0461                 0.8100
 IR Inten    --     28.2160                 5.4717                 1.1839

                     37                     38                     39
                      A                      A                      A
 Frequencies --   1003.0463              1017.6080              1051.5925
 Red. masses --      5.1732                 1.3263                 2.3427
 Frc consts  --      3.0666                 0.8092                 1.5264
 IR Inten    --     35.0716                 0.2131                 9.4827

                     40                     41                     42
                      A                      A                      A
 Frequencies --   1095.6035              1110.2885              1136.8865
 Red. masses --      3.2713                 3.5359                 1.8209
 Frc consts  --      2.3135                 2.5681                 1.3866
 IR Inten    --     15.3168                51.6690                41.8624

                     43                     44                     45
                      A                      A                      A
 Frequencies --   1146.7122              1174.6561              1183.4379
 Red. masses --      1.2916                 1.5961                 1.1433
 Frc consts  --      1.0006                 1.2976                 0.9434
 IR Inten    --     19.7782                37.2772                13.7667

                     46                     47                     48
                      A                      A                      A
 Frequencies --   1221.4509              1237.7821              1262.7972
 Red. masses --      2.0103                 2.3137                 2.3642
 Frc consts  --      1.7672                 2.0886                 2.2213
 IR Inten    --    453.0421                23.5699                13.0382

                     49                     50                     51
                      A                      A                      A
 Frequencies --   1288.1233              1319.1240              1347.8898
 Red. masses --      1.7949                 4.6448                 2.7057
 Frc consts  --      1.7547                 4.7620                 2.8962
 IR Inten    --      0.8358               337.3368               108.4745

                     52                     53                     54
                      A                      A                      A
 Frequencies --   1363.7813              1452.0503              1483.6020
 Red. masses --      7.0420                 1.1449                 2.3833
 Frc consts  --      7.7168                 1.4222                 3.0908
 IR Inten    --     46.5977                18.5802                 2.3519

                     55                     56                     57
                      A                      A                      A
 Frequencies --   1485.3320              1506.2156              1506.7806
 Red. masses --      1.1074                 1.6600                 1.5261
 Frc consts  --      1.4395                 2.2188                 2.0414
 IR Inten    --     95.3554                22.4970                 1.8687

                     58                     59                     60
                      A                      A                      A
 Frequencies --   1545.8338              1552.6107              1612.4307
 Red. masses --      1.8232                 1.6450                 6.5780
 Frc consts  --      2.5669                 2.3364                10.0764
 IR Inten    --    539.6158               724.2044                 9.0014

                     61                     62                     63
                      A                      A                      A
 Frequencies --   1628.5257              1659.9595              1702.0584
 Red. masses --      5.8904                 6.4517                11.5259
 Frc consts  --      9.2042                10.4741                19.6731
 IR Inten    --     77.9218               149.3154                57.8721

                     64                     65                     66
                      A                      A                      A
 Frequencies --   1712.3406              1768.5254              3022.8519
 Red. masses --     11.7978                 8.1033                 1.0459
 Frc consts  --     20.3812                14.9326                 5.6306
 IR Inten    --    406.4884               184.3064                63.3236

                     67                     68                     69
                      A                      A                      A
 Frequencies --   3097.4294              3140.4434              3170.8554
 Red. masses --      1.0908                 1.1029                 1.0870
 Frc consts  --      6.1660                 6.4089                 6.4393
 IR Inten    --     23.9323                 5.2577                 3.4014

                     70                     71                     72
                      A                      A                      A
 Frequencies --   3185.1146              3199.6562              3202.3238
 Red. masses --      1.0916                 1.0926                 1.0952
 Frc consts  --      6.5247                 6.5906                 6.6171
 IR Inten    --      9.0924                 0.4079                10.1954

                     73                     74                     75
                      A                      A                      A
 Frequencies --   3235.6256              3526.1449              3630.0018
 Red. masses --      1.0918                 1.0760                 1.0776
 Frc consts  --      6.7345                 7.8821                 8.3659
 IR Inten    --      8.4390                77.7800                36.0354

 - Thermochemistry -
 -------------------
 Temperature   298.150 Kelvin.  Pressure   1.00000 Atm.
 Atom     1 has atomic number  6 and mass  12.00000

 Molecular mass:   230.06914 amu.
 Principal axes and moments of inertia in atomic units:
                           1         2         3
     Eigenvalues --  1553.797777161.714448702.33527
           X            0.98542   0.16945   0.01534
           Y           -0.15263   0.92023  -0.36038
           Z           -0.07518   0.35279   0.93268
 This molecule is an asymmetric top.
 Rotational symmetry number  1.
 Warning -- assumption of classical behavior for rotation
           may cause significant error
 Rotational temperatures (Kelvin)      0.05574     0.01209     0.00995
 Rotational constants (GHZ):           1.16150     0.25200     0.20739
 Zero-point vibrational energy     535741.5 (Joules/Mol)
                                  128.04530 (Kcal/Mol)
 Warning -- explicit consideration of  21 degrees of freedom as
           vibrations may cause significant error
 Vibrational temperatures:     46.53    64.81    98.92   115.54   142.18
          (Kelvin)            172.94   198.75   250.71   301.40   339.54
                              365.11   413.19   477.87   535.00   563.57
                              579.84   645.25   664.81   685.57   709.76
                              835.65   928.74   944.45   979.49   998.88
                             1039.44  1053.39  1093.82  1104.71  1125.32
                             1162.74  1201.56  1314.73  1319.87  1384.95
                             1436.85  1443.16  1464.11  1513.01  1576.33
                             1597.46  1635.73  1649.86  1690.07  1702.70
                             1757.40  1780.89  1816.88  1853.32  1897.93
                             1939.31  1962.18  2089.18  2134.57  2137.06
                             2167.11  2167.92  2224.11  2233.86  2319.93
                             2343.09  2388.31  2448.88  2463.68  2544.51
                             4349.21  4456.51  4518.40  4562.15  4582.67
                             4603.59  4607.43  4655.34  5073.34  5222.76

 Zero-point correction=                           0.204053 (Hartree/Particle)
 Thermal correction to Energy=                    0.219004
 Thermal correction to Enthalpy=                  0.219948
 Thermal correction to Gibbs Free Energy=         0.160622
 Sum of electronic and zero-point Energies=           -798.523829
 Sum of electronic and thermal Energies=              -798.508879
 Sum of electronic and thermal Enthalpies=            -798.507935
 Sum of electronic and thermal Free Energies=         -798.567260

                     E (Thermal)             CV                S
                      KCal/Mol        Cal/Mol-Kelvin    Cal/Mol-Kelvin
 Total                  137.427             55.613            124.862
 Electronic               0.000              0.000              0.000
 Translational            0.889              2.981             42.202
 Rotational               0.889              2.981             32.937
 Vibrational            135.649             49.651             49.723
 Vibration     1          0.594              1.983              5.681
 Vibration     2          0.595              1.979              5.024
 Vibration     3          0.598              1.969              4.189
 Vibration     4          0.600              1.963              3.883
 Vibration     5          0.604              1.950              3.477
 Vibration     6          0.609              1.932              3.097
 Vibration     7          0.614              1.915              2.830
 Vibration     8          0.627              1.874              2.389
 Vibration     9          0.642              1.826              2.048
 Vibration    10          0.655              1.786              1.833
 Vibration    11          0.665              1.756              1.704
 Vibration    12          0.684              1.698              1.491
 Vibration    13          0.714              1.611              1.250
 Vibration    14          0.744              1.530              1.072
 Vibration    15          0.759              1.488              0.994
 Vibration    16          0.768              1.464              0.952
 Vibration    17          0.807              1.364              0.800
 Vibration    18          0.820              1.334              0.760
 Vibration    19          0.833              1.302              0.720
 Vibration    20          0.849              1.265              0.675
 Vibration    21          0.938              1.073              0.484

 Optimization completed.
    -- Stationary point found.
 Normal termination of Gaussian 16 at Fri Jan 19 06:42:26 2024.
