 Q-Chem 5.4, Q-Chem, Inc., Pleasanton, CA (2021)
 Q-Chem 5.4.0 for Intel X86 EM64T Linux

User input:
--------------------------------------------------------------
$molecule
0 1
C                 -3.2897930000      3.6092040000      0.0843370000
C                 -4.5210270000      2.9655340000      0.0899110000
C                 -4.5693120000      1.5636990000      0.0667850000
C                 -2.0957690000      2.8858660000      0.0560920000
C                 -2.1535830000      1.4765610000      0.0330030000
C                 -3.3805980000      0.8268500000      0.0383960000
C                 -0.8038100000      3.6133170000      0.0511390000
C                  0.4449080000      2.7871670000      0.0202410000
C                  0.3870940000      1.3778610000     -0.0028430000
C                 -0.9048620000      0.6504060000      0.0023740000
C                  1.6719200000      3.4368810000      0.0146140000
C                  2.8606270000      2.7000310000     -0.0140070000
C                  2.8123450000      1.2981980000     -0.0371330000
C                  1.5811140000      0.6545250000     -0.0313290000
O                 -0.7519040000      4.8338880000      0.0709080000
O                 -0.9567740000     -0.5701570000     -0.0178730000
H                 -3.4160950000     -0.2548970000      0.0205420000
H                  1.5272890000     -0.4271840000     -0.0489520000
H                 -3.2359670000      4.6909130000      0.1019640000
H                  1.7074180000      4.5186270000      0.0324710000
O                  4.0056880000      3.4266460000     -0.0173050000
O                 -5.7143690000      0.8370720000      0.0698670000
C                 -6.9656170000      1.5178280000      0.0966710000
C                  5.2569060000      2.7458470000     -0.0443370000
H                 -5.4283190000      3.5538570000      0.1120660000
H                  3.7196380000      0.7098810000     -0.0594660000
H                 -7.7244010000      0.7378000000      0.0928670000
H                 -7.0917200000      2.1522980000     -0.7864180000
H                 -7.0697980000      2.1221880000      1.0034290000
H                  6.0157160000      3.5258500000     -0.0406600000
H                  5.3609040000      2.1414900000     -0.9511180000
H                  5.3831410000      2.1113650000      0.8387260000
$end
$rem
MAX_SCF_CYCLES=200
BASIS  =  6-311++G(d,p)
GUI  =  2
JOB_TYPE  =  SP
METHOD  =  B3LYP
SOLVENT_METHOD = COSMO
$end
$solvent
dielectric 37.219
opticaldielectric 1.43
$end

--------------------------------------------------------------

             Standard Nuclear Orientation (Angstroms)
    I     Atom           X                Y                Z
 ----------------------------------------------------------------
    1      C       2.2746377028    -1.7156171766     0.0002845047
    2      C       3.5644639462    -1.1992572610     0.0003058124
    3      C       3.7535363133     0.1908000256     0.0002912061
    4      C       1.1593607034    -0.8754587576     0.0002614408
    5      C       1.3586662963     0.5210703053     0.0002830224
    6      C       2.6449021464     1.0438672221     0.0002821182
    7      C      -0.1993150566    -1.4690644571     0.0002531539
    8      C      -1.3586711198    -0.5210831123     0.0000507209
    9      C      -1.1593653681     0.8754468545     0.0000773183
   10      C       0.1993108709     1.4690520291     0.0003496516
   11      C      -2.6449070004    -1.0438790556    -0.0001824113
   12      C      -3.7535367920    -0.1908073453    -0.0004235218
   13      C      -3.5644676110     1.1992482535    -0.0004381218
   14      C      -2.2746413835     1.7156072684    -0.0001867768
   15      O      -0.3737572830    -2.6783818152     0.0000311123
   16      O       0.3737527188     2.6783695266     0.0000935888
   17      H       2.7890488289     2.1167032339     0.0002859366
   18      H      -2.1122624408     2.7865578463    -0.0001976352
   19      H       2.1122578116    -2.7865677267     0.0002993755
   20      H      -2.7890545421    -2.1167140267    -0.0001832000
   21      O      -4.9659692099    -0.7983865327    -0.0007265248
   22      O       4.9659634576     0.7983954843     0.0003785163
   23      C       6.1424446863    -0.0051333125    -0.0010824920
   24      C      -6.1424189022     0.0051861718     0.0005068640
   25      H       4.4080275966    -1.8761575006     0.0003604348
   26      H      -4.4080349245     1.8761458653    -0.0006707911
   27      H       6.9758952936     0.6945600942    -0.0018117272
   28      H       6.1937054831    -0.6328888293    -0.8964012460
   29      H       6.1956800429    -0.6333121497     0.8938320884
   30      H      -6.9758943275    -0.6944774390     0.0011099000
   31      H      -6.1954727722     0.6333440373    -0.8944332078
   32      H      -6.1938101095     0.6329673755     0.8958015918
 ----------------------------------------------------------------

    9    -918.0702444600      2.52e-06  Convergence criterion met
 Total energy in the final basis set =     -918.0702444600
    5    -918.0910828472      3.10e-06  Convergence criterion met
 Total energy in the final basis set =     -918.0910828472

                    Orbital Energies (a.u.)
 --------------------------------------------------------------

 Alpha MOs
 -- Occupied --
-19.1746 -19.1746 -19.1280 -19.1279 -10.2810 -10.2810 -10.2621 -10.2620
-10.2245 -10.2245 -10.2092 -10.2092 -10.2001 -10.2001 -10.1990 -10.1990
-10.1955 -10.1955 -10.1935 -10.1935  -1.0898  -1.0898  -1.0640  -1.0623
 -0.8922  -0.8802  -0.8107  -0.7853  -0.7834  -0.7717  -0.7231  -0.7206
 -0.6705  -0.6702  -0.6241  -0.6236  -0.5878  -0.5650  -0.5617  -0.5341
 -0.5168  -0.5118  -0.4968  -0.4823  -0.4815  -0.4797  -0.4617  -0.4598
 -0.4523  -0.4521  -0.4487  -0.4315  -0.4303  -0.4193  -0.4182  -0.4000
 -0.3973  -0.3935  -0.3853  -0.3797  -0.3493  -0.3480  -0.3428  -0.3362
 -0.2872  -0.2857  -0.2786  -0.2751  -0.2551  -0.2456

          Ground-State Mulliken Net Atomic Charges

     Atom                 Charge (a.u.)
  ----------------------------------------
      1 C                     0.086850
      2 C                     0.120681
      3 C                    -0.815434
      4 C                     0.500011
      5 C                     0.754225
      6 C                    -0.451502
      7 C                    -0.566510
      8 C                     0.755120
      9 C                     0.499642
     10 C                    -0.567262
     11 C                    -0.451542
     12 C                    -0.815744
     13 C                     0.120019
     14 C                     0.086544
     15 O                    -0.308138
     16 O                    -0.308102
     17 H                     0.209559
     18 H                     0.204302
     19 H                     0.204317
     20 H                     0.209516
     21 O                    -0.197291
     22 O                    -0.197309
     23 C                    -0.373647
     24 C                    -0.373611
     25 H                     0.256850
     26 H                     0.256874
     27 H                     0.209772
     28 H                     0.185534
     29 H                     0.185491
     30 H                     0.209755
     31 H                     0.185556
     32 H                     0.185459
  ----------------------------------------
  Sum of atomic charges =    -0.000015

                    Cartesian Multipole Moments
 -----------------------------------------------------------------
    Charge (ESU x 10^10)
                -0.0001
    Dipole Moment (Debye)
         X      -0.0008      Y      -0.0006      Z       0.0000
       Tot       0.0010
    Quadrupole Moments (Debye-Ang)
        XX     -48.4667     XY     -22.1973     YY    -132.6956
        XZ      -0.0216     YZ      -0.0041     ZZ    -117.2715

 Total job time:  93.22s(wall), 718.35s(cpu)
        *  Thank you very much for using Q-Chem.  Have a nice day.  *
