 Gaussian 16, Revision A.03,
 Gaussian 16:  ES64L-G16RevA.03 25-Dec-2016

 ----------------------------------------------------------------
 #P UB3LYP/6-311++G(d,p) SCRF=(PCM,Solvent=n,n-DiMethylFormamide)
 ----------------------------------------------------------------

 -------
 Reduced
 -------
 Symbolic Z-matrix:
 Charge = -2 Multiplicity = 1

                         Standard orientation:
 ---------------------------------------------------------------------
 Center     Atomic      Atomic             Coordinates (Angstroms)
 Number     Number       Type             X           Y           Z
 ---------------------------------------------------------------------
      1          6           0        4.516726    0.448278    0.001128
      2          6           0        5.277482   -0.708366    0.000938
      3          6           0        4.653708   -1.972192   -0.000069
      4          6           0        3.099576    0.397406    0.000322
      5          6           0        2.469053   -0.884659   -0.000685
      6          6           0        3.261998   -2.037631   -0.000880
      7          6           0        2.322014    1.613399    0.000467
      8          6           0        0.932123    1.469561    0.000057
      9          6           0        0.201946    0.226086   -0.000456
     10          6           0        0.981503   -1.033476   -0.001379
     11          8           0        2.846548    2.813535    0.000766
     12          8           0        0.478679   -2.169905   -0.002628
     13          8           0        0.262201    2.669188    0.000526
     14          1           0        4.972919    1.432492    0.001914
     15          1           0        6.364433   -0.641011    0.001620
     16          1           0        5.249277   -2.881863   -0.000206
     17          1           0        2.743396   -2.991178   -0.001661
     18          1           0        1.035891    3.283633    0.001127
     19          7           0       -1.139943    0.338439   -0.000219
     20          7           0       -1.908941   -0.721540    0.000617
     21          6           0       -3.253521   -0.400100    0.000354
     22          6           0       -3.805323    0.914154   -0.002209
     23          6           0       -4.174156   -1.480824    0.002710
     24          6           0       -5.546499   -1.270024    0.002605
     25          6           0       -6.076428    0.029315    0.000094
     26          6           0       -5.179192    1.109005   -0.002291
     27          1           0       -3.113065    1.746874   -0.003987
     28          1           0       -3.759375   -2.483940    0.004651
     29          1           0       -6.217840   -2.126850    0.004525
     30          1           0       -7.150060    0.195296   -0.000020
     31          1           0       -5.568877    2.126108   -0.004294
 ---------------------------------------------------------------------

 SCF Done:  E(UB3LYP) =  -951.380214850     A.U. after   17 cycles

 The electronic state is 1-A.
 Alpha  occ. eigenvalues --  -19.11335 -19.06413 -19.03244 -14.31392 -14.29739
 Alpha  occ. eigenvalues --  -10.22037 -10.18591 -10.18175 -10.17357 -10.17114
 Alpha  occ. eigenvalues --  -10.16669 -10.16659 -10.16472 -10.16113 -10.16028
 Alpha  occ. eigenvalues --  -10.16009 -10.15824 -10.15805 -10.15576 -10.15538
 Alpha  occ. eigenvalues --  -10.15469  -1.02943  -0.99669  -0.97098  -0.93436
 Alpha  occ. eigenvalues --   -0.84605  -0.84068  -0.79741  -0.75816  -0.73552
 Alpha  occ. eigenvalues --   -0.73546  -0.71416  -0.67097  -0.64059  -0.60446
 Alpha  occ. eigenvalues --   -0.59326  -0.58222  -0.56059  -0.54364  -0.51527
 Alpha  occ. eigenvalues --   -0.50624  -0.48183  -0.46057  -0.45832  -0.44667
 Alpha  occ. eigenvalues --   -0.43450  -0.42670  -0.41765  -0.41353  -0.41196
 Alpha  occ. eigenvalues --   -0.40869  -0.39392  -0.38442  -0.37320  -0.36597
 Alpha  occ. eigenvalues --   -0.36482  -0.35813  -0.35248  -0.33657  -0.33213
 Alpha  occ. eigenvalues --   -0.33104  -0.32035  -0.31900  -0.30320  -0.26001
 Alpha  occ. eigenvalues --   -0.24869  -0.24483  -0.24351  -0.23600  -0.22004
 Alpha  occ. eigenvalues --   -0.19182  -0.18272  -0.12698
 Alpha virt. eigenvalues --   -0.06094  -0.01176  -0.00395  -0.00019   0.00385
 Alpha virt. eigenvalues --    0.01143   0.01265   0.01752   0.02137   0.03230
 Alpha virt. eigenvalues --    0.03457   0.03717   0.04399   0.05079   0.05287

  Beta  occ. eigenvalues --  -19.11335 -19.06413 -19.03244 -14.31392 -14.29739
  Beta  occ. eigenvalues --  -10.22037 -10.18591 -10.18175 -10.17357 -10.17114
  Beta  occ. eigenvalues --  -10.16669 -10.16659 -10.16472 -10.16113 -10.16028
  Beta  occ. eigenvalues --  -10.16009 -10.15824 -10.15805 -10.15576 -10.15538
  Beta  occ. eigenvalues --  -10.15469  -1.02943  -0.99669  -0.97098  -0.93436
  Beta  occ. eigenvalues --   -0.84605  -0.84068  -0.79741  -0.75816  -0.73552
  Beta  occ. eigenvalues --   -0.73546  -0.71416  -0.67097  -0.64059  -0.60446
  Beta  occ. eigenvalues --   -0.59326  -0.58222  -0.56059  -0.54364  -0.51527
  Beta  occ. eigenvalues --   -0.50624  -0.48183  -0.46057  -0.45832  -0.44667
  Beta  occ. eigenvalues --   -0.43450  -0.42670  -0.41765  -0.41353  -0.41196
  Beta  occ. eigenvalues --   -0.40869  -0.39392  -0.38442  -0.37320  -0.36597
  Beta  occ. eigenvalues --   -0.36482  -0.35813  -0.35248  -0.33657  -0.33213
  Beta  occ. eigenvalues --   -0.33104  -0.32035  -0.31900  -0.30320  -0.26001
  Beta  occ. eigenvalues --   -0.24869  -0.24483  -0.24351  -0.23600  -0.22004
  Beta  occ. eigenvalues --   -0.19182  -0.18272  -0.12698
  Beta virt. eigenvalues --   -0.06094  -0.01176  -0.00395  -0.00019   0.00385
  Beta virt. eigenvalues --    0.01143   0.01265   0.01752   0.02137   0.03230
  Beta virt. eigenvalues --    0.03457   0.03717   0.04399   0.05079   0.05287

 Mulliken charges and spin densities:
               1          2
     1  C   -0.016421   0.000000
     2  C   -0.276379  -0.000000
     3  C   -0.445920   0.000000
     4  C    0.514139  -0.000000
     5  C    0.553684   0.000000
     6  C    0.241041   0.000000
     7  C   -0.711401   0.000000
     8  C   -0.023689  -0.000000
     9  C    0.231845  -0.000000
    10  C   -1.024761  -0.000000
    11  O   -0.702411  -0.000000
    12  O   -0.415784   0.000000
    13  O   -0.346465   0.000000
    14  H    0.154560   0.000000
    15  H    0.172466  -0.000000
    16  H    0.166165   0.000000
    17  H    0.150450  -0.000000
    18  H    0.304001  -0.000000
    19  N   -0.212303   0.000000
    20  N   -0.034764  -0.000000
    21  C   -0.198726   0.000000
    22  C    0.054970  -0.000000
    23  C   -0.108256   0.000000
    24  C   -0.163468  -0.000000
    25  C   -0.405847   0.000000
    26  C   -0.322796  -0.000000
    27  H    0.171524  -0.000000
    28  H    0.158080   0.000000
    29  H    0.187086  -0.000000
    30  H    0.156347  -0.000000
    31  H    0.193034   0.000000
 Sum of Mulliken charges =  -2.00000  -0.00000

 Dipole moment (field-independent basis, Debye):
    X=             -4.8128    Y=             -4.2935    Z=              0.0023  Tot=              6.4496
 Quadrupole moment (field-independent basis, Debye-Ang):
   XX=           -183.1821   YY=           -167.9267   ZZ=           -134.2074
   XY=            -21.7616   XZ=              0.0005   YZ=             -0.0299

 Normal termination of Gaussian 16 at Thu Jan 25 05:51:13 2024.
