 Q-Chem 5.4, Q-Chem, Inc., Pleasanton, CA (2021)
 Q-Chem 5.4.0 for Intel X86 EM64T Linux

User input:
--------------------------------------------------------------
$molecule
0 1
C                  2.9641980000     -0.5844280000      0.4891650000
O                  1.7803700000      0.2326730000      0.5833350000
C                  0.5689100000     -0.2804640000      0.3042630000
C                 -0.3489360000      0.5174830000     -0.3242660000
O                  0.0427320000      1.7307000000     -0.7526280000
C                 -0.8528790000      2.8582860000     -0.6864950000
C                 -1.6994570000     -0.0089150000     -0.6593310000
O                 -2.4864240000      0.6268260000     -1.3446560000
C                 -2.0624720000     -1.3660190000     -0.1735580000
C                 -1.1813510000     -2.1280110000      0.4761270000
C                  0.1798090000     -1.6275110000      0.8016980000
O                  0.9312630000     -2.3009400000      1.4908800000
H                  2.9223380000     -1.2230520000     -0.3965350000
H                  3.7853870000      0.1237170000      0.3875600000
H                  3.0904610000     -1.1964310000      1.3796050000
H                 -0.2045710000      3.7326660000     -0.7223560000
H                 -1.4081840000      2.8548970000      0.2545930000
H                 -1.5467820000      2.8579460000     -1.5242880000
H                 -3.0684630000     -1.6914860000     -0.4122230000
H                 -1.4059510000     -3.1279390000      0.8291100000
$end

$rem
BASIS  =  6-311++G(d,p)
GUI  =  2
JOB_TYPE  =  SP
METHOD  =  B3LYP
SCF_CONVERGENCE  = 8
SOLVENT_METHOD = sm12
$end

$smx
solvent dimethylformamide
charges CM5
$end

--------------------------------------------------------------

             Standard Nuclear Orientation (Angstroms)
    I     Atom           X                Y                Z
 ----------------------------------------------------------------
    1      C       2.9641980000    -0.5844280000     0.4891650000
    2      O       1.7803700000     0.2326730000     0.5833350000
    3      C       0.5689100000    -0.2804640000     0.3042630000
    4      C      -0.3489360000     0.5174830000    -0.3242660000
    5      O       0.0427320000     1.7307000000    -0.7526280000
    6      C      -0.8528790000     2.8582860000    -0.6864950000
    7      C      -1.6994570000    -0.0089150000    -0.6593310000
    8      O      -2.4864240000     0.6268260000    -1.3446560000
    9      C      -2.0624720000    -1.3660190000    -0.1735580000
   10      C      -1.1813510000    -2.1280110000     0.4761270000
   11      C       0.1798090000    -1.6275110000     0.8016980000
   12      O       0.9312630000    -2.3009400000     1.4908800000
   13      H       2.9223380000    -1.2230520000    -0.3965350000
   14      H       3.7853870000     0.1237170000     0.3875600000
   15      H       3.0904610000    -1.1964310000     1.3796050000
   16      H      -0.2045710000     3.7326660000    -0.7223560000
   17      H      -1.4081840000     2.8548970000     0.2545930000
   18      H      -1.5467820000     2.8579460000    -1.5242880000
   19      H      -3.0684630000    -1.6914860000    -0.4122230000
   20      H      -1.4059510000    -3.1279390000     0.8291100000
 ----------------------------------------------------------------

   14    -610.6657706780      5.64e-09  Convergence criterion met
 Total energy in the final basis set =     -610.6777398314

                    Orbital Energies (a.u.)
 --------------------------------------------------------------

 Alpha MOs
 -- Occupied --
-19.1630 -19.1629 -19.1376 -19.1376 -10.2862 -10.2862 -10.2584 -10.2578
-10.2189 -10.2189 -10.2093 -10.2084  -1.0955  -1.0797  -1.0633  -1.0559
 -0.8583  -0.7931  -0.7310  -0.7010  -0.6931  -0.6231  -0.6019  -0.5462
 -0.5257  -0.5237  -0.4906  -0.4894  -0.4679  -0.4635  -0.4542  -0.4446
 -0.4330  -0.4175  -0.4174  -0.4110  -0.3747  -0.3642  -0.3351  -0.3287
 -0.3089  -0.2785  -0.2783  -0.2395

          Ground-State Mulliken Net Atomic Charges

     Atom                 Charge (a.u.)
  ----------------------------------------
      1 C                    -0.246995
      2 O                    -0.207443
      3 C                    -0.283694
      4 C                    -0.293637
      5 O                    -0.206375
      6 C                    -0.247310
      7 C                    -0.553550
      8 O                    -0.301405
      9 C                     0.704391
     10 C                     0.704084
     11 C                    -0.558742
     12 O                    -0.300970
     13 H                     0.183607
     14 H                     0.194789
     15 H                     0.179738
     16 H                     0.194802
     17 H                     0.183886
     18 H                     0.179871
     19 H                     0.337499
     20 H                     0.337456
  ----------------------------------------
  Sum of atomic charges =     0.000000

                    Cartesian Multipole Moments
 -----------------------------------------------------------------
    Charge (ESU x 10^10)
                 0.0000
    Dipole Moment (Debye)
         X      -0.2155      Y      -0.2332      Z       0.0163
       Tot       0.3180
    Quadrupole Moments (Debye-Ang)
        XX     -66.2293     XY       3.6743     YY     -64.7758
        XZ      -5.7846     YZ       4.1780     ZZ     -75.5181

 Total job time:  197.51s(wall), 1527.03s(cpu)
        *  Thank you very much for using Q-Chem.  Have a nice day.  *
