 Gaussian 16, Revision A.03,
 Gaussian 16:  ES64L-G16RevA.03 25-Dec-2016

 ----------------------------------------------------------------
 #P UB3LYP/6-311++G(d,p) SCRF=(PCM,Solvent=n,n-DiMethylFormamide)
 ----------------------------------------------------------------

 ------------------
 Quinone PCM in DMF
 ------------------
 Symbolic Z-matrix:
 Charge =  0 Multiplicity = 1

                         Standard orientation:
 ---------------------------------------------------------------------
 Center     Atomic      Atomic             Coordinates (Angstroms)
 Number     Number       Type             X           Y           Z
 ---------------------------------------------------------------------
      1          6           0       -1.676248   -1.044519   -0.000006
      2          6           0       -2.853966   -0.285426    0.000259
      3          6           0       -2.840988    1.105452    0.000265
      4          6           0       -0.442727   -0.349096   -0.000133
      5          6           0       -0.438025    1.063785   -0.000154
      6          6           0       -1.629575    1.784860    0.000026
      7          6           0        0.862112   -1.073617   -0.000116
      8          6           0        2.136895   -0.278708    0.000124
      9          6           0        2.101447    1.064567   -0.000074
     10          6           0        0.845381    1.830905   -0.000164
     11          8           0        0.937682   -2.293685   -0.000275
     12          8           0        0.863371    3.053168   -0.000164
     13          6           0       -1.801925   -2.547872   -0.000139
     14          1           0       -3.804685   -0.807602    0.000426
     15          6           0        3.411036   -1.067270    0.000403
     16          1           0        3.008832    1.660164   -0.000053
     17          1           0       -1.581531    2.866458    0.000032
     18          1           0       -3.775543    1.655089    0.000465
     19          1           0       -2.856527   -2.830554   -0.000006
     20          1           0       -1.316740   -2.993168    0.870548
     21          1           0       -1.317047   -2.992955   -0.871108
     22          1           0        3.457685   -1.722398    0.874489
     23          1           0        4.278687   -0.406629    0.000452
     24          1           0        3.457948   -1.722637   -0.873486
 ---------------------------------------------------------------------

 SCF Done:  E(UB3LYP) =  -613.922833712     A.U. after   14 cycles

 The electronic state is 1-A.
 Alpha  occ. eigenvalues --  -19.13386 -19.13260 -10.28354 -10.28110 -10.22001
 Alpha  occ. eigenvalues --  -10.21273 -10.20944 -10.20707 -10.20119 -10.19694
 Alpha  occ. eigenvalues --  -10.19458 -10.19365 -10.17770 -10.17002  -1.06824
 Alpha  occ. eigenvalues --   -1.06494  -0.89074  -0.84762  -0.79670  -0.78487
 Alpha  occ. eigenvalues --   -0.73011  -0.71156  -0.67438  -0.64200  -0.62051
 Alpha  occ. eigenvalues --   -0.57078  -0.54369  -0.52796  -0.50196  -0.47844
 Alpha  occ. eigenvalues --   -0.46550  -0.46206  -0.46020  -0.43101  -0.42843
 Alpha  occ. eigenvalues --   -0.42835  -0.42561  -0.41560  -0.39938  -0.39865
 Alpha  occ. eigenvalues --   -0.39026  -0.37750  -0.37055  -0.36723  -0.29857
 Alpha  occ. eigenvalues --   -0.28587  -0.27812  -0.27303  -0.26923
 Alpha virt. eigenvalues --   -0.12400  -0.05311  -0.03232  -0.00764   0.00326
 Alpha virt. eigenvalues --    0.00798   0.02091   0.02114   0.02380   0.02879
 Alpha virt. eigenvalues --    0.03697   0.04533   0.05001   0.05142   0.05407

  Beta  occ. eigenvalues --  -19.13386 -19.13260 -10.28354 -10.28110 -10.22001
  Beta  occ. eigenvalues --  -10.21273 -10.20944 -10.20707 -10.20119 -10.19694
  Beta  occ. eigenvalues --  -10.19458 -10.19365 -10.17770 -10.17002  -1.06824
  Beta  occ. eigenvalues --   -1.06494  -0.89074  -0.84762  -0.79670  -0.78487
  Beta  occ. eigenvalues --   -0.73011  -0.71156  -0.67438  -0.64200  -0.62051
  Beta  occ. eigenvalues --   -0.57078  -0.54369  -0.52796  -0.50196  -0.47844
  Beta  occ. eigenvalues --   -0.46550  -0.46206  -0.46020  -0.43101  -0.42843
  Beta  occ. eigenvalues --   -0.42835  -0.42561  -0.41560  -0.39938  -0.39865
  Beta  occ. eigenvalues --   -0.39026  -0.37750  -0.37055  -0.36723  -0.29857
  Beta  occ. eigenvalues --   -0.28587  -0.27812  -0.27303  -0.26923
  Beta virt. eigenvalues --   -0.12400  -0.05311  -0.03232  -0.00764   0.00326
  Beta virt. eigenvalues --    0.00798   0.02091   0.02114   0.02380   0.02879
  Beta virt. eigenvalues --    0.03697   0.04533   0.05001   0.05142   0.05407

 Mulliken charges and spin densities:
               1          2
     1  C    0.623014   0.000000
     2  C   -0.511444  -0.000000
     3  C   -0.330229   0.000000
     4  C    0.573354  -0.000000
     5  C    0.659559  -0.000000
     6  C   -0.053153  -0.000000
     7  C   -0.858501  -0.000000
     8  C    0.596754   0.000000
     9  C   -0.455933  -0.000000
    10  C   -0.790030   0.000000
    11  O   -0.237509   0.000000
    12  O   -0.297350  -0.000000
    13  C   -0.460284  -0.000000
    14  H    0.150744   0.000000
    15  C   -0.276688   0.000000
    16  H    0.197973  -0.000000
    17  H    0.179699  -0.000000
    18  H    0.219251   0.000000
    19  H    0.165530   0.000000
    20  H    0.172558  -0.000000
    21  H    0.172581  -0.000000
    22  H    0.191612  -0.000000
    23  H    0.176901   0.000000
    24  H    0.191590  -0.000000
 Sum of Mulliken charges =  -0.00000   0.00000

 Dipole moment (field-independent basis, Debye):
    X=             -1.4694    Y=             -1.6761    Z=              0.0010  Tot=              2.2290
 Quadrupole moment (field-independent basis, Debye-Ang):
   XX=            -63.2088   YY=            -98.1208   ZZ=            -82.7428
   XY=             -1.6144   XZ=              0.0000   YZ=             -0.0004

 Normal termination of Gaussian 16 at Sun Jan 21 07:57:47 2024.
