 Q-Chem 5.4, Q-Chem, Inc., Pleasanton, CA (2021)
 Q-Chem 5.4.0 for Intel X86 EM64T Linux

User input:
--------------------------------------------------------------
$molecule
-2 1
C                 -4.8490740000     -0.2079160000     -0.4454960000
C                 -3.9489750000     -0.5184250000      0.7667940000
C                 -2.5360040000      0.0020130000      0.6601280000
C                 -2.2601290000      1.3924760000      0.8324130000
C                 -0.9676220000      1.8647770000      0.7641600000
C                  0.1388580000      1.0129220000      0.5191960000
C                  1.4716510000      1.5760000000      0.4514730000
O                  1.7079060000      2.8247790000      0.5993260000
C                  2.5294070000      0.6090830000      0.2079820000
C                  3.8710960000      1.0573000000      0.1263560000
C                  4.9227290000      0.1922660000     -0.1001700000
C                  4.6678000000     -1.1972450000     -0.2599680000
C                  3.3710780000     -1.6650540000     -0.1840890000
C                  2.2706750000     -0.8039060000      0.0479800000
C                  0.9319140000     -1.3666190000      0.1152890000
O                  0.7076070000     -2.6155760000     -0.0278530000
C                 -0.1249520000     -0.3980890000      0.3541260000
C                 -1.4665090000     -0.8452240000      0.4289340000
H                 -4.4446230000     -0.6600840000     -1.3567010000
H                 -5.8665780000     -0.5950320000     -0.2938500000
H                 -4.9252740000      0.8713950000     -0.6154950000
H                 -4.4335730000     -0.0985890000      1.6638330000
H                 -3.9208580000     -1.6050540000      0.9121780000
H                 -3.0818890000      2.0806400000      1.0245500000
H                 -0.7474640000      2.9192700000      0.8985940000
H                  4.0322190000      2.1234000000      0.2527400000
H                  5.9418490000      0.5703090000     -0.1575360000
H                  5.4906440000     -1.8864910000     -0.4400690000
H                  3.1429920000     -2.7199580000     -0.3010450000
H                 -1.6248990000     -1.9133660000      0.3079200000
$end
$rem
MAX_SCF_CYCLES=200
BASIS  =  6-311++G(d,p)
GUI  =  2
JOB_TYPE  =  SP
METHOD  =  B3LYP
SOLVENT_METHOD = COSMO
$end
$solvent
dielectric 37.219
opticaldielectric 1.43
$end

--------------------------------------------------------------

             Standard Nuclear Orientation (Angstroms)
    I     Atom           X                Y                Z
 ----------------------------------------------------------------
    1      C      -5.2590558461     0.5210451916     0.9021276358
    2      C      -4.4140326980     0.6131316624    -0.3838338932
    3      C      -3.0104325122     0.0708636835    -0.2631178968
    4      C      -2.7771872904    -1.3375778884    -0.2304759565
    5      C      -1.4946403494    -1.8343961928    -0.1495687990
    6      C      -0.3570057662    -0.9904192610    -0.0908083820
    7      C       0.9635498646    -1.5782464174     0.0017793054
    8      O       1.1618838081    -2.8417524936     0.0384121850
    9      C       2.0552351455    -0.6193168510     0.0435098913
   10      C       3.3881421281    -1.0918494476     0.1316153763
   11      C       4.4704030139    -0.2359546787     0.1726682218
   12      C       4.2574182185     1.1689675187     0.1268849150
   13      C       2.9701699441     1.6603115794     0.0393422254
   14      C       1.8390293686     0.8089445435    -0.0055334868
   15      C       0.5125271579     1.3966633415    -0.0973808420
   16      O       0.3258891846     2.6592443536    -0.1392413835
   17      C      -0.5780736257     0.4368272106    -0.1343098041
   18      C      -1.9105309717     0.9093339043    -0.2155254104
   19      H      -4.7983773113     1.0947575101     1.7126586511
   20      H      -6.2732892156     0.9122381421     0.7394363808
   21      H      -5.3525711114    -0.5164106148     1.2405928180
   22      H      -4.9532391807     0.0760590065    -1.1816971568
   23      H      -4.3671072444     1.6631137608    -0.6969237389
   24      H      -3.6239377104    -2.0207719997    -0.2755907852
   25      H      -1.3070193724    -2.9034493828    -0.1290461705
   26      H       3.5169467779    -2.1692648473     0.1646027266
   27      H       5.4817127755    -0.6327143643     0.2408390391
   28      H       5.1046698910     1.8513479001     0.1599043865
   29      H       2.7737616343     2.7273374636     0.0018733465
   30      H      -2.0368285632     1.9878551547    -0.2542545118
 ----------------------------------------------------------------

   17    -767.5828676177      3.50e-06  Convergence criterion met
 Total energy in the final basis set =     -767.5828676177
    6    -767.8508480174      3.68e-06  Convergence criterion met
 Total energy in the final basis set =     -767.8508480174

                    Orbital Energies (a.u.)
 --------------------------------------------------------------

 Alpha MOs
 -- Occupied --
-19.0262 -19.0260 -10.1770 -10.1765 -10.1576 -10.1545 -10.1498 -10.1492
-10.1488 -10.1471 -10.1467 -10.1466 -10.1464 -10.1423 -10.1373 -10.1369
-10.1367 -10.1362  -0.9490  -0.9459  -0.8317  -0.8240  -0.7718  -0.7412
 -0.7239  -0.7189  -0.6996  -0.6388  -0.6189  -0.6004  -0.5715  -0.5587
 -0.5259  -0.5039  -0.4891  -0.4491  -0.4410  -0.4333  -0.4265  -0.4120
 -0.4017  -0.3978  -0.3932  -0.3833  -0.3750  -0.3721  -0.3695  -0.3598
 -0.3411  -0.3356  -0.3324  -0.3309  -0.3146  -0.3118  -0.3006  -0.2996
 -0.2356  -0.2293  -0.2268  -0.2140  -0.2093  -0.2009  -0.1074

          Ground-State Mulliken Net Atomic Charges

     Atom                 Charge (a.u.)
  ----------------------------------------
      1 C                    -0.660858
      2 C                    -0.175658
      3 C                     0.636881
      4 C                    -0.540973
      5 C                    -0.037486
      6 C                     0.144453
      7 C                    -0.568806
      8 O                    -0.694190
      9 C                     0.172328
     10 C                     0.025145
     11 C                    -0.530156
     12 C                    -0.526064
     13 C                    -0.024873
     14 C                     0.341463
     15 C                    -0.507231
     16 O                    -0.690268
     17 C                     0.127616
     18 C                    -0.387658
     19 H                     0.142159
     20 H                     0.145741
     21 H                     0.148184
     22 H                     0.143950
     23 H                     0.174020
     24 H                     0.181290
     25 H                     0.158479
     26 H                     0.156242
     27 H                     0.176714
     28 H                     0.178476
     29 H                     0.153117
     30 H                     0.137963
  ----------------------------------------
  Sum of atomic charges =    -2.000001

                    Cartesian Multipole Moments
 -----------------------------------------------------------------
    Charge (ESU x 10^10)
                -9.6064
    Dipole Moment (Debye)
         X      -7.6937      Y       0.9081      Z       0.3655
       Tot       7.7558
    Quadrupole Moments (Debye-Ang)
        XX    -133.7996     XY       6.6123     YY    -168.1548
        XZ       0.2711     YZ       1.4965     ZZ    -119.3711

 Total job time:  109.27s(wall), 846.77s(cpu)
        *  Thank you very much for using Q-Chem.  Have a nice day.  *
