 Q-Chem 5.4, Q-Chem, Inc., Pleasanton, CA (2021)
 Q-Chem 5.4.0 for Intel X86 EM64T Linux

User input:
--------------------------------------------------------------
$molecule
0 1
C                 -0.5633810000     -1.1483750000      2.4870270000
C                 -0.4787080000     -1.9503900000      1.2419870000
C                  0.1014340000     -1.4720530000      0.1364800000
C                  0.6712660000     -0.1085850000      0.0984480000
C                  0.5697120000      0.7423070000      1.3414050000
C                 -0.0695400000      0.2620300000      2.4225340000
O                 -0.9796270000     -1.6421930000      3.5167960000
O                  1.1933720000      0.3326030000     -0.9081440000
S                 -0.4039980000      1.3407320000      3.8692160000
C                  0.6545030000      0.7187030000      5.1778520000
C                  0.1125190000     -0.1315280000      6.1390240000
C                  1.9888080000      1.1245010000      5.2080940000
C                  2.8018120000      0.6533960000      6.2354870000
C                  0.9382620000     -0.5860740000      7.1638150000
C                  2.2769360000     -0.1961890000      7.2098580000
O                  0.0871370000      2.6653520000      3.4697920000
O                 -1.8053610000      1.1523550000      4.2364570000
H                 -0.8912050000     -2.9511500000      1.3050890000
H                  0.1917050000     -2.0465960000     -0.7785180000
H                 -0.9271650000     -0.4236070000      6.0756520000
H                  2.3763390000      1.7933950000      4.4494420000
H                  3.8411660000      0.9567200000      6.2780190000
H                  0.5354060000     -1.2435600000      7.9251310000
H                  2.9145870000     -0.5556060000      8.0096380000
C                  1.3378690000      2.0666750000      1.2384830000
C                  0.6841940000      3.2174280000      0.5332340000
O                  2.4782800000      2.0539630000      1.6362750000
H                 -0.3096940000      3.4046960000      0.9420980000
H                  0.5851500000      2.9623680000     -0.5268660000
H                  1.3068130000      4.1056040000      0.6370160000
$end

$rem
BASIS  =  6-311++G(d,p)
GUI  =  2
JOB_TYPE  =  SP
METHOD  =  B3LYP
SCF_CONVERGENCE  = 8
SOLVENT_METHOD = sm12
$end

$smx
solvent dimethylformamide
charges CM5
$end

--------------------------------------------------------------

             Standard Nuclear Orientation (Angstroms)
    I     Atom           X                Y                Z
 ----------------------------------------------------------------
    1      C      -0.5633810000    -1.1483750000     2.4870270000
    2      C      -0.4787080000    -1.9503900000     1.2419870000
    3      C       0.1014340000    -1.4720530000     0.1364800000
    4      C       0.6712660000    -0.1085850000     0.0984480000
    5      C       0.5697120000     0.7423070000     1.3414050000
    6      C      -0.0695400000     0.2620300000     2.4225340000
    7      O      -0.9796270000    -1.6421930000     3.5167960000
    8      O       1.1933720000     0.3326030000    -0.9081440000
    9      S      -0.4039980000     1.3407320000     3.8692160000
   10      C       0.6545030000     0.7187030000     5.1778520000
   11      C       0.1125190000    -0.1315280000     6.1390240000
   12      C       1.9888080000     1.1245010000     5.2080940000
   13      C       2.8018120000     0.6533960000     6.2354870000
   14      C       0.9382620000    -0.5860740000     7.1638150000
   15      C       2.2769360000    -0.1961890000     7.2098580000
   16      O       0.0871370000     2.6653520000     3.4697920000
   17      O      -1.8053610000     1.1523550000     4.2364570000
   18      H      -0.8912050000    -2.9511500000     1.3050890000
   19      H       0.1917050000    -2.0465960000    -0.7785180000
   20      H      -0.9271650000    -0.4236070000     6.0756520000
   21      H       2.3763390000     1.7933950000     4.4494420000
   22      H       3.8411660000     0.9567200000     6.2780190000
   23      H       0.5354060000    -1.2435600000     7.9251310000
   24      H       2.9145870000    -0.5556060000     8.0096380000
   25      C       1.3378690000     2.0666750000     1.2384830000
   26      C       0.6841940000     3.2174280000     0.5332340000
   27      O       2.4782800000     2.0539630000     1.6362750000
   28      H      -0.3096940000     3.4046960000     0.9420980000
   29      H       0.5851500000     2.9623680000    -0.5268660000
   30      H       1.3068130000     4.1056040000     0.6370160000
 ----------------------------------------------------------------

   16   -1313.9764394009      7.78e-09  Convergence criterion met
 Total energy in the final basis set =    -1314.0066764234

                    Orbital Energies (a.u.)
 --------------------------------------------------------------

 Alpha MOs
 -- Occupied --
-89.0721 -19.1589 -19.1543 -19.1395 -19.1355 -19.1353 -10.3070 -10.3052
-10.2965 -10.2560 -10.2521 -10.2261 -10.2228 -10.2214 -10.2049 -10.2035
-10.1973 -10.1952 -10.1948 -10.1774  -8.1360  -6.0985  -6.0980  -6.0970
 -1.1328  -1.0925  -1.0872  -1.0755  -1.0287  -0.8898  -0.8863  -0.8255
 -0.7942  -0.7736  -0.7655  -0.7329  -0.7003  -0.6631  -0.6399  -0.6324
 -0.5993  -0.5749  -0.5574  -0.5454  -0.5258  -0.5076  -0.4971  -0.4933
 -0.4899  -0.4767  -0.4718  -0.4654  -0.4632  -0.4581  -0.4535  -0.4470
 -0.4378  -0.4363  -0.4312  -0.4035  -0.3969  -0.3890  -0.3822  -0.3702
 -0.3592  -0.3488  -0.3362  -0.3295  -0.3252  -0.3173  -0.3072  -0.3010
 -0.2838  -0.2785  -0.2726

          Ground-State Mulliken Net Atomic Charges

     Atom                 Charge (a.u.)
  ----------------------------------------
      1 C                    -0.612255
      2 C                     1.176423
      3 C                     1.005436
      4 C                    -0.749232
      5 C                     0.562138
      6 C                    -0.592847
      7 O                    -0.262997
      8 O                    -0.252865
      9 S                    -0.409981
     10 C                    -0.095239
     11 C                    -0.364834
     12 C                    -0.621665
     13 C                    -0.154124
     14 C                    -0.032268
     15 C                     0.340840
     16 O                    -0.105366
     17 O                    -0.175633
     18 H                     0.394925
     19 H                     0.397121
     20 H                     0.229750
     21 H                     0.203193
     22 H                     0.303061
     23 H                     0.308229
     24 H                     0.318242
     25 C                    -0.715577
     26 C                    -0.475943
     27 O                    -0.255096
     28 H                     0.217720
     29 H                     0.241707
     30 H                     0.177139
  ----------------------------------------
  Sum of atomic charges =     0.000000

                    Cartesian Multipole Moments
 -----------------------------------------------------------------
    Charge (ESU x 10^10)
                 0.0000
    Dipole Moment (Debye)
         X       1.1329      Y      -4.2181      Z      -0.1269
       Tot       4.3695
    Quadrupole Moments (Debye-Ang)
        XX    -129.1505     XY      -0.7552     YY    -121.8870
        XZ      22.3574     YZ     -12.7639     ZZ    -107.5076

 Total job time:  858.82s(wall), 6518.24s(cpu)
        *  Thank you very much for using Q-Chem.  Have a nice day.  *
