 Gaussian 16, Revision A.03,
 Gaussian 16:  ES64L-G16RevA.03 25-Dec-2016

 ----------------------------------------------------------------
 #P UB3LYP/6-311++G(d,p) SCRF=(PCM,Solvent=n,n-DiMethylFormamide)
 ----------------------------------------------------------------

 ------------------
 Quinone PCM in DMF
 ------------------
 Symbolic Z-matrix:
 Charge =  0 Multiplicity = 1

                         Standard orientation:
 ---------------------------------------------------------------------
 Center     Atomic      Atomic             Coordinates (Angstroms)
 Number     Number       Type             X           Y           Z
 ---------------------------------------------------------------------
      1          6           0       -1.385887   -0.506969   -0.008820
      2          6           0       -2.328623    0.577971   -0.000910
      3          6           0       -1.867302    1.933140   -0.008641
      4          6           0       -0.515134    2.170068   -0.015258
      5          6           0        0.430361    1.123919   -0.019301
      6          6           0        0.026233   -0.213579   -0.022218
      7          6           0        1.073296   -1.281880   -0.051080
      8          6           0        2.514588   -0.869174   -0.008594
      9          6           0        2.899574    0.477202    0.007014
     10          6           0        1.867525    1.541832   -0.013599
     11          6           0        3.496703   -1.864936    0.007679
     12          6           0        4.842426   -1.518240    0.043271
     13          6           0        5.223144   -0.173243    0.058573
     14          6           0        4.254220    0.822260    0.039014
     15          8           0        0.813707   -2.475746   -0.110240
     16          8           0        2.177985    2.723334   -0.019053
     17          1           0       -0.132602    3.182918   -0.017495
     18          1           0        3.183265   -2.900839   -0.008050
     19          1           0        4.520960    1.871700    0.047910
     20          6           0       -2.831134    3.092233   -0.007320
     21          1           0        6.273615    0.093242    0.085020
     22          6           0       -3.719001    0.291775    0.015470
     23          6           0       -1.917988   -1.828332    0.005366
     24          6           0       -3.271923   -2.056613    0.023212
     25          6           0       -4.208042   -0.995282    0.026995
     26          6           0       -5.686478   -1.286450    0.044120
     27          1           0        5.598618   -2.295015    0.058334
     28          1           0       -3.486141    3.071420   -0.883851
     29          1           0       -2.289212    4.038428   -0.015438
     30          1           0       -3.474174    3.079846    0.878208
     31          1           0       -4.420375    1.116608    0.020437
     32          1           0       -1.236039   -2.661581   -0.000650
     33          1           0       -3.632437   -3.080616    0.034683
     34          1           0       -6.276124   -0.367886    0.049829
     35          1           0       -5.961246   -1.870826    0.927983
     36          1           0       -5.981002   -1.872304   -0.832416
 ---------------------------------------------------------------------

 SCF Done:  E(UB3LYP) =  -921.290422057     A.U. after   15 cycles

 The electronic state is 1-A.
 Alpha  occ. eigenvalues --  -19.13174 -19.12872 -10.28450 -10.28246 -10.21367
 Alpha  occ. eigenvalues --  -10.20954 -10.20792 -10.20767 -10.20767 -10.20616
 Alpha  occ. eigenvalues --  -10.20306 -10.19833 -10.19786 -10.19742 -10.19735
 Alpha  occ. eigenvalues --  -10.19623 -10.18714 -10.18413 -10.18265 -10.18105
 Alpha  occ. eigenvalues --  -10.17487 -10.17147  -1.06687  -1.06473  -0.90003
 Alpha  occ. eigenvalues --   -0.88777  -0.85333  -0.82091  -0.79450  -0.77781
 Alpha  occ. eigenvalues --   -0.77626  -0.75110  -0.72341  -0.70431  -0.67995
 Alpha  occ. eigenvalues --   -0.64981  -0.63945  -0.62558  -0.60532  -0.58593
 Alpha  occ. eigenvalues --   -0.55792  -0.54571  -0.52184  -0.50835  -0.50039
 Alpha  occ. eigenvalues --   -0.48155  -0.47158  -0.46179  -0.45874  -0.45742
 Alpha  occ. eigenvalues --   -0.45303  -0.45168  -0.43672  -0.43557  -0.42887
 Alpha  occ. eigenvalues --   -0.42603  -0.41965  -0.41498  -0.40041  -0.39186
 Alpha  occ. eigenvalues --   -0.39066  -0.38709  -0.37724  -0.37420  -0.36924
 Alpha  occ. eigenvalues --   -0.35645  -0.35081  -0.33514  -0.29624  -0.28612
 Alpha  occ. eigenvalues --   -0.28410  -0.27833  -0.27059  -0.26132  -0.23809
 Alpha virt. eigenvalues --   -0.12247  -0.07050  -0.05241  -0.03196  -0.00882
 Alpha virt. eigenvalues --   -0.00752  -0.00211   0.00496   0.01220   0.01565
 Alpha virt. eigenvalues --    0.01932   0.02633   0.02859   0.03270   0.03410

  Beta  occ. eigenvalues --  -19.13174 -19.12872 -10.28450 -10.28246 -10.21367
  Beta  occ. eigenvalues --  -10.20954 -10.20792 -10.20767 -10.20767 -10.20616
  Beta  occ. eigenvalues --  -10.20306 -10.19833 -10.19786 -10.19742 -10.19735
  Beta  occ. eigenvalues --  -10.19623 -10.18714 -10.18413 -10.18265 -10.18105
  Beta  occ. eigenvalues --  -10.17487 -10.17147  -1.06687  -1.06473  -0.90003
  Beta  occ. eigenvalues --   -0.88777  -0.85333  -0.82091  -0.79450  -0.77781
  Beta  occ. eigenvalues --   -0.77626  -0.75110  -0.72341  -0.70431  -0.67995
  Beta  occ. eigenvalues --   -0.64981  -0.63945  -0.62558  -0.60532  -0.58593
  Beta  occ. eigenvalues --   -0.55792  -0.54571  -0.52184  -0.50835  -0.50039
  Beta  occ. eigenvalues --   -0.48155  -0.47158  -0.46179  -0.45874  -0.45742
  Beta  occ. eigenvalues --   -0.45303  -0.45168  -0.43672  -0.43557  -0.42887
  Beta  occ. eigenvalues --   -0.42603  -0.41965  -0.41498  -0.40041  -0.39186
  Beta  occ. eigenvalues --   -0.39066  -0.38709  -0.37724  -0.37420  -0.36924
  Beta  occ. eigenvalues --   -0.35645  -0.35081  -0.33514  -0.29624  -0.28612
  Beta  occ. eigenvalues --   -0.28410  -0.27833  -0.27059  -0.26132  -0.23809
  Beta virt. eigenvalues --   -0.12247  -0.07050  -0.05241  -0.03196  -0.00882
  Beta virt. eigenvalues --   -0.00752  -0.00211   0.00496   0.01220   0.01565
  Beta virt. eigenvalues --    0.01932   0.02633   0.02859   0.03270   0.03410

 Mulliken charges and spin densities:
               1          2
     1  C    0.812583   0.000000
     2  C    0.210998   0.000000
     3  C    0.520056   0.000000
     4  C   -0.135399   0.000000
     5  C    0.199569  -0.000000
     6  C    0.736851   0.000000
     7  C   -1.100046  -0.000000
     8  C    0.097456  -0.000000
     9  C    0.134516  -0.000000
    10  C   -0.721396  -0.000000
    11  C    0.101007   0.000000
    12  C   -0.451891  -0.000000
    13  C   -0.349822   0.000000
    14  C    0.118122   0.000000
    15  O   -0.232288   0.000000
    16  O   -0.260927   0.000000
    17  H    0.126582  -0.000000
    18  H    0.185177   0.000000
    19  H    0.186515  -0.000000
    20  C   -0.354847   0.000000
    21  H    0.206740   0.000000
    22  C   -0.791802   0.000000
    23  C   -0.521697  -0.000000
    24  C   -0.467292   0.000000
    25  C    0.303917  -0.000000
    26  C   -0.261129   0.000000
    27  H    0.207417   0.000000
    28  H    0.178473  -0.000000
    29  H    0.192454   0.000000
    30  H    0.176972  -0.000000
    31  H    0.081611  -0.000000
    32  H    0.147927  -0.000000
    33  H    0.210335   0.000000
    34  H    0.173022   0.000000
    35  H    0.169324   0.000000
    36  H    0.170913  -0.000000
 Sum of Mulliken charges =  -0.00000   0.00000

 Dipole moment (field-independent basis, Debye):
    X=             -2.2682    Y=             -0.1988    Z=              0.2497  Tot=              2.2905
 Quadrupole moment (field-independent basis, Debye-Ang):
   XX=            -87.9503   YY=           -131.4227   ZZ=           -131.5154
   XY=             -9.6506   XZ=              0.3479   YZ=             -0.4979

 Normal termination of Gaussian 16 at Sun Jan 14 01:11:40 2024.
