 Q-Chem 5.4, Q-Chem, Inc., Pleasanton, CA (2021)
 Q-Chem 5.4.0 for Intel X86 EM64T Linux

User input:
--------------------------------------------------------------
$molecule
-2 1
C                 -1.7894770000      2.7982670000     -0.7363230000
C                 -2.9009600000      2.0042240000     -0.5225050000
C                 -2.7325970000      0.6324350000     -0.1747330000
C                 -0.4640430000      2.3129230000     -0.6147360000
C                 -0.3026750000      0.9276690000     -0.1858950000
C                 -1.4601330000      0.1204860000     -0.0179900000
C                  0.6542900000      3.2037620000     -0.8905600000
C                  2.0312630000      2.6358990000     -0.7068030000
C                  2.1038900000      1.2704800000     -0.2576470000
C                  1.0063570000      0.4600130000      0.0007470000
O                  0.4809500000      4.4025170000     -1.2668260000
O                  3.0770330000      3.3242810000     -0.9149960000
H                 -1.8945500000      3.8422480000     -1.0177260000
H                 -3.9022210000      2.4164650000     -0.6363130000
H                 -3.6019980000     -0.0099800000     -0.0404550000
H                 -1.3203490000     -0.9231660000      0.2497970000
H                  3.1069780000      0.8878200000     -0.0640540000
O                  1.1898400000     -0.8734060000      0.4265620000
H                  2.0003500000     -1.1945670000      0.0058920000
$end
$rem
MAX_SCF_CYCLES=200
BASIS  =  6-311++G(d,p)
GUI  =  2
JOB_TYPE  =  SP
METHOD  =  B3LYP
SOLVENT_METHOD = COSMO
$end
$solvent
dielectric 37.219
opticaldielectric 1.43
$end

--------------------------------------------------------------

             Standard Nuclear Orientation (Angstroms)
    I     Atom           X                Y                Z
 ----------------------------------------------------------------
    1      C      -1.3638218725    -1.6997108682    -0.0412834333
    2      C      -2.6993939379    -1.3424409616    -0.0263718850
    3      C      -3.0614904322     0.0344019932     0.0390966642
    4      C      -0.3140744693    -0.7490026593    -0.0052032957
    5      C      -0.6953752178     0.6593345647    -0.0135028063
    6      C      -2.0738671779     0.9989392419     0.0487393463
    7      C       1.0681425424    -1.2067640633     0.0112991667
    8      C       2.1305962573    -0.1468202257     0.0122098596
    9      C       1.6717527992     1.2168775668    -0.0220808202
   10      C       0.3389911581     1.6060123474    -0.0449595004
   11      O       1.3672628393    -2.4392509234     0.0231142521
   12      O       3.3671485060    -0.4326418528     0.0218809309
   13      H      -1.0651627452    -2.7436449933    -0.0748777810
   14      H      -3.4741330863    -2.1071763959    -0.0458002263
   15      H      -4.1104760727     0.3238420841     0.0884856525
   16      H      -2.3387828319     2.0515948655     0.0955877761
   17      H       2.4508300536     1.9776949798    -0.0875633125
   18      O      -0.0031240015     2.9755159011    -0.0651557666
   19      H       0.6786680353     3.4437428453     0.4377927837
 ----------------------------------------------------------------

   13    -610.4664152393      5.94e-06  Convergence criterion met
 Total energy in the final basis set =     -610.4664152393
    6    -610.7698572944      6.69e-06  Convergence criterion met
 Total energy in the final basis set =     -610.7698572944

                    Orbital Energies (a.u.)
 --------------------------------------------------------------

 Alpha MOs
 -- Occupied --
-19.1258 -19.0288 -19.0252 -10.1880 -10.1760 -10.1709 -10.1506 -10.1467
-10.1462 -10.1441 -10.1437 -10.1357 -10.1279  -1.0239  -0.9609  -0.9342
 -0.8282  -0.7666  -0.7257  -0.6948  -0.6460  -0.5907  -0.5628  -0.5518
 -0.4952  -0.4795  -0.4695  -0.4220  -0.4147  -0.4006  -0.3951  -0.3876
 -0.3752  -0.3650  -0.3541  -0.3419  -0.3344  -0.3171  -0.3092  -0.2938
 -0.2550  -0.2315  -0.2209  -0.1911  -0.1899  -0.1147

          Ground-State Mulliken Net Atomic Charges

     Atom                 Charge (a.u.)
  ----------------------------------------
      1 C                     0.067966
      2 C                    -0.429745
      3 C                    -0.396608
      4 C                     0.137382
      5 C                    -0.075670
      6 C                     0.060485
      7 C                    -0.357470
      8 C                    -0.139242
      9 C                     0.323263
     10 C                    -0.460559
     11 O                    -0.724996
     12 O                    -0.732377
     13 H                     0.148545
     14 H                     0.174267
     15 H                     0.176495
     16 H                     0.169062
     17 H                     0.149397
     18 O                    -0.393218
     19 H                     0.303021
  ----------------------------------------
  Sum of atomic charges =    -2.000000

                    Cartesian Multipole Moments
 -----------------------------------------------------------------
    Charge (ESU x 10^10)
                -9.6064
    Dipole Moment (Debye)
         X     -13.1024      Y       9.3014      Z       0.8817
       Tot      16.0925
    Quadrupole Moments (Debye-Ang)
        XX    -136.3075     XY      22.0296     YY    -106.9814
        XZ       0.0145     YZ       4.2061     ZZ     -85.7884

 Total job time:  35.74s(wall), 260.18s(cpu)
        *  Thank you very much for using Q-Chem.  Have a nice day.  *
