 Gaussian 16, Revision A.03,
 Gaussian 16:  ES64L-G16RevA.03 25-Dec-2016

 --------------------------------------
 #P UB3LYP/6-311++G(d,p) nosym opt freq
 --------------------------------------

 -------
 Reduced
 -------
 Symbolic Z-matrix:
 Charge = -2 Multiplicity = 1

 SCF Done:  E(UB3LYP) =  -610.466319119     A.U. after   44 cycles
 SCF Done:  E(UB3LYP) =  -610.466319324     A.U. after   27 cycles
 Optimization completed.
    -- Stationary point found.
 Normal termination of Gaussian 16 at Tue Jan  9 20:41:43 2024.

 ----------------------------------------------------------------------
 #P Geom=AllCheck Guess=TCheck SCRF=Check GenChk UB3LYP/6-311++G(d,p) F
 req
 ----------------------------------------------------------------------

 Structure from the checkpoint file:  "325-an.chk"
 -------
 Reduced
 -------
 Charge = -2 Multiplicity = 1

                          Input orientation:
 ---------------------------------------------------------------------
 Center     Atomic      Atomic             Coordinates (Angstroms)
 Number     Number       Type             X           Y           Z
 ---------------------------------------------------------------------
      1          6           0       -1.789477    2.798267   -0.736323
      2          6           0       -2.900960    2.004224   -0.522505
      3          6           0       -2.732597    0.632435   -0.174733
      4          6           0       -0.464043    2.312923   -0.614736
      5          6           0       -0.302675    0.927669   -0.185895
      6          6           0       -1.460133    0.120486   -0.017990
      7          6           0        0.654290    3.203762   -0.890560
      8          6           0        2.031263    2.635899   -0.706803
      9          6           0        2.103890    1.270480   -0.257647
     10          6           0        1.006357    0.460013    0.000747
     11          8           0        0.480950    4.402517   -1.266826
     12          8           0        3.077033    3.324281   -0.914996
     13          1           0       -1.894550    3.842248   -1.017726
     14          1           0       -3.902221    2.416465   -0.636313
     15          1           0       -3.601998   -0.009980   -0.040455
     16          1           0       -1.320349   -0.923166    0.249797
     17          1           0        3.106978    0.887820   -0.064054
     18          8           0        1.189840   -0.873406    0.426562
     19          1           0        2.000350   -1.194567    0.005892
 ---------------------------------------------------------------------

 SCF Done:  E(UB3LYP) =  -610.466319324     A.U. after    3 cycles

 Alpha  occ. eigenvalues --  -18.89861 -18.77649 -18.77574  -9.95091  -9.93310
 Alpha  occ. eigenvalues --   -9.93041  -9.91873  -9.91813  -9.91480  -9.91043
 Alpha  occ. eigenvalues --   -9.90582  -9.89381  -9.88656  -0.79508  -0.70572
 Alpha  occ. eigenvalues --   -0.67835  -0.59133  -0.52950  -0.48962  -0.45663
 Alpha  occ. eigenvalues --   -0.40857  -0.35466  -0.32611  -0.31767  -0.26250
 Alpha  occ. eigenvalues --   -0.24084  -0.23377  -0.18523  -0.17833  -0.16651
 Alpha  occ. eigenvalues --   -0.15609  -0.14835  -0.12673  -0.11742  -0.10749
 Alpha  occ. eigenvalues --   -0.10444  -0.08896  -0.07830  -0.07157  -0.03931
 Alpha  occ. eigenvalues --   -0.01503   0.01029   0.03951   0.05412   0.06850
 Alpha  occ. eigenvalues --    0.13824
 Alpha virt. eigenvalues --    0.15679   0.16528   0.17699   0.19854   0.21221
 Alpha virt. eigenvalues --    0.22072   0.22537   0.25715   0.25986   0.26688
 Alpha virt. eigenvalues --    0.26884   0.28053   0.28491   0.28704   0.29303

  Beta  occ. eigenvalues --  -18.89861 -18.77649 -18.77574  -9.95091  -9.93310
  Beta  occ. eigenvalues --   -9.93041  -9.91873  -9.91813  -9.91480  -9.91043
  Beta  occ. eigenvalues --   -9.90582  -9.89381  -9.88656  -0.79508  -0.70572
  Beta  occ. eigenvalues --   -0.67835  -0.59133  -0.52950  -0.48962  -0.45663
  Beta  occ. eigenvalues --   -0.40857  -0.35466  -0.32611  -0.31767  -0.26250
  Beta  occ. eigenvalues --   -0.24084  -0.23377  -0.18523  -0.17833  -0.16651
  Beta  occ. eigenvalues --   -0.15609  -0.14835  -0.12673  -0.11742  -0.10749
  Beta  occ. eigenvalues --   -0.10444  -0.08896  -0.07830  -0.07157  -0.03931
  Beta  occ. eigenvalues --   -0.01503   0.01029   0.03951   0.05412   0.06850
  Beta  occ. eigenvalues --    0.13824
  Beta virt. eigenvalues --    0.15679   0.16528   0.17699   0.19854   0.21221
  Beta virt. eigenvalues --    0.22072   0.22537   0.25715   0.25986   0.26688
  Beta virt. eigenvalues --    0.26884   0.28053   0.28491   0.28704   0.29303

 Mulliken charges and spin densities:
               1          2
     1  C    0.251684  -0.000000
     2  C    0.054838  -0.000000
     3  C    0.653418   0.000000
     4  C   -0.387596   0.000000
     5  C   -0.161932  -0.000000
     6  C    0.607219  -0.000000
     7  C   -0.516386   0.000000
     8  C   -0.538890   0.000000
     9  C    0.165423  -0.000000
    10  C    0.049037  -0.000000
    11  O   -0.477351  -0.000000
    12  O   -0.494157  -0.000000
    13  H    0.149852  -0.000000
    14  H   -0.120726  -0.000000
    15  H   -0.758217   0.000000
    16  H    0.014471   0.000000
    17  H   -0.003755   0.000000
    18  O   -0.337765   0.000000
    19  H   -0.149167   0.000000
 Sum of Mulliken charges =  -2.00000   0.00000

 Dipole moment (field-independent basis, Debye):
    X=             -2.9280    Y=            -20.2037    Z=              5.7468  Tot=             21.2082
 Quadrupole moment (field-independent basis, Debye-Ang):
   XX=           -151.3290   YY=           -177.9682   ZZ=            -97.4452
   XY=            -26.9283   XZ=              7.0108   YZ=             23.3210

  Exact polarizability:3309.192-397.9601145.991-153.551 -64.638 136.163
 Approx polarizability:2816.666 561.9641781.900-183.149-206.097 201.081

                      1                      2                      3
                      A                      A                      A
 Frequencies --     78.6766               129.8890               171.7772
 Red. masses --     10.9491                 4.1295                 3.6295
 Frc consts  --      0.0399                 0.0410                 0.0631
 IR Inten    --      0.9039                 8.4513                11.2496

                      4                      5                      6
                      A                      A                      A
 Frequencies --    213.9689               227.4179               255.2768
 Red. masses --      1.4386                 3.3698                 5.9254
 Frc consts  --      0.0388                 0.1027                 0.2275
 IR Inten    --    482.9654                27.7009                13.2322

                      7                      8                      9
                      A                      A                      A
 Frequencies --    326.8906               355.8970               380.9321
 Red. masses --      7.4063                13.3800                 7.3783
 Frc consts  --      0.4663                 0.9985                 0.6308
 IR Inten    --     72.5659                19.7487                28.1133

                     10                     11                     12
                      A                      A                      A
 Frequencies --    412.4980               426.3006               456.9652
 Red. masses --     10.4636                 3.2271                 8.7208
 Frc consts  --      1.0490                 0.3455                 1.0729
 IR Inten    --     78.5267                38.8715               187.1187

                     13                     14                     15
                      A                      A                      A
 Frequencies --    506.3269               511.5338               584.1289
 Red. masses --      3.5905                 7.4805                 4.3885
 Frc consts  --      0.5423                 1.1533                 0.8822
 IR Inten    --     26.1681                41.8556               349.7161

                     16                     17                     18
                      A                      A                      A
 Frequencies --    639.2686               667.6576               695.6841
 Red. masses --      6.5275                 5.5085                 4.8150
 Frc consts  --      1.5717                 1.4467                 1.3730
 IR Inten    --     75.0645                44.6323                11.7128

                     19                     20                     21
                      A                      A                      A
 Frequencies --    711.6020               726.7648               766.3825
 Red. masses --      6.4071                 1.3771                 2.1314
 Frc consts  --      1.9116                 0.4286                 0.7376
 IR Inten    --     24.9436               139.4603               272.3132

                     22                     23                     24
                      A                      A                      A
 Frequencies --    792.4258               801.0107               817.4077
 Red. masses --      2.8306                 1.4641                 3.9806
 Frc consts  --      1.0472                 0.5535                 1.5670
 IR Inten    --    157.3056               130.3665                80.4408

                     25                     26                     27
                      A                      A                      A
 Frequencies --    926.3996               958.1714               967.5341
 Red. masses --      1.2552                 1.2815                 6.8246
 Frc consts  --      0.6347                 0.6932                 3.7641
 IR Inten    --     98.8231                37.4786               514.8230

                     28                     29                     30
                      A                      A                      A
 Frequencies --   1005.7593              1014.1722              1113.1992
 Red. masses --      2.3143                 4.6948                 1.5984
 Frc consts  --      1.3793                 2.8450                 1.1670
 IR Inten    --    275.4364              1402.6177               733.7109

                     31                     32                     33
                      A                      A                      A
 Frequencies --   1130.3466              1172.0381              1193.6500
 Red. masses --      1.3023                 1.3492                 1.6483
 Frc consts  --      0.9804                 1.0919                 1.3837
 IR Inten    --    529.4788              1077.7389               827.6499

                     34                     35                     36
                      A                      A                      A
 Frequencies --   1213.8657              1228.4152              1275.3149
 Red. masses --      2.8820                 3.7125                 2.3318
 Frc consts  --      2.5020                 3.3007                 2.2344
 IR Inten    --    191.0257               125.1207               855.5044

                     37                     38                     39
                      A                      A                      A
 Frequencies --   1342.4918              1412.4876              1424.7584
 Red. masses --      4.7521                 2.6081                 4.4405
 Frc consts  --      5.0462                 3.0658                 5.3109
 IR Inten    --    117.0183              1913.9544               214.1067

                     40                     41                     42
                      A                      A                      A
 Frequencies --   1452.8531              1481.5560              1511.6824
 Red. masses --      3.3265                 6.3410                 4.7536
 Frc consts  --      4.1370                 8.2005                 6.4002
 IR Inten    --   2349.0444               506.7897              3837.8903

                     43                     44                     45
                      A                      A                      A
 Frequencies --   1527.0528              1546.7093              1591.3762
 Red. masses --      4.8422                 6.2168                 5.7211
 Frc consts  --      6.6527                 8.7626                 8.5364
 IR Inten    --    130.6659              1845.4271                55.0503

                     46                     47                     48
                      A                      A                      A
 Frequencies --   3086.0350              3090.5229              3112.2683
 Red. masses --      1.0872                 1.0829                 1.0898
 Frc consts  --      6.1004                 6.0942                 6.2197
 IR Inten    --    303.5215               250.4803               136.7862

                     49                     50                     51
                      A                      A                      A
 Frequencies --   3142.7175              3150.5047              3659.0040
 Red. masses --      1.0910                 1.0907                 1.0656
 Frc consts  --      6.3488                 6.3787                 8.4053
 IR Inten    --     16.4134                45.9567             21483.3943

 - Thermochemistry -
 -------------------
 Temperature   298.150 Kelvin.  Pressure   1.00000 Atm.
 Atom     1 has atomic number  6 and mass  12.00000

 Molecular mass:   174.03169 amu.
 Principal axes and moments of inertia in atomic units:
                           1         2         3
     Eigenvalues --  1494.774872278.865193770.69613
           X            0.91071  -0.41292  -0.01038
           Y            0.39755   0.86943   0.29333
           Z           -0.11210  -0.27127   0.95595
 This molecule is an asymmetric top.
 Rotational symmetry number  1.
 Warning -- assumption of classical behavior for rotation
           may cause significant error
 Rotational temperatures (Kelvin)      0.05794     0.03801     0.02297
 Rotational constants (GHZ):           1.20737     0.79195     0.47862
 Zero-point vibrational energy     343253.9 (Joules/Mol)
                                   82.03965 (Kcal/Mol)
 Warning -- explicit consideration of  15 degrees of freedom as
           vibrations may cause significant error
 Vibrational temperatures:    113.20   186.88   247.15   307.85   327.20
          (Kelvin)            367.29   470.32   512.06   548.08   593.49
                              613.35   657.47   728.49   735.98   840.43
                              919.76   960.61  1000.93  1023.84  1045.65
                             1102.65  1140.12  1152.48  1176.07  1332.88
                             1378.59  1392.07  1447.06  1459.17  1601.65
                             1626.32  1686.30  1717.40  1746.48  1767.42
                             1834.89  1931.55  2032.25  2049.91  2090.33
                             2131.63  2174.97  2197.09  2225.37  2289.64
                             4440.12  4446.57  4477.86  4521.67  4532.87
                             5264.49

 Zero-point correction=                           0.130739 (Hartree/Particle)
 Thermal correction to Energy=                    0.140977
 Thermal correction to Enthalpy=                  0.141921
 Thermal correction to Gibbs Free Energy=         0.095181
 Sum of electronic and zero-point Energies=           -610.335581
 Sum of electronic and thermal Energies=              -610.325342
 Sum of electronic and thermal Enthalpies=            -610.324398
 Sum of electronic and thermal Free Energies=         -610.371138

                     E (Thermal)             CV                S
                      KCal/Mol        Cal/Mol-Kelvin    Cal/Mol-Kelvin
 Total                   88.464             40.722             98.372
 Electronic               0.000              0.000              0.000
 Translational            0.889              2.981             41.370
 Rotational               0.889              2.981             30.930
 Vibrational             86.687             34.760             26.072
 Vibration     1          0.600              1.964              3.924
 Vibration     2          0.612              1.923              2.948
 Vibration     3          0.626              1.877              2.416
 Vibration     4          0.644              1.820              2.010
 Vibration     5          0.651              1.799              1.899
 Vibration     6          0.666              1.754              1.694
 Vibration     7          0.711              1.622              1.275
 Vibration     8          0.731              1.563              1.140
 Vibration     9          0.751              1.511              1.035
 Vibration    10          0.776              1.443              0.918
 Vibration    11          0.788              1.413              0.871
 Vibration    12          0.815              1.345              0.775
 Vibration    13          0.862              1.236              0.642
 Vibration    14          0.867              1.224              0.630
 Vibration    15          0.941              1.066              0.478

 Optimization completed.
    -- Stationary point found.
 Normal termination of Gaussian 16 at Tue Jan  9 21:03:43 2024.
