 Gaussian 16, Revision A.03,
 Gaussian 16:  ES64L-G16RevA.03 25-Dec-2016

 ----------------------------------------------------------------
 #P UB3LYP/6-311++G(d,p) SCRF=(PCM,Solvent=n,n-DiMethylFormamide)
 ----------------------------------------------------------------

 ------------------
 Radical PCM in DMF
 ------------------
 Symbolic Z-matrix:
 Charge = -1 Multiplicity = 2

                         Standard orientation:
 ---------------------------------------------------------------------
 Center     Atomic      Atomic             Coordinates (Angstroms)
 Number     Number       Type             X           Y           Z
 ---------------------------------------------------------------------
      1         17           0        3.967840    1.293796    0.000017
      2          6           0        2.884524   -0.109327   -0.000002
      3          6           0        3.527065   -1.331619   -0.000021
      4          6           0        2.777188   -2.520235   -0.000023
      5          6           0        1.402015   -2.456928    0.000026
      6          6           0        0.726690   -1.219709    0.000039
      7          6           0       -0.746951   -1.284155    0.000028
      8          8           0       -1.320106   -2.395480    0.000019
      9          6           0       -1.465987   -0.008020   -0.000014
     10          6           0       -2.884495    0.109335    0.000002
     11         17           0       -3.967527   -1.294043   -0.000019
     12          6           0       -3.527154    1.331574    0.000028
     13          6           0       -2.777352    2.520227    0.000031
     14          6           0       -1.402160    2.457020   -0.000023
     15          6           0       -0.726754    1.219833   -0.000045
     16          6           0        0.746878    1.284294   -0.000040
     17          8           0        1.319881    2.395688   -0.000015
     18          6           0        1.465981    0.008145    0.000008
     19          1           0        4.609670   -1.358744   -0.000029
     20          1           0        3.288734   -3.477393   -0.000058
     21          1           0        0.789097   -3.349320    0.000009
     22          1           0       -4.609760    1.358586    0.000042
     23          1           0       -3.288921    3.477374    0.000074
     24          1           0       -0.789247    3.349413   -0.000005
 ---------------------------------------------------------------------

 SCF Done:  E(UB3LYP) =  -1608.32135942     A.U. after   19 cycles

 The electronic state is 2-A.
 Alpha  occ. eigenvalues -- -101.54767-101.54765 -19.07832 -19.07831 -10.23989
 Alpha  occ. eigenvalues --  -10.23989 -10.23374 -10.23373 -10.19199 -10.19197
 Alpha  occ. eigenvalues --  -10.18344 -10.18343 -10.18312 -10.18312 -10.18026
 Alpha  occ. eigenvalues --  -10.18026 -10.17356 -10.17356  -9.46250  -9.46248
 Alpha  occ. eigenvalues --   -7.22701  -7.22700  -7.21773  -7.21772  -7.21663
 Alpha  occ. eigenvalues --   -7.21662  -1.01232  -1.00977  -0.88959  -0.88761
 Alpha  occ. eigenvalues --   -0.84280  -0.83164  -0.79267  -0.75184  -0.74316
 Alpha  occ. eigenvalues --   -0.73672  -0.67282  -0.64519  -0.63143  -0.58429
 Alpha  occ. eigenvalues --   -0.55359  -0.54947  -0.52918  -0.48227  -0.47764
 Alpha  occ. eigenvalues --   -0.46962  -0.46938  -0.43444  -0.43428  -0.43294
 Alpha  occ. eigenvalues --   -0.42581  -0.41833  -0.41382  -0.39911  -0.38664
 Alpha  occ. eigenvalues --   -0.38526  -0.36729  -0.36384  -0.36004  -0.35065
 Alpha  occ. eigenvalues --   -0.33143  -0.32960  -0.31787  -0.31420  -0.27581
 Alpha  occ. eigenvalues --   -0.25946  -0.25388  -0.25199  -0.24468  -0.23332
 Alpha  occ. eigenvalues --   -0.14585
 Alpha virt. eigenvalues --   -0.06201  -0.03236  -0.01348  -0.00143   0.00438
 Alpha virt. eigenvalues --    0.00835   0.00864   0.02367   0.02401   0.03265
 Alpha virt. eigenvalues --    0.04223   0.04451   0.04608   0.04846   0.05335

  Beta  occ. eigenvalues -- -101.54764-101.54763 -19.07261 -19.07260 -10.23975
  Beta  occ. eigenvalues --  -10.23974 -10.23222 -10.23221 -10.19130 -10.19128
  Beta  occ. eigenvalues --  -10.18274 -10.18274 -10.18245 -10.18244 -10.17961
  Beta  occ. eigenvalues --  -10.17960 -10.17367 -10.17367  -9.46247  -9.46246
  Beta  occ. eigenvalues --   -7.22701  -7.22700  -7.21763  -7.21762  -7.21662
  Beta  occ. eigenvalues --   -7.21661  -1.00258  -0.99976  -0.88798  -0.88678
  Beta  occ. eigenvalues --   -0.84101  -0.83078  -0.78905  -0.74990  -0.74031
  Beta  occ. eigenvalues --   -0.73560  -0.66597  -0.64324  -0.62884  -0.58347
  Beta  occ. eigenvalues --   -0.55130  -0.54696  -0.52787  -0.48005  -0.47598
  Beta  occ. eigenvalues --   -0.46899  -0.46769  -0.43386  -0.43257  -0.42436
  Beta  occ. eigenvalues --   -0.42339  -0.41292  -0.41085  -0.39441  -0.38507
  Beta  occ. eigenvalues --   -0.36574  -0.36352  -0.35867  -0.35866  -0.34907
  Beta  occ. eigenvalues --   -0.32507  -0.32481  -0.31700  -0.31368  -0.25629
  Beta  occ. eigenvalues --   -0.25385  -0.24694  -0.24539  -0.23974  -0.22844
  Beta virt. eigenvalues --   -0.08716  -0.05243  -0.02134  -0.01109  -0.00127
  Beta virt. eigenvalues --    0.00443   0.00860   0.00876   0.02380   0.02412
  Beta virt. eigenvalues --    0.03292   0.04511   0.04616   0.04871   0.04922

 Mulliken charges and spin densities:
               1          2
     1  Cl   0.352441   0.000205
     2  C    0.865387   0.033827
     3  C   -0.115439   0.032967
     4  C   -0.638046   0.049007
     5  C    0.484409   0.026180
     6  C    0.250719   0.057762
     7  C   -1.775906   0.069425
     8  O   -0.327353   0.211562
     9  C   -0.166421   0.026769
    10  C    0.865305   0.033811
    11  Cl   0.352334   0.000204
    12  C   -0.115404   0.032979
    13  C   -0.637890   0.048982
    14  C    0.484224   0.026195
    15  C    0.250373   0.057754
    16  C   -1.775876   0.069434
    17  O   -0.327430   0.211564
    18  C   -0.166589   0.026793
    19  H    0.203151  -0.002578
    20  H    0.188594  -0.003867
    21  H    0.178844  -0.001265
    22  H    0.203137  -0.002579
    23  H    0.188598  -0.003866
    24  H    0.178838  -0.001266
 Sum of Mulliken charges =  -1.00000   1.00000

 Dipole moment (field-independent basis, Debye):
    X=              0.0004    Y=             -0.0006    Z=             -0.0000  Tot=              0.0007
 Quadrupole moment (field-independent basis, Debye-Ang):
   XX=           -138.8952   YY=           -139.6159   ZZ=           -123.1189
   XY=            -27.5198   XZ=             -0.0004   YZ=              0.0006

 Normal termination of Gaussian 16 at Sun Jan 14 01:10:11 2024.
