 Q-Chem 5.4, Q-Chem, Inc., Pleasanton, CA (2021)
 Q-Chem 5.4.0 for Intel X86 EM64T Linux

User input:
--------------------------------------------------------------
$molecule
-1 2
C                 -2.0341410000      3.0133820000      0.4654640000
C                 -2.7504320000      2.3711720000      1.4583700000
C                 -2.2777190000      1.1571520000      1.9966910000
C                 -0.8266230000      2.4688480000     -0.0229730000
C                 -0.3470250000      1.2422720000      0.5200980000
C                 -1.0940720000      0.6094950000      1.5289300000
C                 -0.0775280000      3.1417640000     -1.0628910000
C                  1.1456060000      2.5071390000     -1.4967380000
C                  1.6345570000      1.3179140000     -0.9986550000
C                  0.9119140000      0.6271930000      0.0477050000
O                 -0.4139000000      4.2396840000     -1.6171460000
O                  1.3280670000     -0.4541900000      0.5398280000
H                 -2.3772310000      3.9478210000      0.0357640000
H                 -3.6780460000      2.8017180000      1.8246150000
H                 -2.8409770000      0.6532950000      2.7765710000
H                 -0.7065170000     -0.3222500000      1.9252970000
C                  2.9224650000      0.7210800000     -1.5043360000
O                  1.7988520000      3.1989350000     -2.4756370000
H                  3.0865820000      1.0293960000     -2.5420750000
H                  2.8260510000     -0.3691640000     -1.4802960000
H                  1.2037730000      3.9698590000     -2.6089730000
C                  4.1492070000      1.1191380000     -0.6610330000
C                  5.4530390000      0.4860150000     -1.1588840000
C                  6.6828540000      0.8753420000     -0.3304480000
H                  3.9680640000      0.8195430000      0.3767410000
H                  4.2473550000      2.2113710000     -0.6662970000
H                  5.6191240000      0.7724590000     -2.2066060000
H                  5.3465480000     -0.6070270000     -1.1547040000
H                  6.5170430000      0.5878680000      0.7160040000
H                  6.7868820000      1.9684930000     -0.3312690000
C                  7.9893990000      0.2445890000     -0.8262380000
C                  9.2183600000      0.6344610000      0.0032320000
C                 10.5246900000      0.0033990000     -0.4922460000
C                 11.7531020000      0.3945230000      0.3373730000
C                 13.0593400000     -0.2361680000     -0.1580410000
C                 14.2880620000      0.1551890000      0.6708790000
C                 15.5880950000     -0.4797510000      0.1677860000
H                  8.1547980000      0.5318160000     -1.8732460000
H                  7.8854270000     -0.8485810000     -0.8253150000
H                  9.0529040000      0.3474380000      1.0499790000
H                  9.3223610000      1.7275290000      0.0025320000
H                 10.6899810000      0.2899700000     -1.5392500000
H                 10.4210460000     -1.0896790000     -0.4907430000
H                 11.5879720000      0.1078460000      1.3842550000
H                 11.8566320000      1.4875770000      0.3359980000
H                 13.2254270000      0.0500180000     -1.2051170000
H                 12.9571810000     -1.3294990000     -0.1562270000
H                 14.1231820000     -0.1313920000      1.7168270000
H                 14.3910150000      1.2473220000      0.6688980000
H                 15.5286580000     -1.5727580000      0.1907430000
H                 16.4443240000     -0.1809580000      0.7798330000
H                 15.7985710000     -0.1836210000     -0.8650480000
$end

$rem
BASIS  =  6-311++G(d,p)
GUI  =  2
JOB_TYPE  =  SP
METHOD  =  B3LYP
SCF_CONVERGENCE  = 8
SOLVENT_METHOD = sm12
$end

$smx
solvent dimethylformamide
charges CM5
$end

--------------------------------------------------------------

             Standard Nuclear Orientation (Angstroms)
    I     Atom           X                Y                Z
 ----------------------------------------------------------------
    1      C      -2.0341410000     3.0133820000     0.4654640000
    2      C      -2.7504320000     2.3711720000     1.4583700000
    3      C      -2.2777190000     1.1571520000     1.9966910000
    4      C      -0.8266230000     2.4688480000    -0.0229730000
    5      C      -0.3470250000     1.2422720000     0.5200980000
    6      C      -1.0940720000     0.6094950000     1.5289300000
    7      C      -0.0775280000     3.1417640000    -1.0628910000
    8      C       1.1456060000     2.5071390000    -1.4967380000
    9      C       1.6345570000     1.3179140000    -0.9986550000
   10      C       0.9119140000     0.6271930000     0.0477050000
   11      O      -0.4139000000     4.2396840000    -1.6171460000
   12      O       1.3280670000    -0.4541900000     0.5398280000
   13      H      -2.3772310000     3.9478210000     0.0357640000
   14      H      -3.6780460000     2.8017180000     1.8246150000
   15      H      -2.8409770000     0.6532950000     2.7765710000
   16      H      -0.7065170000    -0.3222500000     1.9252970000
   17      C       2.9224650000     0.7210800000    -1.5043360000
   18      O       1.7988520000     3.1989350000    -2.4756370000
   19      H       3.0865820000     1.0293960000    -2.5420750000
   20      H       2.8260510000    -0.3691640000    -1.4802960000
   21      H       1.2037730000     3.9698590000    -2.6089730000
   22      C       4.1492070000     1.1191380000    -0.6610330000
   23      C       5.4530390000     0.4860150000    -1.1588840000
   24      C       6.6828540000     0.8753420000    -0.3304480000
   25      H       3.9680640000     0.8195430000     0.3767410000
   26      H       4.2473550000     2.2113710000    -0.6662970000
   27      H       5.6191240000     0.7724590000    -2.2066060000
   28      H       5.3465480000    -0.6070270000    -1.1547040000
   29      H       6.5170430000     0.5878680000     0.7160040000
   30      H       6.7868820000     1.9684930000    -0.3312690000
   31      C       7.9893990000     0.2445890000    -0.8262380000
   32      C       9.2183600000     0.6344610000     0.0032320000
   33      C      10.5246900000     0.0033990000    -0.4922460000
   34      C      11.7531020000     0.3945230000     0.3373730000
   35      C      13.0593400000    -0.2361680000    -0.1580410000
   36      C      14.2880620000     0.1551890000     0.6708790000
   37      C      15.5880950000    -0.4797510000     0.1677860000
   38      H       8.1547980000     0.5318160000    -1.8732460000
   39      H       7.8854270000    -0.8485810000    -0.8253150000
   40      H       9.0529040000     0.3474380000     1.0499790000
   41      H       9.3223610000     1.7275290000     0.0025320000
   42      H      10.6899810000     0.2899700000    -1.5392500000
   43      H      10.4210460000    -1.0896790000    -0.4907430000
   44      H      11.5879720000     0.1078460000     1.3842550000
   45      H      11.8566320000     1.4875770000     0.3359980000
   46      H      13.2254270000     0.0500180000    -1.2051170000
   47      H      12.9571810000    -1.3294990000    -0.1562270000
   48      H      14.1231820000    -0.1313920000     1.7168270000
   49      H      14.3910150000     1.2473220000     0.6688980000
   50      H      15.5286580000    -1.5727580000     0.1907430000
   51      H      16.4443240000    -0.1809580000     0.7798330000
   52      H      15.7985710000    -0.1836210000    -0.8650480000
 ----------------------------------------------------------------

   18   -1043.1634276385      4.94e-09  Convergence criterion met
 Total energy in the final basis set =    -1043.2539604417

                    Orbital Energies (a.u.)
 --------------------------------------------------------------

 Alpha MOs
 -- Occupied --
-19.1440 -19.0857 -19.0729 -10.2237 -10.2234 -10.2213 -10.1815 -10.1802
-10.1801 -10.1786 -10.1779 -10.1772 -10.1647 -10.1647 -10.1642 -10.1628
-10.1627 -10.1624 -10.1623 -10.1623 -10.1621 -10.1620 -10.1617 -10.1573
 -1.0635  -0.9979  -0.9951  -0.8637  -0.8195  -0.8128  -0.7999  -0.7814
 -0.7609  -0.7570  -0.7380  -0.7106  -0.6827  -0.6641  -0.6369  -0.6212
 -0.6048  -0.5861  -0.5804  -0.5753  -0.5744  -0.5715  -0.5411  -0.5076
 -0.4897  -0.4859  -0.4761  -0.4657  -0.4592  -0.4529  -0.4396  -0.4359
 -0.4335  -0.4303  -0.4249  -0.4197  -0.4121  -0.4072  -0.4039  -0.3948
 -0.3891  -0.3856  -0.3829  -0.3801  -0.3709  -0.3655  -0.3590  -0.3516
 -0.3474  -0.3440  -0.3437  -0.3395  -0.3325  -0.3312  -0.3287  -0.3250
 -0.3246  -0.3226  -0.3224  -0.3004  -0.2705  -0.2636  -0.2584  -0.2378
 -0.2306  -0.1518

 Beta MOs
 -- Occupied --
-19.1435 -19.0790 -19.0673 -10.2227 -10.2225 -10.2187 -10.1815 -10.1798
-10.1793 -10.1782 -10.1777 -10.1764 -10.1647 -10.1644 -10.1639 -10.1628
-10.1627 -10.1624 -10.1623 -10.1622 -10.1621 -10.1620 -10.1617 -10.1573
 -1.0615  -0.9883  -0.9838  -0.8614  -0.8184  -0.8115  -0.7987  -0.7804
 -0.7597  -0.7550  -0.7373  -0.7096  -0.6789  -0.6593  -0.6361  -0.6196
 -0.6033  -0.5850  -0.5803  -0.5748  -0.5742  -0.5697  -0.5395  -0.5054
 -0.4892  -0.4842  -0.4752  -0.4646  -0.4583  -0.4526  -0.4363  -0.4330
 -0.4327  -0.4292  -0.4204  -0.4183  -0.4077  -0.4052  -0.4021  -0.3926
 -0.3846  -0.3813  -0.3805  -0.3779  -0.3703  -0.3587  -0.3554  -0.3487
 -0.3460  -0.3421  -0.3377  -0.3329  -0.3303  -0.3285  -0.3280  -0.3245
 -0.3241  -0.3224  -0.3222  -0.3000  -0.2564  -0.2524  -0.2502  -0.2325
 -0.2205

          Ground-State Mulliken Net Atomic Charges

     Atom                 Charge (a.u.)    Spin (a.u.)
  --------------------------------------------------------
      1 C                     0.069513       0.074095
      2 C                     0.941502       0.001841
      3 C                     0.736398       0.074570
      4 C                    -0.510825       0.011483
      5 C                    -1.251075       0.068643
      6 C                    -0.107046      -0.000964
      7 C                    -1.581275       0.133990
      8 C                    -0.596471       0.059184
      9 C                     1.110251       0.062749
     10 C                    -1.987671       0.049100
     11 O                    -0.374481       0.248439
     12 O                    -0.288346       0.210766
     13 H                     0.162975      -0.004071
     14 H                     0.362475      -0.000690
     15 H                     0.333762      -0.005381
     16 H                     0.145921      -0.000189
     17 C                    -0.738292       0.012025
     18 O                    -0.137883       0.015795
     19 H                     0.181593      -0.000820
     20 H                     0.124984       0.002895
     21 H                     0.296293      -0.004097
     22 C                    -2.840269       0.001207
     23 C                    -1.355555      -0.001584
     24 C                    -0.269159      -0.008231
     25 H                     0.067644      -0.001892
     26 H                     0.074782       0.002915
     27 H                     0.180746      -0.000540
     28 H                     0.179483       0.000686
     29 H                     0.120123      -0.000026
     30 H                     0.135110      -0.000105
     31 C                     0.774639      -0.002248
     32 C                     1.302226      -0.000159
     33 C                     1.281491       0.000573
     34 C                     0.759463       0.000021
     35 C                     0.308976       0.000039
     36 C                    -0.027895      -0.000020
     37 C                    -0.432207       0.000002
     38 H                     0.106923       0.000003
     39 H                     0.102715      -0.000001
     40 H                     0.115777       0.000005
     41 H                     0.110484      -0.000003
     42 H                     0.120965      -0.000013
     43 H                     0.119673       0.000003
     44 H                     0.115276      -0.000001
     45 H                     0.118035       0.000001
     46 H                     0.107913       0.000003
     47 H                     0.107360      -0.000002
     48 H                     0.124329       0.000000
     49 H                     0.124727       0.000001
     50 H                     0.141217      -0.000000
     51 H                     0.191235       0.000004
     52 H                     0.141473      -0.000001
  --------------------------------------------------------
  Sum of atomic charges =    -1.000001

                    Cartesian Multipole Moments
 -----------------------------------------------------------------
    Charge (ESU x 10^10)
                -4.8032
    Dipole Moment (Debye)
         X      -2.8278      Y      -8.5240      Z       2.5783
       Tot       9.3436
    Quadrupole Moments (Debye-Ang)
        XX    -168.8913     XY       3.4191     YY    -190.3653
        XZ       0.8583     YZ      12.3989     ZZ    -163.1382

 Total job time:  3056.01s(wall), 22184.53s(cpu)
        *  Thank you very much for using Q-Chem.  Have a nice day.  *
