 Q-Chem 5.4, Q-Chem, Inc., Pleasanton, CA (2021)
 Q-Chem 5.4.0 for Intel X86 EM64T Linux

User input:
--------------------------------------------------------------
$molecule
-2 1
C                  0.6018940000      1.3247880000     -1.0286650000
C                 -0.7135230000      0.8486260000     -0.6720980000
C                 -0.9782720000     -0.4430670000     -0.1714050000
C                  0.1079920000     -1.3567640000      0.0908780000
C                  1.4354400000     -0.9375810000     -0.2909450000
C                  1.6524350000      0.3638340000     -0.7895260000
O                  0.8186580000      2.4937110000     -1.4874620000
O                 -0.1061060000     -2.5240190000      0.5971880000
S                  3.2919530000      0.9779360000     -1.1753310000
C                  3.5248960000      2.5191700000     -0.2221380000
C                  3.2141040000      3.7579490000     -0.7804380000
C                  4.0760530000      2.4269950000      1.0541130000
C                  4.3211610000      3.5890990000      1.7853190000
C                  3.4723930000      4.9156910000     -0.0467240000
C                  4.0214000000      4.8366380000      1.2336950000
O                  3.4578600000      1.3383620000     -2.5991390000
O                  4.3201430000      0.0701680000     -0.6051470000
H                  2.7667230000      3.7861710000     -1.7630140000
H                  4.3184810000      1.4496630000      1.4529220000
H                  3.2273760000      5.8842710000     -0.4718750000
H                  4.7464610000      3.5198570000      2.7821570000
H                  4.2060120000      5.7426120000      1.8039530000
S                 -2.0092650000      2.0642800000     -0.9116530000
C                 -1.5256830000      3.5552630000      0.0271230000
C                 -0.8100770000      4.5831870000     -0.5845030000
C                 -1.9423680000      3.6628750000      1.3521860000
C                 -1.6405190000      4.8143770000      2.0789650000
C                 -0.5218470000      5.7358190000      0.1460690000
C                 -0.9310780000      5.8546410000      1.4748150000
O                 -2.1565110000      2.4873600000     -2.3202200000
O                 -3.2511750000      1.6226970000     -0.2267870000
H                 -0.4849090000      4.4519410000     -1.6059930000
H                 -2.5083980000      2.8515320000      1.7930220000
H                 -1.9601400000      4.8989190000      3.1133960000
H                  0.0405070000      6.5386370000     -0.3210300000
H                 -0.6898010000      6.7498150000      2.0409520000
C                 -2.3521060000     -1.0136150000      0.0835160000
C                  2.4926460000     -2.0062620000     -0.1560870000
H                 -2.7760040000     -0.6596730000      1.0312930000
H                 -2.2339290000     -2.0970550000      0.1548640000
H                 -3.0686600000     -0.7430500000     -0.6928140000
H                  1.9660970000     -2.9574500000     -0.0517900000
H                  3.1096710000     -1.8648060000      0.7397540000
H                  3.1803550000     -2.0242930000     -1.0022820000
$end

$rem
BASIS  =  6-311++G(d,p)
GUI  =  2
JOB_TYPE  =  SP
METHOD  =  B3LYP
SCF_CONVERGENCE  = 8
SOLVENT_METHOD = sm12
$end

$smx
solvent dimethylformamide
charges CM5
$end

--------------------------------------------------------------

             Standard Nuclear Orientation (Angstroms)
    I     Atom           X                Y                Z
 ----------------------------------------------------------------
    1      C       0.6018940000     1.3247880000    -1.0286650000
    2      C      -0.7135230000     0.8486260000    -0.6720980000
    3      C      -0.9782720000    -0.4430670000    -0.1714050000
    4      C       0.1079920000    -1.3567640000     0.0908780000
    5      C       1.4354400000    -0.9375810000    -0.2909450000
    6      C       1.6524350000     0.3638340000    -0.7895260000
    7      O       0.8186580000     2.4937110000    -1.4874620000
    8      O      -0.1061060000    -2.5240190000     0.5971880000
    9      S       3.2919530000     0.9779360000    -1.1753310000
   10      C       3.5248960000     2.5191700000    -0.2221380000
   11      C       3.2141040000     3.7579490000    -0.7804380000
   12      C       4.0760530000     2.4269950000     1.0541130000
   13      C       4.3211610000     3.5890990000     1.7853190000
   14      C       3.4723930000     4.9156910000    -0.0467240000
   15      C       4.0214000000     4.8366380000     1.2336950000
   16      O       3.4578600000     1.3383620000    -2.5991390000
   17      O       4.3201430000     0.0701680000    -0.6051470000
   18      H       2.7667230000     3.7861710000    -1.7630140000
   19      H       4.3184810000     1.4496630000     1.4529220000
   20      H       3.2273760000     5.8842710000    -0.4718750000
   21      H       4.7464610000     3.5198570000     2.7821570000
   22      H       4.2060120000     5.7426120000     1.8039530000
   23      S      -2.0092650000     2.0642800000    -0.9116530000
   24      C      -1.5256830000     3.5552630000     0.0271230000
   25      C      -0.8100770000     4.5831870000    -0.5845030000
   26      C      -1.9423680000     3.6628750000     1.3521860000
   27      C      -1.6405190000     4.8143770000     2.0789650000
   28      C      -0.5218470000     5.7358190000     0.1460690000
   29      C      -0.9310780000     5.8546410000     1.4748150000
   30      O      -2.1565110000     2.4873600000    -2.3202200000
   31      O      -3.2511750000     1.6226970000    -0.2267870000
   32      H      -0.4849090000     4.4519410000    -1.6059930000
   33      H      -2.5083980000     2.8515320000     1.7930220000
   34      H      -1.9601400000     4.8989190000     3.1133960000
   35      H       0.0405070000     6.5386370000    -0.3210300000
   36      H      -0.6898010000     6.7498150000     2.0409520000
   37      C      -2.3521060000    -1.0136150000     0.0835160000
   38      C       2.4926460000    -2.0062620000    -0.1560870000
   39      H      -2.7760040000    -0.6596730000     1.0312930000
   40      H      -2.2339290000    -2.0970550000     0.1548640000
   41      H      -3.0686600000    -0.7430500000    -0.6928140000
   42      H       1.9660970000    -2.9574500000    -0.0517900000
   43      H       3.1096710000    -1.8648060000     0.7397540000
   44      H       3.1803550000    -2.0242930000    -1.0022820000
 ----------------------------------------------------------------

   17   -2019.7436895556      6.44e-09  Convergence criterion met
 Total energy in the final basis set =    -2020.0017028835

                    Orbital Energies (a.u.)
 --------------------------------------------------------------

 Alpha MOs
 -- Occupied --
-89.0319 -89.0319 -19.0950 -19.0949 -19.0932 -19.0932 -19.0361 -19.0197
-10.2112 -10.2040 -10.2040 -10.1903 -10.1902 -10.1893 -10.1893 -10.1875
-10.1874 -10.1859 -10.1858 -10.1858 -10.1852 -10.1852 -10.1745 -10.1744
-10.1672 -10.1672 -10.1515 -10.1514  -8.0950  -8.0950  -6.0579  -6.0579
 -6.0569  -6.0569  -6.0558  -6.0558  -1.0843  -1.0843  -0.9790  -0.9783
 -0.9661  -0.9413  -0.8707  -0.8706  -0.8161  -0.7829  -0.7712  -0.7669
 -0.7600  -0.7594  -0.7212  -0.7138  -0.6767  -0.6396  -0.6373  -0.6192
 -0.6188  -0.6002  -0.5934  -0.5554  -0.5528  -0.5264  -0.5245  -0.4895
 -0.4836  -0.4745  -0.4704  -0.4690  -0.4667  -0.4543  -0.4512  -0.4449
 -0.4377  -0.4340  -0.4332  -0.4289  -0.4210  -0.4144  -0.4019  -0.3954
 -0.3876  -0.3818  -0.3793  -0.3763  -0.3736  -0.3708  -0.3624  -0.3569
 -0.3558  -0.3453  -0.3416  -0.3211  -0.3194  -0.3184  -0.3044  -0.3026
 -0.2878  -0.2844  -0.2829  -0.2816  -0.2697  -0.2651  -0.2649  -0.2639
 -0.2404  -0.2363  -0.2140  -0.2000  -0.1369

          Ground-State Mulliken Net Atomic Charges

     Atom                 Charge (a.u.)
  ----------------------------------------
      1 C                    -0.866371
      2 C                    -0.563310
      3 C                     0.265492
      4 C                    -3.098339
      5 C                     0.267867
      6 C                    -0.560615
      7 O                    -0.181273
      8 O                    -0.398703
      9 S                    -0.137812
     10 C                    -2.560322
     11 C                    -0.978609
     12 C                    -0.074391
     13 C                     0.831649
     14 C                     1.098781
     15 C                     1.555175
     16 O                    -0.096725
     17 O                    -0.097015
     18 H                     0.127128
     19 H                     0.218888
     20 H                     0.380395
     21 H                     0.379045
     22 H                     0.454730
     23 S                    -0.140095
     24 C                    -2.561291
     25 C                    -0.971907
     26 C                    -0.077453
     27 C                     0.831081
     28 C                     1.096807
     29 C                     1.558187
     30 O                    -0.096116
     31 O                    -0.097367
     32 H                     0.127464
     33 H                     0.218857
     34 H                     0.378924
     35 H                     0.380743
     36 H                     0.454662
     37 C                     0.036933
     38 C                     0.035503
     39 H                     0.163064
     40 H                     0.123186
     41 H                     0.143180
     42 H                     0.123349
     43 H                     0.163011
     44 H                     0.143614
  ----------------------------------------
  Sum of atomic charges =    -2.000000

                    Cartesian Multipole Moments
 -----------------------------------------------------------------
    Charge (ESU x 10^10)
                -9.6064
    Dipole Moment (Debye)
         X      -3.3939      Y      -1.0025      Z       9.5528
       Tot      10.1872
    Quadrupole Moments (Debye-Ang)
        XX    -264.2098     XY      10.0223     YY    -221.7819
        XZ      12.3992     YZ      28.7287     ZZ    -208.2802

 Total job time:  2950.77s(wall), 20139.32s(cpu)
        *  Thank you very much for using Q-Chem.  Have a nice day.  *
