 Gaussian 16, Revision A.03,
 Gaussian 16:  ES64L-G16RevA.03 25-Dec-2016

 --------------------------------------
 #P UB3LYP/6-311++G(d,p) nosym opt freq
 --------------------------------------

 -------
 Reduced
 -------
 Symbolic Z-matrix:
 Charge = -2 Multiplicity = 1

 SCF Done:  E(UB3LYP) =  -2019.75649873     A.U. after   24 cycles
 SCF Done:  E(UB3LYP) =  -2019.75649870     A.U. after   12 cycles
 SCF Done:  E(UB3LYP) =  -2019.75649874     A.U. after   12 cycles
 Optimization completed.
    -- Stationary point found.
 Normal termination of Gaussian 16 at Wed Jan 10 06:31:56 2024.

 ----------------------------------------------------------------------
 #P Geom=AllCheck Guess=TCheck SCRF=Check GenChk UB3LYP/6-311++G(d,p) F
 req
 ----------------------------------------------------------------------

 Structure from the checkpoint file:  "074-an.chk"
 -------
 Reduced
 -------
 Charge = -2 Multiplicity = 1

                          Input orientation:
 ---------------------------------------------------------------------
 Center     Atomic      Atomic             Coordinates (Angstroms)
 Number     Number       Type             X           Y           Z
 ---------------------------------------------------------------------
      1          6           0        0.601894    1.324788   -1.028665
      2          6           0       -0.713523    0.848626   -0.672098
      3          6           0       -0.978272   -0.443067   -0.171405
      4          6           0        0.107992   -1.356764    0.090878
      5          6           0        1.435440   -0.937581   -0.290945
      6          6           0        1.652435    0.363834   -0.789526
      7          8           0        0.818658    2.493711   -1.487462
      8          8           0       -0.106106   -2.524019    0.597188
      9         16           0        3.291953    0.977936   -1.175331
     10          6           0        3.524896    2.519170   -0.222138
     11          6           0        3.214104    3.757949   -0.780438
     12          6           0        4.076053    2.426995    1.054113
     13          6           0        4.321161    3.589099    1.785319
     14          6           0        3.472393    4.915691   -0.046724
     15          6           0        4.021400    4.836638    1.233695
     16          8           0        3.457860    1.338362   -2.599139
     17          8           0        4.320143    0.070168   -0.605147
     18          1           0        2.766723    3.786171   -1.763014
     19          1           0        4.318481    1.449663    1.452922
     20          1           0        3.227376    5.884271   -0.471875
     21          1           0        4.746461    3.519857    2.782157
     22          1           0        4.206012    5.742612    1.803953
     23         16           0       -2.009265    2.064280   -0.911653
     24          6           0       -1.525683    3.555263    0.027123
     25          6           0       -0.810077    4.583187   -0.584503
     26          6           0       -1.942368    3.662875    1.352186
     27          6           0       -1.640519    4.814377    2.078965
     28          6           0       -0.521847    5.735819    0.146069
     29          6           0       -0.931078    5.854641    1.474815
     30          8           0       -2.156511    2.487360   -2.320220
     31          8           0       -3.251175    1.622697   -0.226787
     32          1           0       -0.484909    4.451941   -1.605993
     33          1           0       -2.508398    2.851532    1.793022
     34          1           0       -1.960140    4.898919    3.113396
     35          1           0        0.040507    6.538637   -0.321030
     36          1           0       -0.689801    6.749815    2.040952
     37          6           0       -2.352106   -1.013615    0.083516
     38          6           0        2.492646   -2.006262   -0.156087
     39          1           0       -2.776004   -0.659673    1.031293
     40          1           0       -2.233929   -2.097055    0.154864
     41          1           0       -3.068660   -0.743050   -0.692814
     42          1           0        1.966097   -2.957450   -0.051790
     43          1           0        3.109671   -1.864806    0.739754
     44          1           0        3.180355   -2.024293   -1.002282
 ---------------------------------------------------------------------

 SCF Done:  E(UB3LYP) =  -2019.75649874     A.U. after    2 cycles

 Alpha  occ. eigenvalues --  -88.82216 -88.82215 -18.88465 -18.88462 -18.88382
 Alpha  occ. eigenvalues --  -18.88380 -18.82221 -18.79500 -10.00708 -10.00706
 Alpha  occ. eigenvalues --  -10.00663 -10.00661 -10.00371 -10.00370 -10.00093
 Alpha  occ. eigenvalues --  -10.00091  -9.99955  -9.99954  -9.99414  -9.99229
 Alpha  occ. eigenvalues --   -9.99225  -9.96260  -9.95743  -9.95741  -9.94545
 Alpha  occ. eigenvalues --   -9.94544  -9.92651  -9.92648  -7.88525  -7.88523
 Alpha  occ. eigenvalues --   -5.84814  -5.84812  -5.84730  -5.84728  -5.84596
 Alpha  occ. eigenvalues --   -5.84594  -0.87480  -0.87449  -0.76903  -0.76850
 Alpha  occ. eigenvalues --   -0.75068  -0.71642  -0.68208  -0.68206  -0.59705
 Alpha  occ. eigenvalues --   -0.58326  -0.57971  -0.57232  -0.57184  -0.55525
 Alpha  occ. eigenvalues --   -0.50283  -0.49905  -0.46548  -0.43905  -0.43158
 Alpha  occ. eigenvalues --   -0.43110  -0.42766  -0.39780  -0.38875  -0.35362
 Alpha  occ. eigenvalues --   -0.35169  -0.32705  -0.32283  -0.28335  -0.28134
 Alpha  occ. eigenvalues --   -0.28010  -0.27805  -0.26907  -0.26540  -0.25926
 Alpha  occ. eigenvalues --   -0.25583  -0.25001  -0.24757  -0.23308  -0.22447
 Alpha  occ. eigenvalues --   -0.21900  -0.20482  -0.19628  -0.19287  -0.19286
 Alpha  occ. eigenvalues --   -0.19055  -0.18632  -0.17717  -0.17504  -0.16943
 Alpha  occ. eigenvalues --   -0.16818  -0.15068  -0.14915  -0.14696  -0.12316
 Alpha  occ. eigenvalues --   -0.12263  -0.11020  -0.10742  -0.09758  -0.09500
 Alpha  occ. eigenvalues --   -0.09436  -0.08608  -0.08458  -0.07805  -0.07645
 Alpha  occ. eigenvalues --   -0.07620  -0.07257  -0.06703  -0.05764  -0.02060
 Alpha  occ. eigenvalues --   -0.01632   0.00026   0.02396   0.08542
 Alpha virt. eigenvalues --    0.12414   0.13601   0.14478   0.15014   0.15139
 Alpha virt. eigenvalues --    0.15801   0.15928   0.16275   0.16857   0.17649
 Alpha virt. eigenvalues --    0.17838   0.18575   0.19395   0.19654   0.19744

  Beta  occ. eigenvalues --  -88.82216 -88.82215 -18.88465 -18.88462 -18.88382
  Beta  occ. eigenvalues --  -18.88380 -18.82221 -18.79500 -10.00708 -10.00706
  Beta  occ. eigenvalues --  -10.00663 -10.00661 -10.00371 -10.00370 -10.00093
  Beta  occ. eigenvalues --  -10.00091  -9.99955  -9.99954  -9.99414  -9.99229
  Beta  occ. eigenvalues --   -9.99225  -9.96260  -9.95743  -9.95741  -9.94545
  Beta  occ. eigenvalues --   -9.94544  -9.92651  -9.92648  -7.88525  -7.88523
  Beta  occ. eigenvalues --   -5.84814  -5.84812  -5.84730  -5.84728  -5.84596
  Beta  occ. eigenvalues --   -5.84594  -0.87480  -0.87449  -0.76903  -0.76850
  Beta  occ. eigenvalues --   -0.75068  -0.71642  -0.68208  -0.68206  -0.59705
  Beta  occ. eigenvalues --   -0.58326  -0.57971  -0.57232  -0.57184  -0.55525
  Beta  occ. eigenvalues --   -0.50283  -0.49905  -0.46548  -0.43905  -0.43158
  Beta  occ. eigenvalues --   -0.43110  -0.42766  -0.39780  -0.38875  -0.35362
  Beta  occ. eigenvalues --   -0.35169  -0.32705  -0.32283  -0.28335  -0.28134
  Beta  occ. eigenvalues --   -0.28010  -0.27805  -0.26907  -0.26540  -0.25926
  Beta  occ. eigenvalues --   -0.25583  -0.25001  -0.24757  -0.23308  -0.22447
  Beta  occ. eigenvalues --   -0.21900  -0.20482  -0.19628  -0.19287  -0.19286
  Beta  occ. eigenvalues --   -0.19055  -0.18632  -0.17717  -0.17504  -0.16943
  Beta  occ. eigenvalues --   -0.16818  -0.15068  -0.14915  -0.14696  -0.12316
  Beta  occ. eigenvalues --   -0.12263  -0.11020  -0.10742  -0.09758  -0.09500
  Beta  occ. eigenvalues --   -0.09436  -0.08608  -0.08458  -0.07805  -0.07645
  Beta  occ. eigenvalues --   -0.07620  -0.07257  -0.06703  -0.05764  -0.02060
  Beta  occ. eigenvalues --   -0.01632   0.00026   0.02396   0.08542
  Beta virt. eigenvalues --    0.12414   0.13601   0.14478   0.15014   0.15139
  Beta virt. eigenvalues --    0.15801   0.15928   0.16275   0.16857   0.17649
  Beta virt. eigenvalues --    0.17838   0.18575   0.19395   0.19654   0.19744

 Mulliken charges and spin densities:
               1          2
     1  C   -0.392485   0.000000
     2  C    0.190601  -0.000000
     3  C    0.898435  -0.000000
     4  C   -1.902371   0.000000
     5  C    0.898434  -0.000000
     6  C    0.191335  -0.000000
     7  O   -0.309645   0.000000
     8  O   -0.491794  -0.000000
     9  S    0.058943   0.000000
    10  C   -0.075424  -0.000000
    11  C   -0.061813   0.000000
    12  C    0.211830   0.000000
    13  C   -0.540431   0.000000
    14  C   -0.232318   0.000000
    15  C   -0.415360   0.000000
    16  O   -0.124982  -0.000000
    17  O   -0.173648  -0.000000
    18  H    0.283872   0.000000
    19  H    0.231113  -0.000000
    20  H    0.149781  -0.000000
    21  H    0.132170  -0.000000
    22  H    0.111560   0.000000
    23  S    0.059495  -0.000000
    24  C   -0.077030   0.000000
    25  C   -0.064706  -0.000000
    26  C    0.214449  -0.000000
    27  C   -0.541124   0.000000
    28  C   -0.232680   0.000000
    29  C   -0.413957  -0.000000
    30  O   -0.124718  -0.000000
    31  O   -0.173905  -0.000000
    32  H    0.283828  -0.000000
    33  H    0.231224  -0.000000
    34  H    0.132177  -0.000000
    35  H    0.149940   0.000000
    36  H    0.111498   0.000000
    37  C   -0.550474   0.000000
    38  C   -0.550541  -0.000000
    39  H    0.137251  -0.000000
    40  H    0.168736  -0.000000
    41  H    0.148432   0.000000
    42  H    0.168862  -0.000000
    43  H    0.137082   0.000000
    44  H    0.148360   0.000000
 Sum of Mulliken charges =  -2.00000   0.00000

 Dipole moment (field-independent basis, Debye):
    X=             -4.5313    Y=             -6.0279    Z=              7.4573  Tot=             10.6056
 Quadrupole moment (field-independent basis, Debye-Ang):
   XX=           -270.1158   YY=           -247.9770   ZZ=           -211.1998
   XY=              3.0301   XZ=              9.5985   YZ=             18.7977

  Exact polarizability: 392.828  15.967 460.748  -0.621  26.867 264.048
 Approx polarizability: 610.024  30.478 752.174  -5.640   0.237 486.280

                      1                      2                      3
                      A                      A                      A
 Frequencies --     11.2254                18.5027                34.3302
 Red. masses --      5.6326                 6.0558                 4.6669
 Frc consts  --      0.0004                 0.0012                 0.0032
 IR Inten    --      0.1836                 0.5880                 0.8576

                      4                      5                      6
                      A                      A                      A
 Frequencies --     34.6962                62.7999                65.8916
 Red. masses --      6.0998                 3.7479                 4.1196
 Frc consts  --      0.0043                 0.0087                 0.0105
 IR Inten    --      1.4385                 1.1193                 0.4596

                      7                      8                      9
                      A                      A                      A
 Frequencies --     71.8113                93.4315               105.9934
 Red. masses --      5.0370                 7.8422                 4.6251
 Frc consts  --      0.0153                 0.0403                 0.0306
 IR Inten    --      2.9302                 3.4626                 4.8833

                     10                     11                     12
                      A                      A                      A
 Frequencies --    129.9057               147.8060               155.3796
 Red. masses --      4.6006                 1.1077                 1.1968
 Frc consts  --      0.0457                 0.0143                 0.0170
 IR Inten    --      0.4659                 0.0316                 0.1778

                     13                     14                     15
                      A                      A                      A
 Frequencies --    172.7052               178.6068               195.1378
 Red. masses --      6.6141                 6.5306                 5.3988
 Frc consts  --      0.1162                 0.1227                 0.1211
 IR Inten    --      0.1212                 0.8507                 1.0792

                     16                     17                     18
                      A                      A                      A
 Frequencies --    202.8141               217.7954               233.2409
 Red. masses --      7.6176                 7.3074                 7.8166
 Frc consts  --      0.1846                 0.2042                 0.2505
 IR Inten    --      2.6864                 6.0134                 2.4933

                     19                     20                     21
                      A                      A                      A
 Frequencies --    234.7465               257.9509               276.3192
 Red. masses --      5.8854                13.0728                10.7404
 Frc consts  --      0.1911                 0.5125                 0.4832
 IR Inten    --      6.0393                 0.0205                 8.8386

                     22                     23                     24
                      A                      A                      A
 Frequencies --    279.4271               302.4685               303.6303
 Red. masses --      8.4600                 7.1323                 8.1208
 Frc consts  --      0.3892                 0.3844                 0.4411
 IR Inten    --      0.0061                 1.7286                 0.6938

                     25                     26                     27
                      A                      A                      A
 Frequencies --    354.2766               356.7981               366.8032
 Red. masses --      5.6611                 6.8972                 5.8441
 Frc consts  --      0.4186                 0.5173                 0.4633
 IR Inten    --      0.6687                 0.1276                 0.0274

                     28                     29                     30
                      A                      A                      A
 Frequencies --    369.7263               412.7788               413.4888
 Red. masses --      3.0976                 2.9765                 3.3596
 Frc consts  --      0.2495                 0.2988                 0.3384
 IR Inten    --      5.2499                 0.5400                 0.0342

                     31                     32                     33
                      A                      A                      A
 Frequencies --    417.1661               419.7563               422.3278
 Red. masses --      4.2529                 6.6184                 7.1957
 Frc consts  --      0.4361                 0.6871                 0.7562
 IR Inten    --      0.0299                 1.3909                 2.4807

                     34                     35                     36
                      A                      A                      A
 Frequencies --    457.0610               459.5175               483.6929
 Red. masses --      5.3824                 5.1200                 7.5912
 Frc consts  --      0.6625                 0.6370                 1.0464
 IR Inten    --      0.1311                14.0397                 4.4106

                     37                     38                     39
                      A                      A                      A
 Frequencies --    502.2227               533.9019               548.2254
 Red. masses --      6.3686                12.4559                 6.1721
 Frc consts  --      0.9464                 2.0919                 1.0929
 IR Inten    --      2.0782                75.1613               188.9469

                     40                     41                     42
                      A                      A                      A
 Frequencies --    571.1791               572.2305               599.4966
 Red. masses --      5.6385                10.6776                 7.3981
 Frc consts  --      1.0838                 2.0600                 1.5665
 IR Inten    --      7.3910                 5.7974               126.5970

                     43                     44                     45
                      A                      A                      A
 Frequencies --    627.4942               628.1976               682.5159
 Red. masses --      6.3968                 6.3999                 7.3064
 Frc consts  --      1.4840                 1.4880                 2.0053
 IR Inten    --      0.2011                 1.3486                45.9424

                     46                     47                     48
                      A                      A                      A
 Frequencies --    690.1186               692.2377               702.8386
 Red. masses --      1.6150                 1.7133                 6.2863
 Frc consts  --      0.4532                 0.4837                 1.8296
 IR Inten    --    135.4242                26.2929                23.7631

                     49                     50                     51
                      A                      A                      A
 Frequencies --    703.0085               716.3553               726.9357
 Red. masses --      7.1436                 6.2990                 5.0165
 Frc consts  --      2.0801                 1.9045                 1.5619
 IR Inten    --     18.9639                13.1115                18.4321

                     52                     53                     54
                      A                      A                      A
 Frequencies --    746.1980               747.9077               752.1312
 Red. masses --      2.2008                 2.3076                 5.5226
 Frc consts  --      0.7220                 0.7605                 1.8407
 IR Inten    --      1.1930                 7.1471                 3.0100

                     55                     56                     57
                      A                      A                      A
 Frequencies --    825.0890               830.1199               870.8917
 Red. masses --      1.2487                 1.2479                 5.2782
 Frc consts  --      0.5008                 0.5066                 2.3586
 IR Inten    --      2.3298                 2.1178                16.4163

                     58                     59                     60
                      A                      A                      A
 Frequencies --    905.0541               907.9492               960.1805
 Red. masses --      1.3966                 1.3921                 1.3692
 Frc consts  --      0.6740                 0.6761                 0.7437
 IR Inten    --      7.1708                 7.2668                 1.8479

                     61                     62                     63
                      A                      A                      A
 Frequencies --    962.6112               962.9776               965.9072
 Red. masses --      1.3675                 1.2836                 1.2941
 Frc consts  --      0.7466                 0.7013                 0.7114
 IR Inten    --      1.3511                 0.2962                 2.3822

                     64                     65                     66
                      A                      A                      A
 Frequencies --    976.8800               987.2099              1010.9392
 Red. masses --      2.2558                 6.2701                 5.9821
 Frc consts  --      1.2684                 3.6003                 3.6021
 IR Inten    --      9.2401                24.4251                50.1339

                     67                     68                     69
                      A                      A                      A
 Frequencies --   1012.2632              1033.5624              1035.1977
 Red. masses --      6.0668                 3.9232                 3.8051
 Frc consts  --      3.6627                 2.4693                 2.4025
 IR Inten    --     12.5898               234.9415                78.0570

                     70                     71                     72
                      A                      A                      A
 Frequencies --   1039.4197              1040.3983              1051.3738
 Red. masses --      2.4341                 1.6816                 1.7487
 Frc consts  --      1.5494                 1.0724                 1.1389
 IR Inten    --     62.2902                12.8937                33.8528

                     73                     74                     75
                      A                      A                      A
 Frequencies --   1052.0136              1053.1244              1087.3373
 Red. masses --      3.4415                 2.2628                 1.5844
 Frc consts  --      2.2441                 1.4786                 1.1037
 IR Inten    --     34.2687                98.3499                 0.5295

                     76                     77                     78
                      A                      A                      A
 Frequencies --   1087.7701              1091.3398              1093.5430
 Red. masses --      1.6678                 3.2754                 3.2662
 Frc consts  --      1.1627                 2.2984                 2.3012
 IR Inten    --     12.0701                36.6214               149.7260

                     79                     80                     81
                      A                      A                      A
 Frequencies --   1095.5234              1168.1355              1169.0615
 Red. masses --      3.8470                 1.1477                 1.1084
 Frc consts  --      2.7203                 0.9227                 0.8926
 IR Inten    --     54.5635                 8.9302                 2.0691

                     82                     83                     84
                      A                      A                      A
 Frequencies --   1173.9480              1187.6345              1189.4177
 Red. masses --      5.3212                 1.1585                 1.1810
 Frc consts  --      4.3208                 0.9628                 0.9844
 IR Inten    --     91.6489                 0.6220                 9.6249

                     85                     86                     87
                      A                      A                      A
 Frequencies --   1196.1265              1200.2159              1249.4775
 Red. masses --     12.1002                14.2924                 4.5955
 Frc consts  --     10.1999                12.1303                 4.2271
 IR Inten    --    262.2932                52.8909                 5.6179

                     88                     89                     90
                      A                      A                      A
 Frequencies --   1328.8658              1329.2585              1340.0518
 Red. masses --      1.6523                 1.6136                 3.6100
 Frc consts  --      1.7191                 1.6798                 3.8195
 IR Inten    --      0.0229                 3.3970                38.0604

                     91                     92                     93
                      A                      A                      A
 Frequencies --   1341.2174              1353.0008              1365.3422
 Red. masses --      3.7631                 4.9505                 2.0765
 Frc consts  --      3.9884                 5.3394                 2.2807
 IR Inten    --      1.9309               203.2586               353.9954

                     94                     95                     96
                      A                      A                      A
 Frequencies --   1392.1521              1411.8701              1435.1244
 Red. masses --      1.2568                 2.9308                 3.3718
 Frc consts  --      1.4351                 3.4421                 4.0916
 IR Inten    --     22.4790                68.1938                 0.0140

                     97                     98                     99
                      A                      A                      A
 Frequencies --   1455.6620              1464.1142              1464.2866
 Red. masses --      1.4551                 1.9772                 2.1256
 Frc consts  --      1.8167                 2.4972                 2.6852
 IR Inten    --    237.7823               114.0876                 5.6678

                    100                    101                    102
                      A                      A                      A
 Frequencies --   1465.4364              1467.6756              1493.7077
 Red. masses --      2.0386                 1.3949                 1.3646
 Frc consts  --      2.5794                 1.7704                 1.7939
 IR Inten    --    170.7257                25.4059                91.0782

                    103                    104                    105
                      A                      A                      A
 Frequencies --   1498.1183              1500.3914              1500.7796
 Red. masses --      1.0705                 2.0317                 2.0475
 Frc consts  --      1.4156                 2.6947                 2.7171
 IR Inten    --      5.5062                 3.9355                10.6453

                    106                    107                    108
                      A                      A                      A
 Frequencies --   1549.7219              1607.7867              1610.2773
 Red. masses --      4.8897                 5.2872                 5.3633
 Frc consts  --      6.9190                 8.0525                 8.1938
 IR Inten    --     58.4975                21.5075                18.3106

                    109                    110                    111
                      A                      A                      A
 Frequencies --   1612.6634              1613.5182              2999.3784
 Red. masses --      5.8626                 5.8380                 1.0488
 Frc consts  --      8.9832                 8.9549                 5.5592
 IR Inten    --     19.7645                29.9922               165.9646

                    112                    113                    114
                      A                      A                      A
 Frequencies --   3000.5661              3057.6753              3057.7507
 Red. masses --      1.0492                 1.0818                 1.0820
 Frc consts  --      5.5659                 5.9592                 5.9606
 IR Inten    --     66.4918                79.6825                27.9652

                    115                    116                    117
                      A                      A                      A
 Frequencies --   3104.8989              3105.3418              3129.7552
 Red. masses --      1.1027                 1.1026                 1.0836
 Frc consts  --      6.2634                 6.2644                 6.2538
 IR Inten    --     11.6814                15.1026                 1.2917

                    118                    119                    120
                      A                      A                      A
 Frequencies --   3130.1904              3145.9848              3147.0015
 Red. masses --      1.0837                 1.0894                 1.0894
 Frc consts  --      6.2560                 6.3523                 6.3566
 IR Inten    --      1.8801                14.9730                75.5840

                    121                    122                    123
                      A                      A                      A
 Frequencies --   3159.4234              3160.2549              3194.1062
 Red. masses --      1.0955                 1.0953                 1.0919
 Frc consts  --      6.4427                 6.4448                 6.5633
 IR Inten    --      2.7086               125.0972                 5.0227

                    124                    125                    126
                      A                      A                      A
 Frequencies --   3194.2046              3230.3867              3231.0469
 Red. masses --      1.0919                 1.0923                 1.0921
 Frc consts  --      6.5637                 6.7157                 6.7173
 IR Inten    --     12.0384                 0.3378                 4.6677

 - Thermochemistry -
 -------------------
 Temperature   298.150 Kelvin.  Pressure   1.00000 Atm.
 Atom     1 has atomic number  6 and mass  12.00000

 Molecular mass:   416.03883 amu.
 Principal axes and moments of inertia in atomic units:
                           1         2         3
     Eigenvalues --  9470.56424********************
           X            0.97845   0.20602   0.01386
           Y           -0.20077   0.96489  -0.16937
           Z           -0.04827   0.16293   0.98546
 This molecule is an asymmetric top.
 Rotational symmetry number  1.
 Warning -- assumption of classical behavior for rotation
           may cause significant error
 Rotational temperatures (Kelvin)      0.00915     0.00809     0.00518
 Rotational constants (GHZ):           0.19056     0.16854     0.10792
 Zero-point vibrational energy     828921.7 (Joules/Mol)
                                  198.11704 (Kcal/Mol)
 Warning -- explicit consideration of  42 degrees of freedom as
           vibrations may cause significant error
 Vibrational temperatures:     16.15    26.62    49.39    49.92    90.36
          (Kelvin)             94.80   103.32   134.43   152.50   186.91
                              212.66   223.56   248.48   256.98   280.76
                              291.80   313.36   335.58   337.75   371.13
                              397.56   402.03   435.18   436.86   509.73
                              513.35   527.75   531.95   593.90   594.92
                              600.21   603.94   607.64   657.61   661.14
                              695.93   722.59   768.17   788.77   821.80
                              823.31   862.54   902.82   903.84   981.99
                              992.93   995.98  1011.23  1011.47  1030.68
                             1045.90  1073.61  1076.07  1082.15  1187.12
                             1194.36  1253.02  1302.17  1306.34  1381.49
                             1384.98  1385.51  1389.72  1405.51  1420.37
                             1454.52  1456.42  1487.07  1489.42  1495.49
                             1496.90  1512.69  1513.61  1515.21  1564.44
                             1565.06  1570.19  1573.36  1576.21  1680.69
                             1682.02  1689.05  1708.74  1711.31  1720.96
                             1726.84  1797.72  1911.94  1912.51  1928.04
                             1929.71  1946.67  1964.42  2003.00  2031.37
                             2064.82  2094.37  2106.53  2106.78  2108.44
                             2111.66  2149.11  2155.46  2158.73  2159.29
                             2229.70  2313.25  2316.83  2320.26  2321.49
                             4315.44  4317.15  4399.31  4399.42  4467.26
                             4467.89  4503.02  4503.65  4526.37  4527.83
                             4545.71  4546.90  4595.61  4595.75  4647.81
                             4648.76

 Zero-point correction=                           0.315720 (Hartree/Particle)
 Thermal correction to Energy=                    0.341371
 Thermal correction to Enthalpy=                  0.342315
 Thermal correction to Gibbs Free Energy=         0.258246
 Sum of electronic and zero-point Energies=          -2019.440779
 Sum of electronic and thermal Energies=             -2019.415128
 Sum of electronic and thermal Enthalpies=           -2019.414184
 Sum of electronic and thermal Free Energies=        -2019.498252

                     E (Thermal)             CV                S
                      KCal/Mol        Cal/Mol-Kelvin    Cal/Mol-Kelvin
 Total                  214.213             98.286            176.937
 Electronic               0.000              0.000              0.000
 Translational            0.889              2.981             43.967
 Rotational               0.889              2.981             35.782
 Vibrational            212.436             92.324             97.187
 Vibration     1          0.593              1.987              7.781
 Vibration     2          0.593              1.986              6.789
 Vibration     3          0.594              1.983              5.562
 Vibration     4          0.594              1.983              5.541
 Vibration     5          0.597              1.972              4.367
 Vibration     6          0.597              1.971              4.272
 Vibration     7          0.598              1.967              4.103
 Vibration     8          0.602              1.954              3.587
 Vibration     9          0.605              1.944              3.341
 Vibration    10          0.612              1.923              2.947
 Vibration    11          0.617              1.905              2.700
 Vibration    12          0.620              1.897              2.605
 Vibration    13          0.626              1.876              2.406
 Vibration    14          0.629              1.869              2.343
 Vibration    15          0.636              1.847              2.178
 Vibration    16          0.639              1.836              2.107
 Vibration    17          0.646              1.814              1.977
 Vibration    18          0.654              1.790              1.854
 Vibration    19          0.655              1.788              1.842
 Vibration    20          0.667              1.749              1.676
 Vibration    21          0.678              1.717              1.556
 Vibration    22          0.680              1.712              1.537
 Vibration    23          0.694              1.669              1.403
 Vibration    24          0.695              1.667              1.397
 Vibration    25          0.730              1.566              1.147
 Vibration    26          0.732              1.561              1.136
 Vibration    27          0.740              1.541              1.093
 Vibration    28          0.742              1.534              1.081
 Vibration    29          0.777              1.442              0.917
 Vibration    30          0.777              1.441              0.914
 Vibration    31          0.780              1.433              0.902
 Vibration    32          0.782              1.427              0.893
 Vibration    33          0.785              1.422              0.884
 Vibration    34          0.815              1.345              0.775
 Vibration    35          0.817              1.340              0.768
 Vibration    36          0.840              1.286              0.700
 Vibration    37          0.858              1.245              0.653
 Vibration    38          0.889              1.175              0.579
 Vibration    39          0.903              1.144              0.548
 Vibration    40          0.927              1.094              0.502
 Vibration    41          0.928              1.091              0.500
 Vibration    42          0.958              1.033              0.451

 Optimization completed.
    -- Stationary point found.
 Normal termination of Gaussian 16 at Wed Jan 10 22:44:14 2024.
