 Q-Chem 5.4, Q-Chem, Inc., Pleasanton, CA (2021)
 Q-Chem 5.4.0 for Intel X86 EM64T Linux

User input:
--------------------------------------------------------------
$molecule
-2 1
C                  2.6431500000      1.4343070000     -0.2136500000
O                  2.4758130000      0.2273130000      0.5132640000
C                  1.2216400000     -0.3835270000      0.3340480000
C                  1.2337650000     -1.7096070000     -0.0930390000
C                  0.0434440000     -2.4949140000     -0.2445970000
O                  0.0490270000     -3.7283370000     -0.6407860000
C                 -1.1553460000     -1.7708270000      0.0638410000
C                 -1.1551230000     -0.4444060000      0.4900970000
O                 -2.4047380000      0.1021330000      0.8337980000
C                 -2.7270770000      1.2968280000      0.1395190000
C                  0.0320650000      0.3432620000      0.6894980000
O                  0.0317230000      1.5576350000      1.1580390000
H                  3.6335430000      1.8310000000      0.0466500000
H                  2.6176750000      1.2429390000     -1.3009510000
H                  1.8616210000      2.1513230000      0.0551520000
H                  2.1914960000     -2.1728400000     -0.3202060000
H                 -2.1096860000     -2.2830480000     -0.0376610000
H                 -2.8353410000      1.1035810000     -0.9423180000
H                 -3.6933240000      1.6437860000      0.5294270000
H                 -1.9543260000      2.0533980000      0.3057750000
$end
$rem
MAX_SCF_CYCLES=200
BASIS  =  6-311++G(d,p)
GUI  =  2
JOB_TYPE  =  SP
METHOD  =  B3LYP
SOLVENT_METHOD = COSMO
$end
$solvent
dielectric 37.219
opticaldielectric 1.43
$end

--------------------------------------------------------------

             Standard Nuclear Orientation (Angstroms)
    I     Atom           X                Y                Z
 ----------------------------------------------------------------
    1      C      -2.6910401097     1.6418315691     0.5957412938
    2      O      -2.4460459193     0.5995423928    -0.3353071855
    3      C      -1.1913740824    -0.0191965640    -0.1898613911
    4      C      -1.1981474705    -1.4027526664    -0.0262609019
    5      C      -0.0009660426    -2.1881232335     0.0543039531
    6      O      -0.0015161229    -3.4747341701     0.2058334413
    7      C       1.1968910534    -1.4037752556    -0.0261328212
    8      C       1.1912838628    -0.0201936279    -0.1897095166
    9      O       2.4466205615     0.5973482870    -0.3351215535
   10      C       2.6925425758     1.6397645106     0.5955301985
   11      C       0.0003085557     0.7767456369    -0.3164478700
   12      O       0.0008586981     2.0585359254    -0.5428234926
   13      H      -3.6718759885     2.0692482199     0.3482019916
   14      H      -2.7321815568     1.2449604862     1.6254475026
   15      H      -1.9118356536     2.4065721518     0.5238643572
   16      H      -2.1567685834    -1.9125880892     0.0412056095
   17      H       2.1550918943    -1.9144000768     0.0413303920
   18      H       2.7343912530     1.2431012038     1.6252601148
   19      H       3.6732650050     2.0669560750     0.3470704402
   20      H       1.9135858360     2.4048083326     0.5239922478
 ----------------------------------------------------------------

   13    -610.6475369070      5.33e-06  Convergence criterion met
 Total energy in the final basis set =     -610.6475369070
    5    -610.9504998015      8.03e-06  Convergence criterion met
 Total energy in the final basis set =     -610.9504998015

                    Orbital Energies (a.u.)
 --------------------------------------------------------------

 Alpha MOs
 -- Occupied --
-19.1171 -19.1171 -19.0235 -19.0196 -10.1891 -10.1891 -10.1817 -10.1817
-10.1772 -10.1732 -10.1207 -10.1206  -1.0264  -1.0232  -0.9358  -0.9276
 -0.7827  -0.7179  -0.6765  -0.6444  -0.6406  -0.5580  -0.5375  -0.4745
 -0.4697  -0.4403  -0.4385  -0.4322  -0.4293  -0.4221  -0.3941  -0.3682
 -0.3578  -0.3437  -0.3388  -0.3290  -0.3252  -0.3178  -0.2755  -0.2605
 -0.2269  -0.2062  -0.2029  -0.1926  -0.1240

          Ground-State Mulliken Net Atomic Charges

     Atom                 Charge (a.u.)
  ----------------------------------------
      1 C                    -0.297812
      2 O                    -0.262008
      3 C                    -0.716006
      4 C                     0.613452
      5 C                    -0.694161
      6 O                    -0.779489
      7 C                     0.612333
      8 C                    -0.716511
      9 O                    -0.261989
     10 C                    -0.297775
     11 C                     0.328685
     12 O                    -0.762946
     13 H                     0.143604
     14 H                     0.125919
     15 H                     0.177646
     16 H                     0.170033
     17 H                     0.169868
     18 H                     0.125848
     19 H                     0.143731
     20 H                     0.177578
  ----------------------------------------
  Sum of atomic charges =    -2.000000

                    Cartesian Multipole Moments
 -----------------------------------------------------------------
    Charge (ESU x 10^10)
                -9.6064
    Dipole Moment (Debye)
         X       0.0010      Y       8.6000      Z       3.9546
       Tot       9.4656
    Quadrupole Moments (Debye-Ang)
        XX     -87.9512     XY      -0.0176     YY    -141.5099
        XZ       0.0053     YZ      10.0668     ZZ     -81.6569

 Total job time:  29.99s(wall), 214.02s(cpu)
        *  Thank you very much for using Q-Chem.  Have a nice day.  *
