 Q-Chem 5.4, Q-Chem, Inc., Pleasanton, CA (2021)
 Q-Chem 5.4.0 for Intel X86 EM64T Linux

User input:
--------------------------------------------------------------
$molecule
-2 1
C                 -2.4010860000      1.9051610000     -0.0312620000
C                 -1.2424200000      0.9349060000     -0.0133570000
C                 -1.4798560000     -0.4555920000      0.1425560000
C                 -2.8930220000     -0.9729020000      0.2824780000
C                 -0.4355010000     -1.4298260000      0.1778210000
O                 -0.6463740000     -2.7000890000      0.3225510000
C                  0.9087740000     -0.8880540000      0.0303050000
C                  2.0221950000     -1.7616350000      0.0321180000
C                  3.3211290000     -1.3013640000     -0.0940250000
C                  3.5595100000      0.0897280000     -0.2324550000
C                  2.4895060000      0.9671630000     -0.2462100000
C                  1.1501550000      0.5255050000     -0.1279990000
C                  0.0635260000      1.4953080000     -0.1601380000
O                  0.2858030000      2.7635570000     -0.3055150000
H                 -3.0813960000      1.7389180000     -0.8832480000
H                 -3.0235970000      1.8350410000      0.8750750000
H                 -1.9960500000      2.9175040000     -0.1057660000
H                 -2.8524730000     -2.0637650000      0.3356050000
H                 -3.5348550000     -0.6799250000     -0.5637550000
H                 -3.3945170000     -0.5986360000      1.1906460000
H                  1.8052810000     -2.8200740000      0.1407840000
H                  4.1582150000     -1.9990650000     -0.0846140000
H                  4.5796570000      0.4603770000     -0.3299690000
H                  2.6373950000      2.0377560000     -0.3516270000
$end
$rem
MAX_SCF_CYCLES=200
BASIS  =  6-311++G(d,p)
GUI  =  2
JOB_TYPE  =  SP
METHOD  =  B3LYP
SOLVENT_METHOD = COSMO
$end
$solvent
dielectric 37.219
opticaldielectric 1.43
$end

--------------------------------------------------------------

             Standard Nuclear Orientation (Angstroms)
    I     Atom           X                Y                Z
 ----------------------------------------------------------------
    1      C       2.9271193416    -1.4682694708     0.0036242189
    2      C       1.6199978395    -0.7095604067    -0.0003992643
    3      C       1.6199573480     0.7096537168     0.0004228649
    4      C       2.9270981045     1.4683319804    -0.0036120834
    5      C       0.4254127345     1.4932905056     0.0058471050
    6      O       0.4195487948     2.7890282021     0.0092706035
    7      C      -0.8100715144     0.7213440512     0.0003254753
    8      C      -2.0566848555     1.3911439832    -0.0129637206
    9      C      -3.2606861438     0.7089780689    -0.0083215804
   10      C      -3.2606563139    -0.7090656016     0.0083357376
   11      C      -2.0566451204    -1.3912133898     0.0129595984
   12      C      -0.8100283366    -0.7213872391    -0.0003164325
   13      C       0.4254824856    -1.4932655712    -0.0058124735
   14      O       0.4197483732    -2.7890092679    -0.0093416772
   15      H       3.5278175211    -1.2846294227    -0.9028947303
   16      H       3.5696868096    -1.1963281386     0.8562897324
   17      H       2.7005652232    -2.5361140117     0.0567714193
   18      H       2.7006971459     2.5361996927    -0.0569969056
   19      H       3.5697712494     1.1962085036    -0.8561468069
   20      H       3.5276879931     1.2848015381     0.9030023619
   21      H      -2.0215911668     2.4764023147    -0.0246207524
   22      H      -4.2046234738     1.2535270245    -0.0144023465
   23      H      -4.2045853893    -1.2536298382     0.0144394872
   24      H      -2.0215766707    -2.4764728974     0.0245904587
 ----------------------------------------------------------------

   11    -613.8822084156      6.60e-06  Convergence criterion met
 Total energy in the final basis set =     -613.8822084156
    6    -614.1691468938      2.50e-06  Convergence criterion met
 Total energy in the final basis set =     -614.1691468938

                    Orbital Energies (a.u.)
 --------------------------------------------------------------

 Alpha MOs
 -- Occupied --
-19.0176 -19.0175 -10.1670 -10.1670 -10.1483 -10.1478 -10.1444 -10.1444
-10.1359 -10.1355 -10.1331 -10.1331 -10.1256 -10.1252  -0.9340  -0.9307
 -0.8237  -0.7772  -0.7245  -0.7209  -0.6955  -0.6426  -0.6216  -0.5675
 -0.5551  -0.5180  -0.4776  -0.4581  -0.4298  -0.4215  -0.4045  -0.3982
 -0.3804  -0.3707  -0.3700  -0.3623  -0.3590  -0.3510  -0.3503  -0.3255
 -0.3154  -0.3101  -0.3046  -0.2991  -0.2293  -0.2245  -0.2030  -0.2016
 -0.1932  -0.1119

          Ground-State Mulliken Net Atomic Charges

     Atom                 Charge (a.u.)
  ----------------------------------------
      1 C                    -0.510581
      2 C                     0.795317
      3 C                     0.797045
      4 C                    -0.510850
      5 C                    -1.138587
      6 O                    -0.745794
      7 C                     0.564734
      8 C                    -0.210196
      9 C                    -0.532847
     10 C                    -0.532670
     11 C                    -0.210658
     12 C                     0.562243
     13 C                    -1.137202
     14 O                    -0.745806
     15 H                     0.140338
     16 H                     0.134434
     17 H                     0.169085
     18 H                     0.169113
     19 H                     0.134374
     20 H                     0.140312
     21 H                     0.156547
     22 H                     0.177524
     23 H                     0.177540
     24 H                     0.156583
  ----------------------------------------
  Sum of atomic charges =    -2.000000

                    Cartesian Multipole Moments
 -----------------------------------------------------------------
    Charge (ESU x 10^10)
                -9.6064
    Dipole Moment (Debye)
         X      -1.4981      Y       0.0005      Z      -0.0006
       Tot       1.4981
    Quadrupole Moments (Debye-Ang)
        XX    -100.8138     XY       0.0014     YY    -152.4835
        XZ       0.0048     YZ      -0.2819     ZZ     -94.0283

 Total job time:  39.11s(wall), 296.19s(cpu)
        *  Thank you very much for using Q-Chem.  Have a nice day.  *
