 Gaussian 16, Revision A.03,
 Gaussian 16:  ES64L-G16RevA.03 25-Dec-2016

 ----------------------------------------------
 #P UB3LYP/6-311++G(d,p) nosym opt freq SCF=YQC
 ----------------------------------------------

 -------
 Reduced
 -------
 Symbolic Z-matrix:
 Charge = -2 Multiplicity = 1

 SCF Done:  E(UB3LYP) =  -613.881922332     a.u. after    7 cycles
 SCF Done:  E(UB3LYP) =  -613.882169124     A.U. after   30 cycles
 SCF Done:  E(UB3LYP) =  -613.882330774     a.u. after    7 cycles
 SCF Done:  E(UB3LYP) =  -613.882386490     A.U. after   33 cycles
 SCF Done:  E(UB3LYP) =  -613.882386490     a.u. after    1 cycles
 SCF Done:  E(UB3LYP) =  -613.882366454     a.u. after    3 cycles
 SCF Done:  E(UB3LYP) =  -613.882399497     A.U. after   32 cycles
 SCF Done:  E(UB3LYP) =  -613.882372192     a.u. after    1 cycles
 SCF Done:  E(UB3LYP) =  -613.882402521     A.U. after   33 cycles
 SCF Done:  E(UB3LYP) =  -613.882650862     a.u. after    7 cycles
 SCF Done:  E(UB3LYP) =  -613.882847599     a.u. after    1 cycles
 SCF Done:  E(UB3LYP) =  -613.882849802     A.U. after   27 cycles
 SCF Done:  E(UB3LYP) =  -613.882849502     a.u. after    1 cycles
 SCF Done:  E(UB3LYP) =  -613.882849828     A.U. after   28 cycles
 SCF Done:  E(UB3LYP) =  -613.882849382     a.u. after    1 cycles
 SCF Done:  E(UB3LYP) =  -613.882849831     A.U. after   25 cycles
 SCF Done:  E(UB3LYP) =  -613.882849109     a.u. after    1 cycles
 SCF Done:  E(UB3LYP) =  -613.882849827     A.U. after   26 cycles
 Optimization completed.
    -- Stationary point found.
 Normal termination of Gaussian 16 at Sun Jan  7 23:17:08 2024.

 ----------------------------------------------------------------------
 #P Geom=AllCheck Guess=TCheck SCRF=Check GenChk UB3LYP/6-311++G(d,p) F
 req
 ----------------------------------------------------------------------

 Structure from the checkpoint file:  "241-an.chk"
 -------
 Reduced
 -------
 Charge = -2 Multiplicity = 1

                          Input orientation:
 ---------------------------------------------------------------------
 Center     Atomic      Atomic             Coordinates (Angstroms)
 Number     Number       Type             X           Y           Z
 ---------------------------------------------------------------------
      1          6           0       -2.401086    1.905161   -0.031262
      2          6           0       -1.242420    0.934906   -0.013357
      3          6           0       -1.479856   -0.455592    0.142556
      4          6           0       -2.893022   -0.972902    0.282478
      5          6           0       -0.435501   -1.429826    0.177821
      6          8           0       -0.646374   -2.700089    0.322551
      7          6           0        0.908774   -0.888054    0.030305
      8          6           0        2.022195   -1.761635    0.032118
      9          6           0        3.321129   -1.301364   -0.094025
     10          6           0        3.559510    0.089728   -0.232455
     11          6           0        2.489506    0.967163   -0.246210
     12          6           0        1.150155    0.525505   -0.127999
     13          6           0        0.063526    1.495308   -0.160138
     14          8           0        0.285803    2.763557   -0.305515
     15          1           0       -3.081396    1.738918   -0.883248
     16          1           0       -3.023597    1.835041    0.875075
     17          1           0       -1.996050    2.917504   -0.105766
     18          1           0       -2.852473   -2.063765    0.335605
     19          1           0       -3.534855   -0.679925   -0.563755
     20          1           0       -3.394517   -0.598636    1.190646
     21          1           0        1.805281   -2.820074    0.140784
     22          1           0        4.158215   -1.999065   -0.084614
     23          1           0        4.579657    0.460377   -0.329969
     24          1           0        2.637395    2.037756   -0.351627
 ---------------------------------------------------------------------

 SCF Done:  E(UB3LYP) =  -613.882849827     a.u. after    1 cycles
 SCF Done:  E(UB3LYP) =  -613.882849827     A.U. after    4 cycles

 Alpha  occ. eigenvalues --  -18.76499 -18.76498  -9.92231  -9.92230  -9.91477
 Alpha  occ. eigenvalues --   -9.91432  -9.91094  -9.91093  -9.90601  -9.90599
 Alpha  occ. eigenvalues --   -9.89222  -9.89183  -9.88633  -9.88588  -0.67984
 Alpha  occ. eigenvalues --   -0.67571  -0.58255  -0.53928  -0.48729  -0.48021
 Alpha  occ. eigenvalues --   -0.46582  -0.40984  -0.38065  -0.33095  -0.31867
 Alpha  occ. eigenvalues --   -0.27768  -0.23999  -0.22341  -0.19026  -0.18566
 Alpha  occ. eigenvalues --   -0.17772  -0.15830  -0.14737  -0.13744  -0.13255
 Alpha  occ. eigenvalues --   -0.13020  -0.11775  -0.11653  -0.10043  -0.08908
 Alpha  occ. eigenvalues --   -0.06748  -0.06553  -0.06046  -0.05356   0.01513
 Alpha  occ. eigenvalues --    0.02748   0.04156   0.05345   0.06122   0.14235
 Alpha virt. eigenvalues --    0.15847   0.17287   0.17869   0.19094   0.20513
 Alpha virt. eigenvalues --    0.20952   0.22039   0.22307   0.22783   0.23565
 Alpha virt. eigenvalues --    0.24519   0.24986   0.25044   0.26662   0.28118

  Beta  occ. eigenvalues --  -18.76499 -18.76498  -9.92231  -9.92230  -9.91477
  Beta  occ. eigenvalues --   -9.91432  -9.91094  -9.91093  -9.90601  -9.90599
  Beta  occ. eigenvalues --   -9.89222  -9.89183  -9.88633  -9.88588  -0.67984
  Beta  occ. eigenvalues --   -0.67571  -0.58255  -0.53928  -0.48729  -0.48021
  Beta  occ. eigenvalues --   -0.46582  -0.40984  -0.38065  -0.33095  -0.31867
  Beta  occ. eigenvalues --   -0.27768  -0.23999  -0.22341  -0.19026  -0.18566
  Beta  occ. eigenvalues --   -0.17772  -0.15830  -0.14737  -0.13744  -0.13255
  Beta  occ. eigenvalues --   -0.13020  -0.11775  -0.11653  -0.10043  -0.08908
  Beta  occ. eigenvalues --   -0.06748  -0.06553  -0.06046  -0.05356   0.01513
  Beta  occ. eigenvalues --    0.02748   0.04156   0.05345   0.06122   0.14235
  Beta virt. eigenvalues --    0.15847   0.17287   0.17869   0.19094   0.20513
  Beta virt. eigenvalues --    0.20952   0.22039   0.22307   0.22783   0.23565
  Beta virt. eigenvalues --    0.24519   0.24986   0.25044   0.26662   0.28118

 Mulliken charges and spin densities:
               1          2
     1  C   -0.589749   0.000000
     2  C    1.036869  -0.000000
     3  C    1.037829   0.000000
     4  C   -0.590251   0.000000
     5  C   -1.501479  -0.000000
     6  O   -0.532591  -0.000000
     7  C    0.885708  -0.000000
     8  C   -0.669676   0.000000
     9  C    0.376522  -0.000000
    10  C    0.376959  -0.000000
    11  C   -0.669640   0.000000
    12  C    0.883147   0.000000
    13  C   -1.501328   0.000000
    14  O   -0.532590  -0.000000
    15  H    0.072791  -0.000000
    16  H    0.076086  -0.000000
    17  H    0.178570  -0.000000
    18  H    0.178516   0.000000
    19  H    0.076095  -0.000000
    20  H    0.072814   0.000000
    21  H    0.173135  -0.000000
    22  H   -0.505495   0.000000
    23  H   -0.505358   0.000000
    24  H    0.173114  -0.000000
 Sum of Mulliken charges =  -2.00000   0.00000

 Dipole moment (field-independent basis, Debye):
    X=             -6.1316    Y=              1.0798    Z=              0.2910  Tot=              6.2327
 Quadrupole moment (field-independent basis, Debye-Ang):
   XX=           -155.7591   YY=           -149.4567   ZZ=            -98.6268
   XY=              1.3697   XZ=              3.4253   YZ=              3.9475

  Exact polarizability:1919.604-187.533 883.556 -77.764  48.920 143.400
 Approx polarizability:3452.914-510.489 645.628-155.170  21.881 198.565

                      1                      2                      3
                      A                      A                      A
 Frequencies --     59.5975                78.6296               115.0949
 Red. masses --      1.0645                 5.2487                 2.9074
 Frc consts  --      0.0022                 0.0191                 0.0227
 IR Inten    --      0.0050                 4.2192                 0.3528

                      4                      5                      6
                      A                      A                      A
 Frequencies --    134.9090               149.2821               182.7849
 Red. masses --      1.0897                 3.8766                 4.5342
 Frc consts  --      0.0117                 0.0509                 0.0893
 IR Inten    --      4.0913                 0.4473                 6.9996

                      7                      8                      9
                      A                      A                      A
 Frequencies --    253.4842               290.3264               312.5053
 Red. masses --      4.3306                 3.8891                 2.6084
 Frc consts  --      0.1639                 0.1931                 0.1501
 IR Inten    --      3.9599                 6.8436                 8.9805

                     10                     11                     12
                      A                      A                      A
 Frequencies --    335.9019               370.4284               383.8005
 Red. masses --      4.0622                 9.2534                 7.0000
 Frc consts  --      0.2700                 0.7481                 0.6075
 IR Inten    --      0.2438               132.5408                 0.0089

                     13                     14                     15
                      A                      A                      A
 Frequencies --    416.3186               430.6428               456.8562
 Red. masses --      7.0050                 5.7789                 3.2056
 Frc consts  --      0.7153                 0.6314                 0.3942
 IR Inten    --    918.4028                25.1955                14.3555

                     16                     17                     18
                      A                      A                      A
 Frequencies --    505.4564               512.4869               604.1641
 Red. masses --      8.0622                 4.0874                 5.1953
 Frc consts  --      1.2136                 0.6325                 1.1173
 IR Inten    --    658.4302                 4.8579                 2.1346

                     19                     20                     21
                      A                      A                      A
 Frequencies --    663.8653               671.3668               676.6431
 Red. masses --      6.0330                 5.1166                 4.5631
 Frc consts  --      1.5665                 1.3588                 1.2309
 IR Inten    --      1.7060                22.8239                14.4753

                     22                     23                     24
                      A                      A                      A
 Frequencies --    706.3372               789.4474               810.2979
 Red. masses --      3.2741                 2.5925                 1.6045
 Frc consts  --      0.9624                 0.9520                 0.6207
 IR Inten    --      1.6816                 0.4908                88.1560

                     25                     26                     27
                      A                      A                      A
 Frequencies --    827.8972               840.7999               890.4622
 Red. masses --      3.4594                 1.9817                 3.5148
 Frc consts  --      1.3970                 0.8254                 1.6421
 IR Inten    --     72.9198                 0.9266                90.7142

                     28                     29                     30
                      A                      A                      A
 Frequencies --    962.0697               974.8888               983.7664
 Red. masses --      1.2114                 1.4406                 3.2050
 Frc consts  --      0.6606                 0.8067                 1.8275
 IR Inten    --      0.3986               152.8338                 6.8357

                     31                     32                     33
                      A                      A                      A
 Frequencies --    995.3012              1015.4026              1025.4269
 Red. masses --      1.7873                 1.9623                 1.3985
 Frc consts  --      1.0432                 1.1921                 0.8664
 IR Inten    --     82.3074               372.9855                 1.9973

                     34                     35                     36
                      A                      A                      A
 Frequencies --   1043.6949              1091.2939              1095.8407
 Red. masses --      1.4935                 2.3169                 2.1940
 Frc consts  --      0.9585                 1.6257                 1.5523
 IR Inten    --      0.0419                33.9908                21.7989

                     37                     38                     39
                      A                      A                      A
 Frequencies --   1117.7440              1170.4749              1195.4346
 Red. masses --      1.5499                 2.6096                 1.9232
 Frc consts  --      1.1409                 2.1065                 1.6193
 IR Inten    --    143.4113                41.5630                57.2203

                     40                     41                     42
                      A                      A                      A
 Frequencies --   1225.4863              1265.5638              1326.1064
 Red. masses --      3.5156                 2.2948                 6.3313
 Frc consts  --      3.1108                 2.1655                 6.5599
 IR Inten    --    309.2192                64.9552              2665.7034

                     43                     44                     45
                      A                      A                      A
 Frequencies --   1334.3130              1354.8478              1396.6915
 Red. masses --      1.4519                 1.7931                 3.2290
 Frc consts  --      1.5230                 1.9393                 3.7112
 IR Inten    --    156.1702                23.8222              1673.0508

                     46                     47                     48
                      A                      A                      A
 Frequencies --   1411.4919              1421.1883              1440.3715
 Red. masses --      2.4208                 3.9475                 3.9694
 Frc consts  --      2.8416                 4.6976                 4.8520
 IR Inten    --    151.3955               344.3024              1285.4192

                     49                     50                     51
                      A                      A                      A
 Frequencies --   1465.3138              1471.7382              1480.6606
 Red. masses --      1.3759                 1.3191                 1.1958
 Frc consts  --      1.7406                 1.6834                 1.5446
 IR Inten    --     29.9274               613.7737               802.9077

                     52                     53                     54
                      A                      A                      A
 Frequencies --   1488.0937              1499.6155              1507.0372
 Red. masses --      1.8347                 1.1037                 2.7467
 Frc consts  --      2.3938                 1.4624                 3.6755
 IR Inten    --   2721.7312                 5.4464               109.2383

                     55                     56                     57
                      A                      A                      A
 Frequencies --   1554.0656              1586.1346              2901.9908
 Red. masses --      6.2694                 5.3130                 1.0940
 Frc consts  --      8.9211                 7.8754                 5.4280
 IR Inten    --   2892.3370                38.7801               163.8876

                     58                     59                     60
                      A                      A                      A
 Frequencies --   2921.9533              2935.4363              2946.5505
 Red. masses --      1.0469                 1.0449                 1.0928
 Frc consts  --      5.2664                 5.3049                 5.5901
 IR Inten    --     46.9243              2575.7604               273.1458

                     61                     62                     63
                      A                      A                      A
 Frequencies --   3072.2072              3072.7820              3081.0521
 Red. masses --      1.0909                 1.0904                 1.0836
 Frc consts  --      6.0665                 6.0659                 6.0606
 IR Inten    --     26.7000                26.5154               690.0953

                     64                     65                     66
                      A                      A                      A
 Frequencies --   3106.7835              3153.6242              3155.3824
 Red. masses --      1.0911                 1.0900                 1.0908
 Frc consts  --      6.2047                 6.3868                 6.3990
 IR Inten    --     91.1412                 6.0008                83.2047

 - Thermochemistry -
 -------------------
 Temperature   298.150 Kelvin.  Pressure   1.00000 Atm.
 Atom     1 has atomic number  6 and mass  12.00000

 Molecular mass:   186.06808 amu.
 Principal axes and moments of inertia in atomic units:
                           1         2         3
     Eigenvalues --  1696.355092725.567344399.50482
           X            0.98377   0.16735   0.06473
           Y           -0.17325   0.97978   0.10006
           Z           -0.04668  -0.10965   0.99287
 This molecule is an asymmetric top.
 Rotational symmetry number  1.
 Warning -- assumption of classical behavior for rotation
           may cause significant error
 Rotational temperatures (Kelvin)      0.05106     0.03178     0.01969
 Rotational constants (GHZ):           1.06389     0.66215     0.41021
 Zero-point vibrational energy     476817.2 (Joules/Mol)
                                  113.96204 (Kcal/Mol)
 Warning -- explicit consideration of  18 degrees of freedom as
           vibrations may cause significant error
 Vibrational temperatures:     85.75   113.13   165.60   194.10   214.78
          (Kelvin)            262.99   364.71   417.71   449.63   483.29
                              532.96   552.20   598.99   619.60   657.31
                              727.24   737.35   869.26   955.15   965.95
                              973.54  1016.26  1135.84  1165.84  1191.16
                             1209.72  1281.18  1384.20  1402.65  1415.42
                             1432.02  1460.94  1475.36  1501.64  1570.13
                             1576.67  1608.18  1684.05  1719.96  1763.20
                             1820.86  1907.97  1919.78  1949.32  2009.53
                             2030.82  2044.77  2072.37  2108.26  2117.50
                             2130.34  2141.03  2157.61  2168.29  2235.95
                             2282.09  4175.32  4204.04  4223.44  4239.43
                             4420.22  4421.05  4432.95  4469.97  4537.36
                             4539.89

 Zero-point correction=                           0.181610 (Hartree/Particle)
 Thermal correction to Energy=                    0.193758
 Thermal correction to Enthalpy=                  0.194702
 Thermal correction to Gibbs Free Energy=         0.143396
 Sum of electronic and zero-point Energies=           -613.701240
 Sum of electronic and thermal Energies=              -613.689092
 Sum of electronic and thermal Enthalpies=            -613.688148
 Sum of electronic and thermal Free Energies=         -613.739453

                     E (Thermal)             CV                S
                      KCal/Mol        Cal/Mol-Kelvin    Cal/Mol-Kelvin
 Total                  121.585             47.065            107.982
 Electronic               0.000              0.000              0.000
 Translational            0.889              2.981             41.569
 Rotational               0.889              2.981             31.387
 Vibrational            119.807             41.103             35.026
 Vibration     1          0.597              1.974              4.470
 Vibration     2          0.600              1.964              3.925
 Vibration     3          0.608              1.937              3.181
 Vibration     4          0.613              1.918              2.875
 Vibration     5          0.618              1.903              2.681
 Vibration     6          0.630              1.863              2.300
 Vibration     7          0.665              1.757              1.706
 Vibration     8          0.686              1.692              1.472
 Vibration     9          0.701              1.650              1.349
 Vibration    10          0.717              1.604              1.232
 Vibration    11          0.742              1.533              1.078
 Vibration    12          0.753              1.505              1.024
 Vibration    13          0.780              1.435              0.905
 Vibration    14          0.792              1.403              0.857
 Vibration    15          0.815              1.346              0.775
 Vibration    16          0.861              1.238              0.645
 Vibration    17          0.868              1.222              0.628
 Vibration    18          0.963              1.023              0.443

                           ! Non-Optimized Parameters !
 Normal termination of Gaussian 16 at Sun Jan  7 23:33:28 2024.
