 Gaussian 16, Revision A.03,
 Gaussian 16:  ES64L-G16RevA.03 25-Dec-2016

 ----------------------------------------------------------------
 #P UB3LYP/6-311++G(d,p) SCRF=(PCM,Solvent=n,n-DiMethylFormamide)
 ----------------------------------------------------------------

 -------
 Reduced
 -------
 Symbolic Z-matrix:
 Charge = -2 Multiplicity = 1

                         Standard orientation:
 ---------------------------------------------------------------------
 Center     Atomic      Atomic             Coordinates (Angstroms)
 Number     Number       Type             X           Y           Z
 ---------------------------------------------------------------------
      1          6           0        4.828364    0.285779   -0.719235
      2          6           0        5.528716   -0.900342   -0.818932
      3          6           0        4.906298   -2.123039   -0.462004
      4          6           0        3.485195    0.319166   -0.263641
      5          6           0        2.849726   -0.925932    0.098657
      6          6           0        3.593542   -2.115186   -0.015284
      7          6           0        2.770212    1.555947   -0.162576
      8          6           0        1.424030    1.460849    0.309489
      9          6           0        0.776567    0.283963    0.674166
     10          6           0        1.463724   -0.978183    0.579564
     11          8           0        3.231921    2.735402   -0.454306
     12          8           0        0.907215   -2.080616    0.901088
     13          1           0        5.285128    1.233386   -0.987011
     14          1           0        6.558254   -0.897176   -1.171911
     15          1           0        5.454807   -3.058962   -0.539649
     16          1           0        3.088013   -3.034277    0.264350
     17          8           0        0.796957    2.683952    0.385003
     18          6           0       -0.644328    0.299526    1.179559
     19          6           0       -1.703047    0.068679    0.081417
     20          6           0       -3.141000    0.056985    0.618126
     21          6           0       -4.213344   -0.157833   -0.458129
     22          6           0       -5.651455   -0.156252    0.079973
     23          1           0        1.530065    3.268345    0.070387
     24          1           0       -0.850685    1.257874    1.670687
     25          1           0       -0.746187   -0.500303    1.922061
     26          1           0       -1.484803   -0.885846   -0.409865
     27          1           0       -1.603551    0.852399   -0.679660
     28          1           0       -3.340307    1.005440    1.137240
     29          1           0       -3.232729   -0.730328    1.378965
     30          1           0       -4.021328   -1.109541   -0.971410
     31          1           0       -4.115629    0.623321   -1.224293
     32          1           0       -5.844560    0.795748    0.592657
     33          1           0       -5.751443   -0.936183    0.846752
     34          6           0       -6.724318   -0.371670   -0.995501
     35          6           0       -8.157272   -0.366287   -0.452526
     36          1           0       -6.533804   -1.324034   -1.506891
     37          1           0       -6.624659    0.406391   -1.763396
     38          1           0       -8.307742   -1.158481    0.290050
     39          1           0       -8.898535   -0.521581   -1.244204
     40          1           0       -8.398704    0.586899    0.032114
 ---------------------------------------------------------------------

 SCF Done:  E(UB3LYP) =  -886.038551829     A.U. after   18 cycles

 The electronic state is 1-A.
 Alpha  occ. eigenvalues --  -19.10803 -19.02184 -19.01402 -10.17189 -10.16874
 Alpha  occ. eigenvalues --  -10.15918 -10.15686 -10.15583 -10.15418 -10.15345
 Alpha  occ. eigenvalues --  -10.15096 -10.14555 -10.14492 -10.14162 -10.14126
 Alpha  occ. eigenvalues --  -10.14068 -10.13852 -10.13174 -10.12775 -10.11954
 Alpha  occ. eigenvalues --   -1.02205  -0.93654  -0.92715  -0.82032  -0.80051
 Alpha  occ. eigenvalues --   -0.77774  -0.75661  -0.72784  -0.71798  -0.69609
 Alpha  occ. eigenvalues --   -0.65910  -0.62793  -0.60497  -0.58025  -0.57154
 Alpha  occ. eigenvalues --   -0.56672  -0.55006  -0.53070  -0.49898  -0.47387
 Alpha  occ. eigenvalues --   -0.46703  -0.45022  -0.43882  -0.42668  -0.42354
 Alpha  occ. eigenvalues --   -0.41974  -0.40672  -0.40069  -0.39714  -0.39152
 Alpha  occ. eigenvalues --   -0.37977  -0.36769  -0.36682  -0.35926  -0.35229
 Alpha  occ. eigenvalues --   -0.34923  -0.34623  -0.34148  -0.32946  -0.32772
 Alpha  occ. eigenvalues --   -0.31941  -0.31679  -0.31511  -0.30851  -0.30745
 Alpha  occ. eigenvalues --   -0.30036  -0.29355  -0.29065  -0.22614  -0.22041
 Alpha  occ. eigenvalues --   -0.21042  -0.19217  -0.18785  -0.10285
 Alpha virt. eigenvalues --   -0.00243  -0.00084   0.00223   0.00995   0.01279
 Alpha virt. eigenvalues --    0.01360   0.02024   0.02321   0.02384   0.03117
 Alpha virt. eigenvalues --    0.03260   0.03995   0.04708   0.04835   0.05069

  Beta  occ. eigenvalues --  -19.10803 -19.02184 -19.01402 -10.17189 -10.16874
  Beta  occ. eigenvalues --  -10.15918 -10.15686 -10.15583 -10.15418 -10.15345
  Beta  occ. eigenvalues --  -10.15096 -10.14555 -10.14492 -10.14162 -10.14126
  Beta  occ. eigenvalues --  -10.14068 -10.13852 -10.13174 -10.12775 -10.11954
  Beta  occ. eigenvalues --   -1.02205  -0.93654  -0.92715  -0.82032  -0.80051
  Beta  occ. eigenvalues --   -0.77774  -0.75661  -0.72784  -0.71798  -0.69609
  Beta  occ. eigenvalues --   -0.65910  -0.62793  -0.60497  -0.58025  -0.57154
  Beta  occ. eigenvalues --   -0.56672  -0.55006  -0.53070  -0.49898  -0.47387
  Beta  occ. eigenvalues --   -0.46703  -0.45022  -0.43882  -0.42668  -0.42354
  Beta  occ. eigenvalues --   -0.41974  -0.40672  -0.40069  -0.39714  -0.39152
  Beta  occ. eigenvalues --   -0.37977  -0.36769  -0.36682  -0.35926  -0.35229
  Beta  occ. eigenvalues --   -0.34923  -0.34623  -0.34148  -0.32946  -0.32772
  Beta  occ. eigenvalues --   -0.31941  -0.31679  -0.31511  -0.30851  -0.30745
  Beta  occ. eigenvalues --   -0.30036  -0.29355  -0.29065  -0.22614  -0.22041
  Beta  occ. eigenvalues --   -0.21042  -0.19217  -0.18785  -0.10285
  Beta virt. eigenvalues --   -0.00243  -0.00084   0.00223   0.00995   0.01279
  Beta virt. eigenvalues --    0.01360   0.02024   0.02321   0.02384   0.03117
  Beta virt. eigenvalues --    0.03260   0.03995   0.04708   0.04835   0.05069

 Mulliken charges and spin densities:
               1          2
     1  C   -0.058477   0.000000
     2  C   -0.386318   0.000000
     3  C   -0.502739   0.000000
     4  C    0.481324  -0.000000
     5  C   -0.070405  -0.000000
     6  C    0.027308   0.000000
     7  C   -1.010803   0.000000
     8  C   -0.646530  -0.000000
     9  C    2.028202   0.000000
    10  C   -0.774055  -0.000000
    11  O   -0.731472   0.000000
    12  O   -0.642730   0.000000
    13  H    0.139942  -0.000000
    14  H    0.153335  -0.000000
    15  H    0.147592   0.000000
    16  H    0.140624  -0.000000
    17  O   -0.338643   0.000000
    18  C   -0.328859   0.000000
    19  C   -0.610240  -0.000000
    20  C   -0.081014   0.000000
    21  C   -0.108208  -0.000000
    22  C   -0.271938  -0.000000
    23  H    0.275943  -0.000000
    24  H    0.197114   0.000000
    25  H    0.173239   0.000000
    26  H    0.173668  -0.000000
    27  H    0.149081   0.000000
    28  H    0.103606  -0.000000
    29  H    0.107749  -0.000000
    30  H    0.120194   0.000000
    31  H    0.120825   0.000000
    32  H    0.124072   0.000000
    33  H    0.125089   0.000000
    34  C   -0.221284   0.000000
    35  C   -0.690331  -0.000000
    36  H    0.130621  -0.000000
    37  H    0.130293  -0.000000
    38  H    0.140015   0.000000
    39  H    0.144162  -0.000000
    40  H    0.140045   0.000000
 Sum of Mulliken charges =  -2.00000   0.00000

 Dipole moment (field-independent basis, Debye):
    X=            -20.9611    Y=             -2.2731    Z=             -1.7963  Tot=             21.1603
 Quadrupole moment (field-independent basis, Debye-Ang):
   XX=           -204.5682   YY=           -176.1437   ZZ=           -138.8389
   XY=            -15.6426   XZ=              4.5542   YZ=              8.0226

 Normal termination of Gaussian 16 at Sun Jan 21 09:13:08 2024.
