 Q-Chem 5.4, Q-Chem, Inc., Pleasanton, CA (2021)
 Q-Chem 5.4.0 for Intel X86 EM64T Linux

User input:
--------------------------------------------------------------
$molecule
-2 1
O                  1.5659850000     -3.1279110000      0.0839440000
C                  1.3024980000     -1.8720570000      0.0447450000
C                  2.3612350000     -0.8756700000     -0.0057190000
C                  3.7133440000     -1.2937170000     -0.0120370000
C                  4.7579490000     -0.3906360000     -0.0591310000
C                  4.4755780000      0.9986620000     -0.1026820000
C                  3.1629850000      1.4312310000     -0.0974410000
C                  2.0718820000      0.5293400000     -0.0496130000
C                  0.7128130000      1.0725000000     -0.0474730000
O                  0.5495940000      2.3495700000     -0.0889930000
C                 -0.3454670000      0.0986870000      0.0020600000
C                 -1.7528910000      0.4863610000      0.0100760000
C                 -2.1884240000      1.8410340000     -0.0298920000
C                 -3.5386410000      2.1863160000     -0.0213000000
C                 -4.5330870000      1.2026810000      0.0275320000
C                 -4.1439960000     -0.1343950000      0.0675710000
C                 -2.7873510000     -0.5178290000      0.0602430000
C                 -2.4148960000     -1.9040760000      0.1022480000
C                 -1.0965840000     -2.2669850000      0.0947240000
C                 -0.0325300000     -1.3315820000      0.0464250000
H                  3.8866170000     -2.3649320000      0.0221820000
H                  5.7890870000     -0.7405200000     -0.0628900000
H                  5.2900850000      1.7204480000     -0.1400760000
H                  2.9111470000      2.4862950000     -0.1299800000
H                 -1.4112680000      2.5928910000     -0.0675290000
H                 -3.8172400000      3.2382920000     -0.0532450000
H                 -5.5873250000      1.4725910000      0.0341880000
H                 -4.8973960000     -0.9201310000      0.1059140000
H                 -3.2028540000     -2.6549630000      0.1399580000
H                 -0.8008470000     -3.3114950000      0.1261880000
$end

$rem
BASIS  =  6-311++G(d,p)
GUI  =  2
JOB_TYPE  =  SP
METHOD  =  B3LYP
SCF_CONVERGENCE  = 8
SOLVENT_METHOD = sm12
$end

$smx
solvent dimethylformamide
charges CM5
$end

--------------------------------------------------------------

             Standard Nuclear Orientation (Angstroms)
    I     Atom           X                Y                Z
 ----------------------------------------------------------------
    1      O       1.5659850000    -3.1279110000     0.0839440000
    2      C       1.3024980000    -1.8720570000     0.0447450000
    3      C       2.3612350000    -0.8756700000    -0.0057190000
    4      C       3.7133440000    -1.2937170000    -0.0120370000
    5      C       4.7579490000    -0.3906360000    -0.0591310000
    6      C       4.4755780000     0.9986620000    -0.1026820000
    7      C       3.1629850000     1.4312310000    -0.0974410000
    8      C       2.0718820000     0.5293400000    -0.0496130000
    9      C       0.7128130000     1.0725000000    -0.0474730000
   10      O       0.5495940000     2.3495700000    -0.0889930000
   11      C      -0.3454670000     0.0986870000     0.0020600000
   12      C      -1.7528910000     0.4863610000     0.0100760000
   13      C      -2.1884240000     1.8410340000    -0.0298920000
   14      C      -3.5386410000     2.1863160000    -0.0213000000
   15      C      -4.5330870000     1.2026810000     0.0275320000
   16      C      -4.1439960000    -0.1343950000     0.0675710000
   17      C      -2.7873510000    -0.5178290000     0.0602430000
   18      C      -2.4148960000    -1.9040760000     0.1022480000
   19      C      -1.0965840000    -2.2669850000     0.0947240000
   20      C      -0.0325300000    -1.3315820000     0.0464250000
   21      H       3.8866170000    -2.3649320000     0.0221820000
   22      H       5.7890870000    -0.7405200000    -0.0628900000
   23      H       5.2900850000     1.7204480000    -0.1400760000
   24      H       2.9111470000     2.4862950000    -0.1299800000
   25      H      -1.4112680000     2.5928910000    -0.0675290000
   26      H      -3.8172400000     3.2382920000    -0.0532450000
   27      H      -5.5873250000     1.4725910000     0.0341880000
   28      H      -4.8973960000    -0.9201310000     0.1059140000
   29      H      -3.2028540000    -2.6549630000     0.1399580000
   30      H      -0.8008470000    -3.3114950000     0.1261880000
 ----------------------------------------------------------------

   18    -842.6095334209      4.28e-09  Convergence criterion met
 Total energy in the final basis set =     -842.8886419167

                    Orbital Energies (a.u.)
 --------------------------------------------------------------

 Alpha MOs
 -- Occupied --
-19.0346 -19.0328 -10.1945 -10.1944 -10.1848 -10.1845 -10.1788 -10.1776
-10.1773 -10.1768 -10.1760 -10.1714 -10.1699 -10.1676 -10.1663 -10.1621
-10.1611 -10.1605 -10.1565 -10.1504  -0.9540  -0.9509  -0.8653  -0.8491
 -0.8162  -0.7760  -0.7557  -0.7457  -0.7383  -0.7112  -0.6594  -0.6317
 -0.6199  -0.6018  -0.5866  -0.5493  -0.5432  -0.5093  -0.4951  -0.4888
 -0.4626  -0.4553  -0.4484  -0.4283  -0.4241  -0.4223  -0.4090  -0.4037
 -0.3954  -0.3861  -0.3804  -0.3765  -0.3680  -0.3508  -0.3446  -0.3370
 -0.3365  -0.3339  -0.3181  -0.3101  -0.2735  -0.2525  -0.2432  -0.2404
 -0.2147  -0.2116  -0.2033  -0.1257

          Ground-State Mulliken Net Atomic Charges

     Atom                 Charge (a.u.)
  ----------------------------------------
      1 O                    -0.292385
      2 C                    -3.025829
      3 C                    -1.297157
      4 C                     0.316480
      5 C                     2.137688
      6 C                     1.880571
      7 C                     0.172034
      8 C                    -1.077147
      9 C                    -2.215313
     10 O                    -0.287610
     11 C                    -2.503569
     12 C                    -1.583074
     13 C                    -0.448536
     14 C                     1.561257
     15 C                     2.756973
     16 C                     1.779119
     17 C                    -0.050678
     18 C                     0.546816
     19 C                    -0.278942
     20 C                    -2.945848
     21 H                     0.135074
     22 H                     0.425715
     23 H                     0.425201
     24 H                     0.132405
     25 H                     0.136271
     26 H                     0.327804
     27 H                     0.498035
     28 H                     0.308708
     29 H                     0.278591
     30 H                     0.187346
  ----------------------------------------
  Sum of atomic charges =    -2.000000

                    Cartesian Multipole Moments
 -----------------------------------------------------------------
    Charge (ESU x 10^10)
                -9.6064
    Dipole Moment (Debye)
         X      -4.6848      Y       2.8480      Z      -0.0281
       Tot       5.4826
    Quadrupole Moments (Debye-Ang)
        XX    -171.4657     XY      11.8528     YY    -174.2159
        XZ       0.1854     YZ       1.2580     ZZ    -132.2043

 Total job time:  994.03s(wall), 7577.32s(cpu)
        *  Thank you very much for using Q-Chem.  Have a nice day.  *
