 Gaussian 16, Revision A.03,
 Gaussian 16:  ES64L-G16RevA.03 25-Dec-2016

 --------------------------------------
 #P UB3LYP/6-311++G(d,p) nosym opt freq
 --------------------------------------

 -------
 Radical
 -------
 Symbolic Z-matrix:
 Charge = -1 Multiplicity = 2

 SCF Done:  E(UB3LYP) =  -841.271945396     A.U. after   23 cycles
 Optimization completed.
    -- Stationary point found.
 Normal termination of Gaussian 16 at Sat Jan  6 05:38:00 2024.

 ----------------------------------------------------------------------
 #P Geom=AllCheck Guess=TCheck SCRF=Check GenChk UB3LYP/6-311++G(d,p) F
 req
 ----------------------------------------------------------------------

 Structure from the checkpoint file:  "003-rad.chk"
 -------
 Radical
 -------
 Charge = -1 Multiplicity = 2

                          Input orientation:
 ---------------------------------------------------------------------
 Center     Atomic      Atomic             Coordinates (Angstroms)
 Number     Number       Type             X           Y           Z
 ---------------------------------------------------------------------
      1         17           0        3.103505   -0.164273    0.031595
      2          6           0        1.329698   -0.067054    0.013560
      3          6           0        0.733726    1.163332    0.011573
      4          6           0       -0.708369    1.315044   -0.002864
      5          8           0       -1.263844    2.449521   -0.004756
      6          6           0       -1.456682    0.074321   -0.014850
      7          6           0       -0.843010   -1.147634   -0.012645
      8          6           0        0.597816   -1.326075    0.001685
      9          8           0        1.141725   -2.458950    0.003468
     10          1           0        1.327471    2.070125    0.020815
     11          1           0       -2.539958    0.158317   -0.025801
     12          1           0       -1.422079   -2.066672   -0.021781
 ---------------------------------------------------------------------

 SCF Done:  E(UB3LYP) =  -841.271945396     A.U. after    1 cycles

 Alpha  occ. eigenvalues -- -101.41544 -18.94213 -18.94082 -10.09270 -10.09132
 Alpha  occ. eigenvalues --  -10.08819 -10.03887 -10.03806 -10.03573  -9.32987
 Alpha  occ. eigenvalues --   -7.09405  -7.08516  -7.08447  -0.86688  -0.86076
 Alpha  occ. eigenvalues --   -0.73448  -0.67927  -0.60391  -0.55043  -0.47004
 Alpha  occ. eigenvalues --   -0.43549  -0.34868  -0.33924  -0.31711  -0.29180
 Alpha  occ. eigenvalues --   -0.28248  -0.26899  -0.24771  -0.24100  -0.23478
 Alpha  occ. eigenvalues --   -0.21000  -0.17868  -0.14686  -0.12281  -0.10723
 Alpha  occ. eigenvalues --   -0.10351  -0.02961
 Alpha virt. eigenvalues --    0.10391   0.11477   0.11487   0.12537   0.13030
 Alpha virt. eigenvalues --    0.15874   0.16404   0.17217   0.17613   0.18425
 Alpha virt. eigenvalues --    0.19644   0.19970   0.20158   0.20888   0.21898

  Beta  occ. eigenvalues -- -101.41542 -18.93465 -18.93322 -10.09171 -10.09003
  Beta  occ. eigenvalues --  -10.08734 -10.03765 -10.03706 -10.03453  -9.32985
  Beta  occ. eigenvalues --   -7.09411  -7.08503  -7.08447  -0.85419  -0.84754
  Beta  occ. eigenvalues --   -0.73176  -0.67448  -0.60105  -0.54007  -0.46577
  Beta  occ. eigenvalues --   -0.43156  -0.34648  -0.33483  -0.31420  -0.29085
  Beta  occ. eigenvalues --   -0.26633  -0.26140  -0.24245  -0.23262  -0.21586
  Beta  occ. eigenvalues --   -0.19808  -0.17823  -0.11777  -0.10935  -0.10016
  Beta  occ. eigenvalues --   -0.09651
  Beta virt. eigenvalues --    0.04415   0.10404   0.11491   0.12564   0.12889
  Beta virt. eigenvalues --    0.13080   0.16454   0.17047   0.17278   0.18484
  Beta virt. eigenvalues --    0.18619   0.20031   0.20038   0.20178   0.21036

 Mulliken charges and spin densities:
               1          2
     1  Cl   0.150144   0.003771
     2  C    1.228501   0.087022
     3  C   -0.450833   0.078622
     4  C   -0.771777   0.085847
     5  O   -0.417302   0.267573
     6  C    0.160054   0.088054
     7  C    0.060210   0.085777
     8  C   -1.052552   0.055835
     9  O   -0.362563   0.269347
    10  H    0.155192  -0.007948
    11  H    0.148178  -0.007128
    12  H    0.152745  -0.006772
 Sum of Mulliken charges =  -1.00000   1.00000

 Dipole moment (field-independent basis, Debye):
    X=             -2.2026    Y=             -0.0523    Z=             -0.0230  Tot=              2.2033
 Quadrupole moment (field-independent basis, Debye-Ang):
   XX=            -76.4917   YY=            -90.2311   ZZ=            -62.5916
   XY=             15.5651   XZ=             -0.0910   YZ=              0.0672

  Exact polarizability: 131.500 -21.951 137.085   0.715   0.051  55.223
 Approx polarizability: 193.160 -53.264 241.059   0.980  -0.007  81.082

                      1                      2                      3
                      A                      A                      A
 Frequencies --    115.0598               174.5841               223.9927
 Red. masses --      7.7686                 7.4674                16.8261
 Frc consts  --      0.0606                 0.1341                 0.4974
 IR Inten    --      9.6803                 2.0588                 0.9313

                      4                      5                      6
                      A                      A                      A
 Frequencies --    322.4256               331.0579               421.4642
 Red. masses --      6.1060                19.3813                 3.4632
 Frc consts  --      0.3740                 1.2515                 0.3624
 IR Inten    --      0.0125                 0.5067                 1.3536

                      7                      8                      9
                      A                      A                      A
 Frequencies --    429.6746               479.8921               553.6062
 Red. masses --      8.8746                11.5161                 5.2616
 Frc consts  --      0.9653                 1.5626                 0.9501
 IR Inten    --      9.4201                 3.1783                 6.5822

                     10                     11                     12
                      A                      A                      A
 Frequencies --    597.4163               664.7841               733.6363
 Red. masses --      2.5457                 7.7877                 3.4777
 Frc consts  --      0.5353                 2.0278                 1.1028
 IR Inten    --      5.2447                 9.1896                 0.0331

                     13                     14                     15
                      A                      A                      A
 Frequencies --    809.3448               810.3689               865.3258
 Red. masses --      1.8175                 5.6489                 1.6583
 Frc consts  --      0.7015                 2.1856                 0.7316
 IR Inten    --     13.3696                41.1641                42.6227

                     16                     17                     18
                      A                      A                      A
 Frequencies --    873.5206               938.5110               989.8919
 Red. masses --      6.5459                 1.2579                 3.0679
 Frc consts  --      2.9428                 0.6528                 1.7712
 IR Inten    --     38.9744                 0.1218               113.7598

                     19                     20                     21
                      A                      A                      A
 Frequencies --   1094.2573              1195.8870              1231.0248
 Red. masses --      1.8161                 1.8826                 1.6641
 Frc consts  --      1.2812                 1.5863                 1.4858
 IR Inten    --      0.5958                15.4849                 7.9875

                     22                     23                     24
                      A                      A                      A
 Frequencies --   1333.8788              1416.2962              1486.9053
 Red. masses --      2.0751                 3.8554                 6.0023
 Frc consts  --      2.1754                 4.5564                 7.8187
 IR Inten    --     20.5565                45.3747                10.2869

                     25                     26                     27
                      A                      A                      A
 Frequencies --   1501.8503              1533.8571              1633.1566
 Red. masses --     10.9740                 7.0184                 7.1909
 Frc consts  --     14.5837                 9.7288                11.3003
 IR Inten    --     24.7525               483.7415                20.8279

                     28                     29                     30
                      A                      A                      A
 Frequencies --   3136.5093              3158.5737              3178.3075
 Red. masses --      1.0852                 1.0946                 1.0906
 Frc consts  --      6.2900                 6.4339                 6.4912
 IR Inten    --     18.2518                39.1373                 5.9242

 - Thermochemistry -
 -------------------
 Temperature   298.150 Kelvin.  Pressure   1.00000 Atm.
 Atom     1 has atomic number 17 and mass  34.96885

 Molecular mass:   141.98216 amu.
 Principal axes and moments of inertia in atomic units:
                           1         2         3
     Eigenvalues --   770.207371627.870652398.07802
           X            0.86514   0.50142  -0.01036
           Y           -0.50148   0.86516  -0.00340
           Z            0.00726   0.00814   0.99994
 This molecule is an asymmetric top.
 Rotational symmetry number  1.
 Warning -- assumption of classical behavior for rotation
           may cause significant error
 Rotational temperatures (Kelvin)      0.11246     0.05321     0.03612
 Rotational constants (GHZ):           2.34319     1.10865     0.75258
 Zero-point vibrational energy     192808.5 (Joules/Mol)
                                   46.08233 (Kcal/Mol)
 Warning -- explicit consideration of  10 degrees of freedom as
           vibrations may cause significant error
 Vibrational temperatures:    165.55   251.19   322.28   463.90   476.32
          (Kelvin)            606.39   618.21   690.46   796.52   859.55
                              956.48  1055.54  1164.47  1165.94  1245.01
                             1256.80  1350.31  1424.23  1574.39  1720.61
                             1771.17  1919.15  2037.73  2139.33  2160.83
                             2206.88  2349.75  4512.74  4544.48  4572.88

 Zero-point correction=                           0.073437 (Hartree/Particle)
 Thermal correction to Energy=                    0.080712
 Thermal correction to Enthalpy=                  0.081656
 Thermal correction to Gibbs Free Energy=         0.040369
 Sum of electronic and zero-point Energies=           -841.198509
 Sum of electronic and thermal Energies=              -841.191234
 Sum of electronic and thermal Enthalpies=            -841.190289
 Sum of electronic and thermal Free Energies=         -841.231577

                     E (Thermal)             CV                S
                      KCal/Mol        Cal/Mol-Kelvin    Cal/Mol-Kelvin
 Total                   50.647             27.148             86.897
 Electronic               0.000              0.000              1.377
 Translational            0.889              2.981             40.763
 Rotational               0.889              2.981             29.487
 Vibrational             48.870             21.187             15.269
 Vibration     1          0.608              1.937              3.182
 Vibration     2          0.627              1.874              2.386
 Vibration     3          0.649              1.805              1.927
 Vibration     4          0.707              1.631              1.298
 Vibration     5          0.713              1.613              1.255
 Vibration     6          0.784              1.424              0.887
 Vibration     7          0.791              1.406              0.860
 Vibration     8          0.836              1.295              0.710
 Vibration     9          0.909              1.132              0.537
 Vibration    10          0.955              1.037              0.454

 Optimization completed.
    -- Stationary point found.
 Normal termination of Gaussian 16 at Sat Jan  6 05:40:36 2024.
