 Q-Chem 5.4, Q-Chem, Inc., Pleasanton, CA (2021)
 Q-Chem 5.4.0 for Intel X86 EM64T Linux

User input:
--------------------------------------------------------------
$molecule
-1 2
Cl                 3.1035050000     -0.1642730000      0.0315950000
C                  1.3296980000     -0.0670540000      0.0135600000
C                  0.7337260000      1.1633320000      0.0115730000
C                 -0.7083690000      1.3150440000     -0.0028640000
O                 -1.2638440000      2.4495210000     -0.0047560000
C                 -1.4566820000      0.0743210000     -0.0148500000
C                 -0.8430100000     -1.1476340000     -0.0126450000
C                  0.5978160000     -1.3260750000      0.0016850000
O                  1.1417250000     -2.4589500000      0.0034680000
H                  1.3274710000      2.0701250000      0.0208150000
H                 -2.5399580000      0.1583170000     -0.0258010000
H                 -1.4220790000     -2.0666720000     -0.0217810000
$end
$rem
MAX_SCF_CYCLES=200
BASIS  =  6-311++G(d,p)
GUI  =  2
JOB_TYPE  =  SP
METHOD  =  B3LYP
SOLVENT_METHOD = COSMO
$end
$solvent
dielectric 37.219
opticaldielectric 1.43
$end

--------------------------------------------------------------

             Standard Nuclear Orientation (Angstroms)
    I     Atom           X                Y                Z
 ----------------------------------------------------------------
    1      Cl      2.1976966898     1.0902053930    -0.0000064653
    2      C       0.6040853092     0.3049851463     0.0000087605
    3      C      -0.5186908453     1.0849915494     0.0000091652
    4      C      -1.8499261269     0.5099475755    -0.0000004924
    5      O      -2.8903751626     1.2262295890     0.0000017461
    6      C      -1.8936736062    -0.9383603099    -0.0000084812
    7      C      -0.7596056738    -1.7023381447    -0.0000030036
    8      C       0.5836311582    -1.1512111947     0.0000037930
    9      O       1.6132144491    -1.8717694450     0.0000069542
   10      H      -0.4459000900     2.1664690528     0.0000116132
   11      H      -2.8789782052    -1.3964399882    -0.0000199064
   12      H      -0.8136010127    -2.7872896284    -0.0000098487
 ----------------------------------------------------------------

   10    -841.2718875558      7.62e-06  Convergence criterion met
 Total energy in the final basis set =     -841.2718875558
    5    -841.3570155364      5.81e-06  Convergence criterion met
 Total energy in the final basis set =     -841.3570155364

                    Orbital Energies (a.u.)
 --------------------------------------------------------------

 Alpha MOs
 -- Occupied --
******** -19.0923 -19.0902 -10.2383 -10.2329 -10.2312 -10.1769 -10.1740
-10.1716  -9.4657  -7.2299  -7.2211  -7.2203  -1.0172  -1.0107  -0.8729
 -0.8178  -0.7409  -0.6926  -0.6085  -0.5742  -0.4902  -0.4822  -0.4549
 -0.4269  -0.4258  -0.4195  -0.3948  -0.3903  -0.3726  -0.3498  -0.3157
 -0.2914  -0.2599  -0.2590  -0.2535  -0.1758

 Beta MOs
 -- Occupied --
******** -19.0854 -19.0832 -10.2368 -10.2317 -10.2299 -10.1757 -10.1731
-10.1704  -9.4657  -7.2300  -7.2209  -7.2203  -1.0052  -0.9983  -0.8701
 -0.8131  -0.7381  -0.6818  -0.6041  -0.5699  -0.4879  -0.4776  -0.4512
 -0.4248  -0.4133  -0.4089  -0.3904  -0.3703  -0.3625  -0.3400  -0.3152
 -0.2610  -0.2525  -0.2516  -0.2472

          Ground-State Mulliken Net Atomic Charges

     Atom                 Charge (a.u.)    Spin (a.u.)
  --------------------------------------------------------
      1 Cl                    0.166284       0.004795
      2 C                     1.086434       0.084514
      3 C                    -0.464789       0.069030
      4 C                    -0.535998       0.124782
      5 O                    -0.530976       0.242338
      6 C                     0.028114       0.078702
      7 C                    -0.068477       0.075224
      8 C                    -0.847437       0.096587
      9 O                    -0.481825       0.243135
     10 H                     0.215523      -0.007159
     11 H                     0.214813      -0.006176
     12 H                     0.218333      -0.005772
  --------------------------------------------------------
  Sum of atomic charges =    -1.000000

                    Cartesian Multipole Moments
 -----------------------------------------------------------------
    Charge (ESU x 10^10)
                -4.8032
    Dipole Moment (Debye)
         X       0.7906      Y       0.2687      Z      -0.0009
       Tot       0.8350
    Quadrupole Moments (Debye-Ang)
        XX     -93.7581     XY      18.4215     YY     -71.9032
        XZ       0.0010     YZ      -0.0004     ZZ     -62.2511

 Total job time:  17.43s(wall), 117.16s(cpu)
        *  Thank you very much for using Q-Chem.  Have a nice day.  *
