 Gaussian 16, Revision A.03,
 Gaussian 16:  ES64L-G16RevA.03 25-Dec-2016

 ----------------------------------------------------------------
 #P UB3LYP/6-311++G(d,p) SCRF=(PCM,Solvent=n,n-DiMethylFormamide)
 ----------------------------------------------------------------

 ------------------
 Quinone PCM in DMF
 ------------------
 Symbolic Z-matrix:
 Charge =  0 Multiplicity = 1

                         Standard orientation:
 ---------------------------------------------------------------------
 Center     Atomic      Atomic             Coordinates (Angstroms)
 Number     Number       Type             X           Y           Z
 ---------------------------------------------------------------------
      1          8           0       -5.012744    0.684693    0.000649
      2          6           0       -3.740960    0.198377    0.000313
      3          6           0       -3.590981   -1.196048    0.000364
      4          6           0       -2.324166   -1.752243    0.000043
      5          6           0       -1.182191   -0.939677   -0.000289
      6          6           0        0.163730   -1.580211   -0.000537
      7          8           0        0.259030   -2.796763   -0.000954
      8          6           0        1.353285   -0.678954   -0.000145
      9          6           0        2.656185   -1.195318    0.000258
     10          8           0        2.871699   -2.534708    0.000491
     11          6           0        3.754823   -0.312228    0.000509
     12          6           0        3.587508    1.051912    0.000409
     13          6           0        2.295278    1.602876    0.000098
     14          8           0        2.197048    2.938646    0.000066
     15          6           0        1.176880    0.740385   -0.000189
     16          6           0       -0.162178    1.341151   -0.000448
     17          8           0       -0.316799    2.573839   -0.000697
     18          6           0       -1.343476    0.451641   -0.000283
     19          6           0       -2.619817    1.021157    0.000007
     20          1           0       -4.999015    1.648230    0.000477
     21          1           0       -4.478773   -1.816818    0.000683
     22          1           0       -2.189514   -2.826601    0.000114
     23          1           0        3.820991   -2.701299    0.000481
     24          1           0        4.758766   -0.727966    0.000765
     25          1           0        4.436047    1.724738    0.000566
     26          1           0        1.230964    3.155020   -0.000235
     27          1           0       -2.708866    2.102128    0.000042
 ---------------------------------------------------------------------

 SCF Done:  E(UB3LYP) =  -914.717544179     A.U. after   14 cycles

 The electronic state is 1-A.
 Alpha  occ. eigenvalues --  -19.17636 -19.17430 -19.16377 -19.14131 -19.12112
 Alpha  occ. eigenvalues --  -10.29083 -10.27953 -10.26800 -10.26750 -10.26539
 Alpha  occ. eigenvalues --  -10.21339 -10.21338 -10.21291 -10.20834 -10.20330
 Alpha  occ. eigenvalues --  -10.20300 -10.20038 -10.19952 -10.19805  -1.09438
 Alpha  occ. eigenvalues --   -1.09084  -1.08866  -1.06273  -1.05744  -0.89505
 Alpha  occ. eigenvalues --   -0.88052  -0.81761  -0.78472  -0.77384  -0.76883
 Alpha  occ. eigenvalues --   -0.69915  -0.68175  -0.66544  -0.63630  -0.60668
 Alpha  occ. eigenvalues --   -0.59335  -0.58316  -0.56164  -0.53773  -0.52067
 Alpha  occ. eigenvalues --   -0.50656  -0.49339  -0.48824  -0.46996  -0.46405
 Alpha  occ. eigenvalues --   -0.45924  -0.45648  -0.44667  -0.44072  -0.43376
 Alpha  occ. eigenvalues --   -0.42959  -0.41930  -0.41482  -0.40473  -0.40039
 Alpha  occ. eigenvalues --   -0.39183  -0.38600  -0.37322  -0.35562  -0.33657
 Alpha  occ. eigenvalues --   -0.29475  -0.29376  -0.28317  -0.26966  -0.25597
 Alpha  occ. eigenvalues --   -0.23674
 Alpha virt. eigenvalues --   -0.12009  -0.06829  -0.03828  -0.01640  -0.00846
 Alpha virt. eigenvalues --   -0.00396   0.00671   0.00985   0.01731   0.03241
 Alpha virt. eigenvalues --    0.03320   0.03740   0.03974   0.03977   0.04410

  Beta  occ. eigenvalues --  -19.17636 -19.17430 -19.16377 -19.14131 -19.12112
  Beta  occ. eigenvalues --  -10.29083 -10.27953 -10.26800 -10.26750 -10.26539
  Beta  occ. eigenvalues --  -10.21339 -10.21338 -10.21291 -10.20834 -10.20330
  Beta  occ. eigenvalues --  -10.20300 -10.20038 -10.19952 -10.19805  -1.09438
  Beta  occ. eigenvalues --   -1.09084  -1.08866  -1.06273  -1.05744  -0.89505
  Beta  occ. eigenvalues --   -0.88052  -0.81761  -0.78472  -0.77384  -0.76883
  Beta  occ. eigenvalues --   -0.69915  -0.68175  -0.66544  -0.63630  -0.60668
  Beta  occ. eigenvalues --   -0.59335  -0.58316  -0.56164  -0.53773  -0.52067
  Beta  occ. eigenvalues --   -0.50656  -0.49339  -0.48824  -0.46996  -0.46405
  Beta  occ. eigenvalues --   -0.45924  -0.45648  -0.44667  -0.44072  -0.43376
  Beta  occ. eigenvalues --   -0.42959  -0.41930  -0.41482  -0.40473  -0.40039
  Beta  occ. eigenvalues --   -0.39183  -0.38600  -0.37322  -0.35562  -0.33657
  Beta  occ. eigenvalues --   -0.29475  -0.29376  -0.28317  -0.26966  -0.25597
  Beta  occ. eigenvalues --   -0.23674
  Beta virt. eigenvalues --   -0.12009  -0.06829  -0.03828  -0.01640  -0.00846
  Beta virt. eigenvalues --   -0.00396   0.00671   0.00985   0.01731   0.03241
  Beta virt. eigenvalues --    0.03320   0.03740   0.03974   0.03977   0.04410

 Mulliken charges and spin densities:
               1          2
     1  O   -0.254518  -0.000000
     2  C   -0.691772  -0.000000
     3  C   -0.161454   0.000000
     4  C    0.192091   0.000000
     5  C   -0.250176  -0.000000
     6  C   -0.407901  -0.000000
     7  O   -0.292935  -0.000000
     8  C    0.314807  -0.000000
     9  C   -0.251500   0.000000
    10  O   -0.213532  -0.000000
    11  C   -0.195904  -0.000000
    12  C   -0.056854   0.000000
    13  C   -0.268878  -0.000000
    14  O   -0.321026   0.000000
    15  C    0.826833   0.000000
    16  C   -0.386748   0.000000
    17  O   -0.316076  -0.000000
    18  C    0.453833   0.000000
    19  C    0.293185   0.000000
    20  H    0.312127   0.000000
    21  H    0.231454   0.000000
    22  H    0.185899   0.000000
    23  H    0.303378  -0.000000
    24  H    0.201867  -0.000000
    25  H    0.228281  -0.000000
    26  H    0.349630  -0.000000
    27  H    0.175890  -0.000000
 Sum of Mulliken charges =  -0.00000  -0.00000

 Dipole moment (field-independent basis, Debye):
    X=              1.6536    Y=              1.4392    Z=              0.0025  Tot=              2.1922
 Quadrupole moment (field-independent basis, Debye-Ang):
   XX=            -74.0189   YY=           -121.4146   ZZ=           -110.4088
   XY=            -13.3491   XZ=              0.0032   YZ=             -0.0038

 Normal termination of Gaussian 16 at Tue Jan 16 05:12:38 2024.
