 Gaussian 16, Revision A.03,
 Gaussian 16:  ES64L-G16RevA.03 25-Dec-2016

 ----------------------------------------------------------------
 #P UB3LYP/6-311++G(d,p) SCRF=(PCM,Solvent=n,n-DiMethylFormamide)
 ----------------------------------------------------------------

 -------
 Reduced
 -------
 Symbolic Z-matrix:
 Charge = -3 Multiplicity = 1

                         Standard orientation:
 ---------------------------------------------------------------------
 Center     Atomic      Atomic             Coordinates (Angstroms)
 Number     Number       Type             X           Y           Z
 ---------------------------------------------------------------------
      1          6           0       -3.762551   -1.672037   -0.037072
      2          6           0       -5.082029   -1.258912   -0.015872
      3          6           0       -5.380831    0.127530    0.040039
      4          6           0       -2.683884   -0.754724   -0.004865
      5          6           0       -2.987654    0.649843    0.015071
      6          6           0       -4.348922    1.045318    0.056408
      7          6           0       -1.316973   -1.257133   -0.011640
      8          6           0       -1.940948    1.653071   -0.000489
      9          6           0       -0.255416   -0.259520    0.006447
     10          6           0       -0.571501    1.146400   -0.006452
     11          6           0        1.145024   -0.656330    0.014939
     12          6           0        2.152040    0.330646   -0.043354
     13          6           0        1.800954    1.694272   -0.067621
     14          6           0        0.482558    2.092120   -0.041146
     15          8           0       -1.104693   -2.526331   -0.053026
     16          8           0       -2.201105    2.903066    0.000813
     17          7           0        1.461095   -1.986941    0.095719
     18          1           0       -3.506534   -2.725456   -0.075583
     19          1           0       -5.892354   -1.986903   -0.037650
     20          1           0       -6.419489    0.457152    0.064704
     21          1           0       -4.545608    2.111953    0.093747
     22         16           0        3.930704   -0.066959    0.013758
     23          1           0        2.602936    2.422079   -0.120810
     24          1           0        0.654881   -2.601073   -0.038548
     25          1           0        2.397298   -2.233294   -0.204933
     26          1           0        0.207058    3.140108   -0.057057
     27          8           0        4.100550   -1.355380   -0.745944
     28          8           0        4.625926    1.081356   -0.645425
     29          8           0        4.314782   -0.213699    1.451036
 ---------------------------------------------------------------------

 SCF Done:  E(UB3LYP) =  -1368.03728354     A.U. after   17 cycles

 The electronic state is 1-A.
 Alpha  occ. eigenvalues --  -89.02931 -19.07593 -19.07531 -19.07455 -19.02495
 Alpha  occ. eigenvalues --  -19.01474 -14.27808 -10.19990 -10.17930 -10.16859
 Alpha  occ. eigenvalues --  -10.15464 -10.14804 -10.14659 -10.14474 -10.14431
 Alpha  occ. eigenvalues --  -10.14399 -10.14022 -10.13366 -10.13248 -10.13049
 Alpha  occ. eigenvalues --  -10.12899  -8.08801  -6.05102  -6.05076  -6.04930
 Alpha  occ. eigenvalues --   -1.08910  -0.95472  -0.95257  -0.94938  -0.93700
 Alpha  occ. eigenvalues --   -0.88980  -0.82358  -0.80637  -0.75157  -0.71997
 Alpha  occ. eigenvalues --   -0.71285  -0.69813  -0.63613  -0.61639  -0.59550
 Alpha  occ. eigenvalues --   -0.57278  -0.55113  -0.52689  -0.51744  -0.49383
 Alpha  occ. eigenvalues --   -0.47326  -0.45969  -0.44791  -0.44046  -0.43597
 Alpha  occ. eigenvalues --   -0.43038  -0.41645  -0.40770  -0.39704  -0.38851
 Alpha  occ. eigenvalues --   -0.38368  -0.37245  -0.36313  -0.35305  -0.35177
 Alpha  occ. eigenvalues --   -0.33151  -0.32732  -0.32176  -0.31994  -0.31671
 Alpha  occ. eigenvalues --   -0.31149  -0.30142  -0.28492  -0.28069  -0.27546
 Alpha  occ. eigenvalues --   -0.27119  -0.24173  -0.22770  -0.22407  -0.21501
 Alpha  occ. eigenvalues --   -0.20423  -0.19252  -0.18246  -0.09985
 Alpha virt. eigenvalues --   -0.01954   0.00282   0.00327   0.01142   0.01691
 Alpha virt. eigenvalues --    0.02637   0.02809   0.02875   0.04625   0.04775
 Alpha virt. eigenvalues --    0.04866   0.05082   0.05834   0.06625   0.06690

  Beta  occ. eigenvalues --  -89.02931 -19.07593 -19.07531 -19.07455 -19.02495
  Beta  occ. eigenvalues --  -19.01474 -14.27808 -10.19990 -10.17930 -10.16859
  Beta  occ. eigenvalues --  -10.15464 -10.14804 -10.14659 -10.14474 -10.14431
  Beta  occ. eigenvalues --  -10.14399 -10.14022 -10.13366 -10.13248 -10.13049
  Beta  occ. eigenvalues --  -10.12899  -8.08801  -6.05102  -6.05076  -6.04930
  Beta  occ. eigenvalues --   -1.08910  -0.95472  -0.95257  -0.94938  -0.93700
  Beta  occ. eigenvalues --   -0.88980  -0.82358  -0.80637  -0.75157  -0.71997
  Beta  occ. eigenvalues --   -0.71285  -0.69813  -0.63613  -0.61639  -0.59550
  Beta  occ. eigenvalues --   -0.57278  -0.55113  -0.52689  -0.51744  -0.49383
  Beta  occ. eigenvalues --   -0.47326  -0.45969  -0.44791  -0.44046  -0.43597
  Beta  occ. eigenvalues --   -0.43038  -0.41645  -0.40770  -0.39704  -0.38851
  Beta  occ. eigenvalues --   -0.38368  -0.37245  -0.36313  -0.35305  -0.35177
  Beta  occ. eigenvalues --   -0.33151  -0.32732  -0.32176  -0.31994  -0.31671
  Beta  occ. eigenvalues --   -0.31149  -0.30142  -0.28492  -0.28069  -0.27546
  Beta  occ. eigenvalues --   -0.27119  -0.24173  -0.22770  -0.22407  -0.21501
  Beta  occ. eigenvalues --   -0.20423  -0.19252  -0.18246  -0.09985
  Beta virt. eigenvalues --   -0.01954   0.00282   0.00327   0.01142   0.01691
  Beta virt. eigenvalues --    0.02637   0.02809   0.02875   0.04625   0.04775
  Beta virt. eigenvalues --    0.04866   0.05082   0.05834   0.06625   0.06690

 Mulliken charges and spin densities:
               1          2
     1  C    0.038239  -0.000000
     2  C   -0.570299   0.000000
     3  C   -0.466873  -0.000000
     4  C    0.206784  -0.000000
     5  C    0.121679   0.000000
     6  C   -0.028418  -0.000000
     7  C   -0.438636   0.000000
     8  C   -0.509780   0.000000
     9  C    0.160478  -0.000000
    10  C    0.464294   0.000000
    11  C    0.381521  -0.000000
    12  C   -1.131858   0.000000
    13  C   -0.285641   0.000000
    14  C   -0.225594  -0.000000
    15  O   -0.603535  -0.000000
    16  O   -0.646436   0.000000
    17  N   -0.471293   0.000000
    18  H    0.146469   0.000000
    19  H    0.155572  -0.000000
    20  H    0.156810   0.000000
    21  H    0.140960  -0.000000
    22  S    0.724773  -0.000000
    23  H    0.187308   0.000000
    24  H    0.340657  -0.000000
    25  H    0.267109   0.000000
    26  H    0.134897  -0.000000
    27  O   -0.470836  -0.000000
    28  O   -0.407008   0.000000
    29  O   -0.371341   0.000000
 Sum of Mulliken charges =  -3.00000  -0.00000

 Dipole moment (field-independent basis, Debye):
    X=             -9.2387    Y=             -2.8920    Z=             -0.7623  Tot=              9.7107
 Quadrupole moment (field-independent basis, Debye-Ang):
   XX=           -296.4636   YY=           -194.8023   ZZ=           -153.0517
   XY=             12.6678   XZ=             -2.1107   YZ=              1.5647

 Normal termination of Gaussian 16 at Sun Jan 14 01:33:42 2024.
