 Q-Chem 5.4, Q-Chem, Inc., Pleasanton, CA (2021)
 Q-Chem 5.4.0 for Intel X86 EM64T Linux

User input:
--------------------------------------------------------------
$molecule
-1 2
O                  2.7719960000     -2.7466590000     -1.3782930000
C                  2.2217780000     -1.7560060000     -0.8257030000
C                  0.7962250000     -1.5996630000     -0.7546590000
C                  0.1426630000     -0.5340420000     -0.1607630000
C                 -1.3765510000     -0.4993310000     -0.1608270000
C                 -1.9490730000      0.7024460000     -0.9472320000
C                 -3.4847350000      0.6947880000     -0.9689480000
C                 -4.0705990000      0.6454570000      0.4494910000
C                 -3.5140730000     -0.5501890000      1.2358760000
C                 -1.9784700000     -0.5451410000      1.2625620000
C                  0.8907910000      0.5426330000      0.4568270000
O                  0.3373240000      1.5353670000      1.0112420000
C                  2.3606170000      0.4286940000      0.4106300000
C                  3.1505630000      1.4411150000      0.9924310000
C                  4.5321260000      1.3713210000      0.9696400000
C                  5.1718120000      0.2753110000      0.3578410000
C                  4.4143670000     -0.7288480000     -0.2187700000
C                  3.0073920000     -0.6748960000     -0.2052050000
H                  0.2161030000     -2.3977290000     -1.2127240000
H                 -1.7105240000     -1.4103020000     -0.6795890000
H                 -1.5837360000      1.6218400000     -0.4812930000
H                 -1.5584770000      0.6816090000     -1.9707330000
H                 -3.8582890000      1.5783280000     -1.5012800000
H                 -3.8402930000     -0.1804890000     -1.5319400000
H                 -3.8102430000      1.5725630000      0.9764750000
H                 -5.1664010000      0.6008050000      0.4097050000
H                 -3.8707140000     -1.4802750000      0.7697660000
H                 -3.9086480000     -0.5454960000      2.2595240000
H                 -1.6085020000     -1.4365970000      1.7811920000
H                 -1.6143430000      0.3246180000      1.8164280000
H                  2.6327190000      2.2728990000      1.4562880000
H                  5.1246060000      2.1609550000      1.4230870000
H                  6.2565420000      0.2202760000      0.3397160000
H                  4.8760470000     -1.5853620000     -0.6973530000
$end
$rem
MAX_SCF_CYCLES=200
BASIS  =  6-311++G(d,p)
GUI  =  2
JOB_TYPE  =  SP
METHOD  =  B3LYP
SOLVENT_METHOD = COSMO
$end
$solvent
dielectric 37.219
opticaldielectric 1.43
$end

--------------------------------------------------------------

             Standard Nuclear Orientation (Angstroms)
    I     Atom           X                Y                Z
 ----------------------------------------------------------------
    1      O      -2.3414636942    -2.9208660231    -0.0003424326
    2      C      -1.7376186715    -1.8141320458    -0.0002234370
    3      C      -0.3054389872    -1.7114061003    -0.0009100124
    4      C       0.4057268726    -0.5241205531    -0.0010179405
    5      C       1.9247437840    -0.5665885406    -0.0006596207
    6      C       2.5421683260     0.0641109597     1.2687840753
    7      C       4.0753191119    -0.0266270570     1.2669707946
    8      C       4.6778915999     0.6000713566     0.0013504464
    9      C       4.0767319303    -0.0260722822    -1.2652367435
   10      C       2.5435864427     0.0648380425    -1.2690347694
   11      C      -0.2822600766     0.7514247794    -0.0008431617
   12      O       0.3249533178     1.8607102108    -0.0013252825
   13      C      -1.7563190380     0.6999005501    -0.0004421625
   14      C      -2.4895941430     1.9039815076    -0.0002528036
   15      C      -3.8730940966     1.8981290851     0.0005104172
   16      C      -4.5720792743     0.6749555551     0.0011039150
   17      C      -3.8708051793    -0.5178365613     0.0008188012
   18      C      -2.4627974043    -0.5315090670     0.0000149189
   19      H       0.2300697359    -2.6582454746    -0.0010717030
   20      H       2.2082442182    -1.6296725568    -0.0007964074
   21      H       2.2270029650     1.1100386156     1.3193976731
   22      H       2.1368226500    -0.4386936636     2.1539033366
   23      H       4.4825798443     0.4618621552     2.1608834672
   24      H       4.3814422818    -1.0814629313     1.3226591524
   25      H       4.4687929341     1.6777079631     0.0014528974
   26      H       5.7697203088     0.4893081548     0.0019281568
   27      H       4.3827064185    -1.0809639631    -1.3208645843
   28      H       4.4852944297     0.4625789386    -2.1584687129
   29      H       2.1393443829    -0.4374433526    -2.1549517831
   30      H       2.2285180487     1.1107979968    -1.3193976254
   31      H      -1.9267920363     2.8305040183    -0.0006692213
   32      H      -4.4214068410     2.8359572629     0.0006814677
   33      H      -5.6583444004     0.6700415067     0.0017877108
   34      H      -4.3788791096    -1.4757859435     0.0012715918
 ----------------------------------------------------------------

    9    -770.0725136115      8.61e-06  Convergence criterion met
 Total energy in the final basis set =     -770.0725136115
    4    -770.1535355668      8.69e-06  Convergence criterion met
 Total energy in the final basis set =     -770.1535355668

                    Orbital Energies (a.u.)
 --------------------------------------------------------------

 Alpha MOs
 -- Occupied --
-19.0788 -19.0747 -10.2218 -10.2202 -10.1721 -10.1718 -10.1716 -10.1712
-10.1690 -10.1687 -10.1683 -10.1635 -10.1569 -10.1533 -10.1532 -10.1529
-10.1489 -10.1489  -1.0024  -0.9981  -0.8571  -0.8287  -0.7993  -0.7536
 -0.7489  -0.7290  -0.7172  -0.6699  -0.6231  -0.6112  -0.5984  -0.5803
 -0.5561  -0.5402  -0.5029  -0.4965  -0.4703  -0.4569  -0.4493  -0.4307
 -0.4263  -0.4251  -0.4178  -0.4176  -0.4101  -0.4051  -0.3858  -0.3833
 -0.3686  -0.3683  -0.3668  -0.3495  -0.3480  -0.3368  -0.3313  -0.3295
 -0.3101  -0.2950  -0.2948  -0.2701  -0.2564  -0.2455  -0.2447  -0.2344
 -0.1533

 Beta MOs
 -- Occupied --
-19.0729 -19.0684 -10.2202 -10.2185 -10.1718 -10.1713 -10.1713 -10.1707
-10.1690 -10.1682 -10.1671 -10.1636 -10.1556 -10.1533 -10.1532 -10.1529
-10.1488 -10.1488  -0.9919  -0.9868  -0.8550  -0.8273  -0.7956  -0.7521
 -0.7472  -0.7289  -0.7154  -0.6610  -0.6215  -0.6087  -0.5981  -0.5789
 -0.5542  -0.5395  -0.5007  -0.4940  -0.4679  -0.4561  -0.4485  -0.4304
 -0.4260  -0.4242  -0.4141  -0.4063  -0.4038  -0.4037  -0.3831  -0.3734
 -0.3674  -0.3668  -0.3523  -0.3466  -0.3401  -0.3356  -0.3291  -0.3289
 -0.3096  -0.2942  -0.2925  -0.2501  -0.2466  -0.2393  -0.2378  -0.2290

          Ground-State Mulliken Net Atomic Charges

     Atom                 Charge (a.u.)    Spin (a.u.)
  --------------------------------------------------------
      1 O                    -0.533963       0.209874
      2 C                    -0.507043       0.123860
      3 C                    -0.263959       0.075696
      4 C                     0.491288       0.088411
      5 C                     0.727535      -0.021380
      6 C                    -0.549459       0.016070
      7 C                    -0.378314       0.000920
      8 C                    -0.421536       0.000098
      9 C                    -0.378351       0.000925
     10 C                    -0.549508       0.016047
     11 C                    -0.716139       0.124542
     12 O                    -0.460342       0.237819
     13 C                    -0.195148       0.001441
     14 C                     0.091609       0.047598
     15 C                    -0.499244       0.021833
     16 C                    -0.391392       0.029474
     17 C                     0.039632       0.025732
     18 C                     0.750843       0.023303
     19 H                     0.197966      -0.008477
     20 H                     0.184006      -0.002461
     21 H                     0.181806      -0.001886
     22 H                     0.167469       0.000092
     23 H                     0.174772       0.000517
     24 H                     0.129914      -0.000091
     25 H                     0.116836       0.000059
     26 H                     0.179287      -0.000016
     27 H                     0.129900      -0.000090
     28 H                     0.174846       0.000515
     29 H                     0.167258       0.000101
     30 H                     0.182212      -0.001887
     31 H                     0.178604      -0.002392
     32 H                     0.202678      -0.001962
     33 H                     0.203938      -0.002221
     34 H                     0.171998      -0.002064
  --------------------------------------------------------
  Sum of atomic charges =    -1.000000

                    Cartesian Multipole Moments
 -----------------------------------------------------------------
    Charge (ESU x 10^10)
                -4.8032
    Dipole Moment (Debye)
         X       5.5702      Y       3.1806      Z       0.0057
       Tot       6.4143
    Quadrupole Moments (Debye-Ang)
        XX    -122.4207     XY     -21.7081     YY    -141.0612
        XZ      -0.0046     YZ       0.0012     ZZ    -114.4517

 Total job time:  111.39s(wall), 844.40s(cpu)
        *  Thank you very much for using Q-Chem.  Have a nice day.  *
