 Q-Chem 5.4, Q-Chem, Inc., Pleasanton, CA (2021)
 Q-Chem 5.4.0 for Intel X86 EM64T Linux

User input:
--------------------------------------------------------------
$molecule
-1 2
C                  1.8427370000      0.9031210000     -0.7440240000
C                  0.5685620000      1.3887350000     -0.2292010000
C                 -0.4366050000      0.5430040000      0.1769180000
C                 -0.3225650000     -0.9076570000      0.0951070000
C                  0.9517440000     -1.3953310000     -0.4283400000
C                  1.9608860000     -0.5515430000     -0.8191080000
O                  2.7817950000      1.6576130000     -1.0865330000
O                 -1.2399200000     -1.6924560000      0.4283840000
O                  3.1583130000     -1.0894780000     -1.2227240000
C                  3.5276640000     -0.8284740000     -2.5767430000
Br                 0.4139360000      3.2978020000     -0.1306190000
Br                -2.1090900000      1.1826810000      0.8639110000
H                  4.4981030000     -1.3068580000     -2.7234180000
H                  3.6101360000      0.2448570000     -2.7577140000
H                  2.7990470000     -1.2764700000     -3.2643660000
O                  1.1095380000     -2.7478480000     -0.6068040000
C                  1.1169140000     -3.5317290000      0.5863070000
H                  1.2330500000     -4.5691180000      0.2661790000
H                  0.1808390000     -3.4136800000      1.1353060000
H                  1.9686860000     -3.2540780000      1.2201400000
$end
$rem
MAX_SCF_CYCLES=200
BASIS  =  6-311++G(d,p)
GUI  =  2
JOB_TYPE  =  SP
METHOD  =  B3LYP
SOLVENT_METHOD = PCM
$end
$pcm
theory = CPCM
$end
$solvent
dielectric 37.219
opticaldielectric 1.43
$end

--------------------------------------------------------------

             Standard Nuclear Orientation (Angstroms)
    I     Atom           X                Y                Z
 ----------------------------------------------------------------
    1      C       1.8427370000     0.9031210000    -0.7440240000
    2      C       0.5685620000     1.3887350000    -0.2292010000
    3      C      -0.4366050000     0.5430040000     0.1769180000
    4      C      -0.3225650000    -0.9076570000     0.0951070000
    5      C       0.9517440000    -1.3953310000    -0.4283400000
    6      C       1.9608860000    -0.5515430000    -0.8191080000
    7      O       2.7817950000     1.6576130000    -1.0865330000
    8      O      -1.2399200000    -1.6924560000     0.4283840000
    9      O       3.1583130000    -1.0894780000    -1.2227240000
   10      C       3.5276640000    -0.8284740000    -2.5767430000
   11      Br      0.4139360000     3.2978020000    -0.1306190000
   12      Br     -2.1090900000     1.1826810000     0.8639110000
   13      H       4.4981030000    -1.3068580000    -2.7234180000
   14      H       3.6101360000     0.2448570000    -2.7577140000
   15      H       2.7990470000    -1.2764700000    -3.2643660000
   16      O       1.1095380000    -2.7478480000    -0.6068040000
   17      C       1.1169140000    -3.5317290000     0.5863070000
   18      H       1.2330500000    -4.5691180000     0.2661790000
   19      H       0.1808390000    -3.4136800000     1.1353060000
   20      H       1.9686860000    -3.2540780000     1.2201400000
 ----------------------------------------------------------------

    8   -5757.9127086959      9.18e-06  Convergence criterion met
 Total energy in the final basis set =    -5757.9127086959

                    Orbital Energies (a.u.)
 --------------------------------------------------------------

 Alpha MOs
 -- Occupied --
********-482.8330 -62.4857 -62.4857 -56.3062 -56.3062 -56.3025 -56.3025
-56.3021 -56.3021 -19.1444 -19.1443 -19.0946 -19.0946 -10.2467 -10.2466
-10.2351 -10.2345 -10.2313 -10.2307 -10.2082 -10.2082  -8.6943  -8.6943
 -6.5258  -6.5258  -6.5133  -6.5133  -6.5122  -6.5122  -2.6367  -2.6367
 -2.6333  -2.6333  -2.6325  -2.6324  -2.6226  -2.6225  -2.6225  -2.6225
 -1.0720  -1.0529  -1.0199  -1.0167  -0.8662  -0.8037  -0.7971  -0.7363
 -0.7159  -0.6751  -0.6700  -0.5889  -0.5836  -0.5330  -0.5071  -0.4972
 -0.4763  -0.4504  -0.4491  -0.4468  -0.4358  -0.4275  -0.4218  -0.4013
 -0.3929  -0.3899  -0.3591  -0.3548  -0.3427  -0.3107  -0.3079  -0.2999
 -0.2997  -0.2808  -0.2733  -0.2550  -0.2547  -0.2375  -0.1764

 Beta MOs
 -- Occupied --
********-482.8330 -62.4857 -62.4857 -56.3062 -56.3062 -56.3024 -56.3024
-56.3021 -56.3021 -19.1442 -19.1442 -19.0884 -19.0883 -10.2451 -10.2450
-10.2336 -10.2330 -10.2307 -10.2300 -10.2081 -10.2081  -8.6943  -8.6943
 -6.5258  -6.5258  -6.5131  -6.5131  -6.5122  -6.5122  -2.6367  -2.6367
 -2.6332  -2.6332  -2.6325  -2.6324  -2.6225  -2.6224  -2.6224  -2.6224
 -1.0709  -1.0514  -1.0094  -1.0065  -0.8614  -0.8014  -0.7954  -0.7346
 -0.7126  -0.6687  -0.6676  -0.5855  -0.5799  -0.5312  -0.5051  -0.4955
 -0.4723  -0.4487  -0.4453  -0.4447  -0.4347  -0.4208  -0.4087  -0.3949
 -0.3911  -0.3683  -0.3574  -0.3539  -0.3302  -0.3099  -0.3047  -0.2967
 -0.2950  -0.2789  -0.2546  -0.2502  -0.2497  -0.2317

          Ground-State Mulliken Net Atomic Charges

     Atom                 Charge (a.u.)    Spin (a.u.)
  --------------------------------------------------------
      1 C                    -0.420105       0.082355
      2 C                     0.378846       0.097768
      3 C                     0.377121       0.097813
      4 C                    -0.422881       0.082349
      5 C                     0.102962       0.070690
      6 C                     0.108095       0.070425
      7 O                    -0.418425       0.236744
      8 O                    -0.418554       0.236848
      9 O                    -0.197867       0.000668
     10 C                    -0.291950       0.002698
     11 Br                   -0.153629       0.008713
     12 Br                   -0.153950       0.008702
     13 H                     0.169480       0.000316
     14 H                     0.174919      -0.000104
     15 H                     0.155515       0.000226
     16 O                    -0.197565       0.000652
     17 C                    -0.292296       0.002706
     18 H                     0.169529       0.000314
     19 H                     0.175136      -0.000104
     20 H                     0.155621       0.000222
  --------------------------------------------------------
  Sum of atomic charges =    -1.000000

                    Cartesian Multipole Moments
 -----------------------------------------------------------------
    Charge (ESU x 10^10)
                -4.8032
    Dipole Moment (Debye)
         X      -2.1701      Y      -2.0518      Z       0.9243
       Tot       3.1263
    Quadrupole Moments (Debye-Ang)
        XX    -133.5840     XY     -14.5298     YY    -126.4525
        XZ       5.0766     YZ       1.0079     ZZ    -106.9723

 Total job time:  31.13s(wall), 240.13s(cpu)
        *  Thank you very much for using Q-Chem.  Have a nice day.  *
