 Gaussian 16, Revision A.03,
 Gaussian 16:  ES64L-G16RevA.03 25-Dec-2016

 --------------------------------------
 #P UB3LYP/6-311++G(d,p) nosym opt freq
 --------------------------------------

 --------
 Oxidized
 --------
 Symbolic Z-matrix:
 Charge =  0 Multiplicity = 1

 SCF Done:  E(UB3LYP) =  -764.324213288     A.U. after   16 cycles
 SCF Done:  E(UB3LYP) =  -764.346177391     A.U. after   14 cycles
 SCF Done:  E(UB3LYP) =  -764.348862456     A.U. after   15 cycles
 SCF Done:  E(UB3LYP) =  -764.349991918     A.U. after   13 cycles
 SCF Done:  E(UB3LYP) =  -764.350092252     A.U. after   12 cycles
 SCF Done:  E(UB3LYP) =  -764.350123620     A.U. after   12 cycles
 SCF Done:  E(UB3LYP) =  -764.350135735     A.U. after   11 cycles
 SCF Done:  E(UB3LYP) =  -764.350144285     A.U. after   11 cycles
 SCF Done:  E(UB3LYP) =  -764.350148525     A.U. after   11 cycles
 SCF Done:  E(UB3LYP) =  -764.350149242     A.U. after    9 cycles
 SCF Done:  E(UB3LYP) =  -764.350149400     A.U. after    9 cycles
 Optimization completed.
    -- Stationary point found.
 Normal termination of Gaussian 16 at Tue Dec 26 20:51:06 2023.

 ----------------------------------------------------------------------
 #P Geom=AllCheck Guess=TCheck SCRF=Check GenChk UB3LYP/6-311++G(d,p) F
 req
 ----------------------------------------------------------------------

 Structure from the checkpoint file:  "261.chk"
 --------
 Oxidized
 --------
 Charge =  0 Multiplicity = 1

                          Input orientation:
 ---------------------------------------------------------------------
 Center     Atomic      Atomic             Coordinates (Angstroms)
 Number     Number       Type             X           Y           Z
 ---------------------------------------------------------------------
      1          6           0        2.906219    2.522393   -0.343369
      2          8           0        2.543911    1.152089   -0.232808
      3          6           0        1.238630    0.812538   -0.162064
      4          6           0        0.216913    1.767512   -0.190543
      5          6           0       -1.113739    1.394179   -0.116883
      6          6           0       -1.482758    0.049030   -0.011601
      7          8           0       -2.774068   -0.339823    0.061552
      8          6           0       -3.803486    0.640253    0.032034
      9          6           0       -0.471392   -0.942341    0.018907
     10          6           0       -0.837613   -2.391585    0.128645
     11          8           0       -1.984696   -2.801917    0.206321
     12          6           0        0.265310   -3.378054    0.143227
     13          6           0        1.548310   -3.018016    0.073139
     14          6           0        1.971308   -1.603328   -0.024460
     15          8           0        3.165869   -1.356624   -0.073793
     16          6           0        0.897479   -0.558255   -0.056358
     17          1           0        3.993683    2.528617   -0.384943
     18          1           0        2.573702    3.098433    0.526939
     19          1           0        2.506253    2.972406   -1.258434
     20          1           0        0.455023    2.818680   -0.271089
     21          1           0       -1.869337    2.166551   -0.142474
     22          1           0       -4.733949    0.080435    0.104049
     23          1           0       -3.728499    1.328971    0.880486
     24          1           0       -3.793501    1.207067   -0.905246
     25          1           0       -0.050462   -4.412955    0.218064
     26          1           0        2.360891   -3.736257    0.086379
 ---------------------------------------------------------------------

 SCF Done:  E(UB3LYP) =  -764.350149400     A.U. after    1 cycles

 Alpha  occ. eigenvalues --  -19.16796 -19.16796 -19.11501 -19.11500 -10.26981
 Alpha  occ. eigenvalues --  -10.26980 -10.26097 -10.26096 -10.23771 -10.23771
 Alpha  occ. eigenvalues --  -10.21038 -10.20993 -10.20318 -10.20260 -10.19995
 Alpha  occ. eigenvalues --  -10.19910  -1.09001  -1.08896  -1.04845  -1.04663
 Alpha  occ. eigenvalues --   -0.88481  -0.83367  -0.78775  -0.78282  -0.73631
 Alpha  occ. eigenvalues --   -0.70492  -0.69281  -0.64617  -0.63844  -0.58527
 Alpha  occ. eigenvalues --   -0.54901  -0.54880  -0.52472  -0.52069  -0.49411
 Alpha  occ. eigenvalues --   -0.49091  -0.48547  -0.47711  -0.45965  -0.44574
 Alpha  occ. eigenvalues --   -0.43991  -0.43910  -0.43324  -0.42389  -0.40656
 Alpha  occ. eigenvalues --   -0.40418  -0.39435  -0.39328  -0.36611  -0.35632
 Alpha  occ. eigenvalues --   -0.35055  -0.31687  -0.29527  -0.28380  -0.26173
 Alpha  occ. eigenvalues --   -0.25303  -0.22917
 Alpha virt. eigenvalues --   -0.11379  -0.03575  -0.03477  -0.02030  -0.00705
 Alpha virt. eigenvalues --    0.00531   0.01347   0.01839   0.01927   0.02700
 Alpha virt. eigenvalues --    0.03278   0.03773   0.03873   0.04268   0.04786

  Beta  occ. eigenvalues --  -19.16796 -19.16796 -19.11501 -19.11500 -10.26981
  Beta  occ. eigenvalues --  -10.26980 -10.26097 -10.26096 -10.23771 -10.23771
  Beta  occ. eigenvalues --  -10.21038 -10.20993 -10.20318 -10.20260 -10.19995
  Beta  occ. eigenvalues --  -10.19910  -1.09001  -1.08896  -1.04845  -1.04663
  Beta  occ. eigenvalues --   -0.88481  -0.83367  -0.78775  -0.78282  -0.73631
  Beta  occ. eigenvalues --   -0.70492  -0.69281  -0.64617  -0.63844  -0.58527
  Beta  occ. eigenvalues --   -0.54901  -0.54880  -0.52472  -0.52069  -0.49411
  Beta  occ. eigenvalues --   -0.49091  -0.48547  -0.47711  -0.45965  -0.44574
  Beta  occ. eigenvalues --   -0.43991  -0.43910  -0.43324  -0.42389  -0.40656
  Beta  occ. eigenvalues --   -0.40418  -0.39435  -0.39328  -0.36611  -0.35632
  Beta  occ. eigenvalues --   -0.35055  -0.31687  -0.29527  -0.28380  -0.26173
  Beta  occ. eigenvalues --   -0.25303  -0.22917
  Beta virt. eigenvalues --   -0.11379  -0.03575  -0.03477  -0.02030  -0.00705
  Beta virt. eigenvalues --    0.00531   0.01347   0.01839   0.01927   0.02700
  Beta virt. eigenvalues --    0.03278   0.03773   0.03873   0.04268   0.04786

 Mulliken charges and spin densities:
               1          2
     1  C   -0.296090   0.000000
     2  O   -0.100701  -0.000000
     3  C    0.017841   0.000000
     4  C   -0.166651   0.000000
     5  C   -0.166590  -0.000000
     6  C    0.018428  -0.000000
     7  O   -0.100693   0.000000
     8  C   -0.296102  -0.000000
     9  C    0.049024   0.000000
    10  C   -0.066611   0.000000
    11  O   -0.238169  -0.000000
    12  C   -0.089360  -0.000000
    13  C   -0.089617  -0.000000
    14  C   -0.066259   0.000000
    15  O   -0.238190  -0.000000
    16  C    0.048956  -0.000000
    17  H    0.203995   0.000000
    18  H    0.146612   0.000000
    19  H    0.146306   0.000000
    20  H    0.182803  -0.000000
    21  H    0.182805   0.000000
    22  H    0.203990   0.000000
    23  H    0.146577  -0.000000
    24  H    0.146341  -0.000000
    25  H    0.210673   0.000000
    26  H    0.210680  -0.000000
 Sum of Mulliken charges =  -0.00000  -0.00000

 Dipole moment (field-independent basis, Debye):
    X=             -1.3744    Y=              4.8354    Z=             -0.3245  Tot=              5.0374
 Quadrupole moment (field-independent basis, Debye-Ang):
   XX=            -97.2106   YY=            -81.5331   ZZ=            -93.3687
   XY=             -4.8135   XZ=              0.4800   YZ=             -0.8315

  Exact polarizability: 210.429   4.391 194.794  -4.874  -7.534  85.183
 Approx polarizability: 364.133  18.741 300.760  -9.588 -12.036 133.506

 ******    1 imaginary frequencies (negative Signs) ******

                      1                      2                      3
                      A                      A                      A
 Frequencies --     -9.7002                30.6774                69.4766
 Red. masses --      6.4888                 7.7932                 3.2544
 Frc consts  --      0.0004                 0.0043                 0.0093
 IR Inten    --     12.8431                 0.0003                 0.7480

                      4                      5                      6
                      A                      A                      A
 Frequencies --     90.2050               103.1475               197.2234
 Red. masses --      3.5766                 3.9354                 3.2473
 Frc consts  --      0.0171                 0.0247                 0.0744
 IR Inten    --      0.0003                 4.0716                 0.5256

                      7                      8                      9
                      A                      A                      A
 Frequencies --    207.5414               223.2982               235.9906
 Red. masses --      5.1423                 5.8576                 2.7225
 Frc consts  --      0.1305                 0.1721                 0.0893
 IR Inten    --      3.4166                 1.3309                 0.0011

                     10                     11                     12
                      A                      A                      A
 Frequencies --    239.1145               260.3743               336.3698
 Red. masses --      1.2635                 1.1464                 4.1374
 Frc consts  --      0.0426                 0.0458                 0.2758
 IR Inten    --      0.0002                 0.7874                 5.3089

                     13                     14                     15
                      A                      A                      A
 Frequencies --    350.7613               351.2989               378.9890
 Red. masses --      6.0598                 8.3802                 4.6608
 Frc consts  --      0.4393                 0.6093                 0.3944
 IR Inten    --      1.8575                 0.5090                 0.0002

                     16                     17                     18
                      A                      A                      A
 Frequencies --    391.9477               443.4394               488.9324
 Red. masses --     10.1493                11.2695                 5.4184
 Frc consts  --      0.9186                 1.3056                 0.7632
 IR Inten    --      4.1375                19.4137                 0.0004

                     19                     20                     21
                      A                      A                      A
 Frequencies --    502.5915               519.1707               544.7900
 Red. masses --      6.7019                 5.0878                 2.8621
 Frc consts  --      0.9974                 0.8080                 0.5005
 IR Inten    --      8.3279                 0.7478                 1.0426

                     22                     23                     24
                      A                      A                      A
 Frequencies --    632.2458               654.8252               663.1353
 Red. masses --      6.1190                 2.2817                 4.4053
 Frc consts  --      1.4411                 0.5764                 1.1414
 IR Inten    --     23.9152                 9.1755                 1.0693

                     25                     26                     27
                      A                      A                      A
 Frequencies --    716.2520               734.5119               759.8285
 Red. masses --      6.2338                 5.7444                 5.8164
 Frc consts  --      1.8842                 1.8260                 1.9785
 IR Inten    --      0.0017                19.7866                 0.5470

                     28                     29                     30
                      A                      A                      A
 Frequencies --    802.0548               818.2410               874.6167
 Red. masses --     10.1868                 1.6293                 2.1818
 Frc consts  --      3.8609                 0.6427                 0.9834
 IR Inten    --      0.0010                31.3379                46.8177

                     31                     32                     33
                      A                      A                      A
 Frequencies --    874.7201               917.3287               926.0958
 Red. masses --      7.6419                 6.8808                 1.3356
 Frc consts  --      3.4450                 3.4115                 0.6749
 IR Inten    --      4.3086                 4.1251                 0.0000

                     34                     35                     36
                      A                      A                      A
 Frequencies --   1015.1865              1048.2428              1074.5583
 Red. masses --      1.2496                 5.4947                 6.3823
 Frc consts  --      0.7588                 3.5573                 4.3420
 IR Inten    --      0.0012               153.4595                46.3410

                     37                     38                     39
                      A                      A                      A
 Frequencies --   1120.2340              1123.7061              1163.5792
 Red. masses --      4.2636                 1.7424                 1.2727
 Frc consts  --      3.1524                 1.2963                 1.0152
 IR Inten    --    119.2258                45.9162                 0.0135

                     40                     41                     42
                      A                      A                      A
 Frequencies --   1163.8527              1187.4675              1204.7038
 Red. masses --      1.2735                 1.4005                 1.3589
 Frc consts  --      1.0163                 1.1635                 1.1620
 IR Inten    --      1.6566                 1.6409                 2.2134

                     43                     44                     45
                      A                      A                      A
 Frequencies --   1206.6784              1267.1848              1269.5492
 Red. masses --      1.3178                 2.3450                 2.7537
 Frc consts  --      1.1305                 2.2186                 2.6150
 IR Inten    --     72.5780                70.4611               232.7601

                     46                     47                     48
                      A                      A                      A
 Frequencies --   1307.0249              1308.6887              1344.5678
 Red. masses --      5.2859                 3.9863                 7.4531
 Frc consts  --      5.3203                 4.0225                 7.9388
 IR Inten    --    157.5059               318.0071                30.0836

                     49                     50                     51
                      A                      A                      A
 Frequencies --   1392.6887              1419.9102              1460.9858
 Red. masses --      1.8910                 5.5837                 1.5121
 Frc consts  --      2.1610                 6.6327                 1.9016
 IR Inten    --      0.7056                35.1776                78.3713

                     52                     53                     54
                      A                      A                      A
 Frequencies --   1479.2688              1495.7550              1496.0207
 Red. masses --      1.2126                 1.3596                 1.0474
 Frc consts  --      1.5633                 1.7921                 1.3811
 IR Inten    --      0.9780                94.0204                19.5425

                     55                     56                     57
                      A                      A                      A
 Frequencies --   1496.1540              1501.7467              1505.3872
 Red. masses --      1.0689                 1.0604                 1.3346
 Frc consts  --      1.4097                 1.4090                 1.7819
 IR Inten    --      8.7740                 7.7955                 0.0226

                     58                     59                     60
                      A                      A                      A
 Frequencies --   1595.9199              1620.5501              1682.3798
 Red. masses --      5.6706                 6.2578                 9.1203
 Frc consts  --      8.5094                 9.6828                15.2093
 IR Inten    --    138.2897                96.9218                34.9490

                     61                     62                     63
                      A                      A                      A
 Frequencies --   1714.8672              1716.5195              3002.9710
 Red. masses --     11.6560                 9.0402                 1.0350
 Frc consts  --     20.1957                15.6937                 5.4989
 IR Inten    --    470.7784                10.1346                39.4442

                     64                     65                     66
                      A                      A                      A
 Frequencies --   3003.8213              3063.9829              3064.1094
 Red. masses --      1.0351                 1.1063                 1.1063
 Frc consts  --      5.5028                 6.1190                 6.1197
 IR Inten    --     94.7213                 8.7101                62.9276

                     67                     68                     69
                      A                      A                      A
 Frequencies --   3139.3366              3139.4599              3171.6264
 Red. masses --      1.0985                 1.0986                 1.0868
 Frc consts  --      6.3788                 6.3795                 6.4412
 IR Inten    --     29.7594                 0.7118                 1.3331

                     70                     71                     72
                      A                      A                      A
 Frequencies --   3190.5594              3205.4435              3220.1252
 Red. masses --      1.0994                 1.0868                 1.0933
 Frc consts  --      6.5938                 6.5790                 6.6792
 IR Inten    --      8.1480                 6.0547                 3.6613

 - Thermochemistry -
 -------------------
 Temperature   298.150 Kelvin.  Pressure   1.00000 Atm.
 Atom     1 has atomic number  6 and mass  12.00000

 Molecular mass:   218.05791 amu.
 Principal axes and moments of inertia in atomic units:
                           1         2         3
     Eigenvalues --  2500.927713550.230506028.01080
           X            0.96146  -0.27252   0.03633
           Y            0.26975   0.96060   0.06704
           Z           -0.05317  -0.05466   0.99709
 This molecule is an asymmetric top.
 Rotational symmetry number  1.
 Warning -- assumption of classical behavior for rotation
           may cause significant error
 Rotational temperatures (Kelvin)      0.03463     0.02440     0.01437
 Rotational constants (GHZ):           0.72163     0.50834     0.29939
    1 imaginary frequencies ignored.
 Zero-point vibrational energy     513939.7 (Joules/Mol)
                                  122.83454 (Kcal/Mol)
 Warning -- explicit consideration of  20 degrees of freedom as
           vibrations may cause significant error
 Vibrational temperatures:     44.14    99.96   129.78   148.41   283.76
          (Kelvin)            298.61   321.28   339.54   344.03   374.62
                              483.96   504.67   505.44   545.28   563.93
                              638.01   703.46   723.12   746.97   783.83
                              909.66   942.15   954.10  1030.53  1056.80
                             1093.22  1153.98  1177.27  1258.38  1258.53
                             1319.83  1332.45  1460.63  1508.19  1546.05
                             1611.77  1616.76  1674.13  1674.52  1708.50
                             1733.30  1736.14  1823.20  1826.60  1880.52
                             1882.91  1934.53  2003.77  2042.93  2102.03
                             2128.34  2152.06  2152.44  2152.63  2160.68
                             2165.92  2296.17  2331.61  2420.57  2467.31
                             2469.69  4320.61  4321.83  4408.39  4408.57
                             4516.81  4516.98  4563.26  4590.50  4611.92
                             4633.04

 Zero-point correction=                           0.195749 (Hartree/Particle)
 Thermal correction to Energy=                    0.209143
 Thermal correction to Enthalpy=                  0.210087
 Thermal correction to Gibbs Free Energy=         0.155213
 Sum of electronic and zero-point Energies=           -764.154400
 Sum of electronic and thermal Energies=              -764.141006
 Sum of electronic and thermal Enthalpies=            -764.140062
 Sum of electronic and thermal Free Energies=         -764.194936

                     E (Thermal)             CV                S
                      KCal/Mol        Cal/Mol-Kelvin    Cal/Mol-Kelvin
 Total                  131.239             51.254            115.493
 Electronic               0.000              0.000              0.000
 Translational            0.889              2.981             42.042
 Rotational               0.889              2.981             32.348
 Vibrational            129.462             45.292             41.103
 Vibration     1          0.594              1.984              5.785
 Vibration     2          0.598              1.969              4.168
 Vibration     3          0.602              1.956              3.656
 Vibration     4          0.605              1.947              3.394
 Vibration     5          0.637              1.844              2.159
 Vibration     6          0.641              1.829              2.065
 Vibration     7          0.649              1.806              1.932
 Vibration     8          0.655              1.786              1.833
 Vibration     9          0.657              1.781              1.809
 Vibration    10          0.668              1.745              1.659
 Vibration    11          0.717              1.603              1.229
 Vibration    12          0.728              1.574              1.163
 Vibration    13          0.728              1.573              1.160
 Vibration    14          0.749              1.515              1.043
 Vibration    15          0.759              1.487              0.993
 Vibration    16          0.803              1.375              0.816
 Vibration    17          0.845              1.275              0.686
 Vibration    18          0.858              1.244              0.652
 Vibration    19          0.874              1.208              0.612
 Vibration    20          0.900              1.151              0.555

                           ! Non-Optimized Parameters !
 Normal termination of Gaussian 16 at Tue Dec 26 21:48:05 2023.
