 Gaussian 16, Revision A.03,
 Gaussian 16:  ES64L-G16RevA.03 25-Dec-2016

 ----------------------------------------------------------------
 #P UB3LYP/6-311++G(d,p) SCRF=(PCM,Solvent=n,n-DiMethylFormamide)
 ----------------------------------------------------------------

 ------------------
 Quinone PCM in DMF
 ------------------
 Symbolic Z-matrix:
 Charge =  0 Multiplicity = 1

                         Standard orientation:
 ---------------------------------------------------------------------
 Center     Atomic      Atomic             Coordinates (Angstroms)
 Number     Number       Type             X           Y           Z
 ---------------------------------------------------------------------
      1          6           0       -7.274070   -0.510050    0.370780
      2          6           0       -5.772295   -0.512521    0.220424
      3          6           0       -5.140422   -1.314435   -0.736028
      4          6           0       -3.760451   -1.288838   -0.906731
      5          6           0       -2.958785   -0.465070   -0.106774
      6          7           0       -1.557991   -0.526651   -0.266306
      7          6           0       -0.653607    0.502858   -0.220548
      8          6           0       -1.091858    1.846216   -0.298002
      9          6           0       -0.198997    2.885449   -0.262728
     10          6           0        1.186325    2.670212   -0.146216
     11          8           0        2.024798    3.737828   -0.096114
     12          6           0        1.675210    1.358222   -0.097303
     13          6           0        3.143635    1.116771    0.014609
     14          8           0        3.960515    2.022848    0.045699
     15          6           0        3.608586   -0.298650    0.098973
     16          6           0        4.976762   -0.554770    0.242832
     17          6           0        5.436616   -1.862416    0.321019
     18          6           0        4.533521   -2.928943    0.251416
     19          6           0        3.175653   -2.682711    0.103430
     20          6           0        2.704956   -1.365031    0.029590
     21          6           0        1.249835   -1.124216   -0.133031
     22          8           0        0.496486   -2.101923   -0.254842
     23          6           0        0.751253    0.260040   -0.145651
     24          6           0       -3.578008    0.321522    0.872578
     25          6           0       -4.961749    0.299838    1.020155
     26          1           0       -7.571938   -0.250869    1.389482
     27          1           0       -7.737390    0.220808   -0.301472
     28          1           0       -7.700313   -1.487468    0.132560
     29          1           0       -5.737081   -1.966281   -1.366237
     30          1           0       -3.292270   -1.908898   -1.663297
     31          1           0       -1.123147   -1.444467   -0.360935
     32          1           0       -2.146571    2.053112   -0.413858
     33          1           0       -0.566603    3.905501   -0.338223
     34          1           0        1.501349    4.545860   -0.140821
     35          1           0        5.655244    0.287674    0.290403
     36          1           0        6.497146   -2.057049    0.435012
     37          1           0        4.894365   -3.949558    0.312026
     38          1           0        2.459166   -3.491817    0.043060
     39          1           0       -2.976037    0.925700    1.540441
     40          1           0       -5.417046    0.913414    1.791272
 ---------------------------------------------------------------------

 SCF Done:  E(UB3LYP) =  -1090.01670369     A.U. after   15 cycles

 The electronic state is 1-A.
 Alpha  occ. eigenvalues --  -19.17163 -19.12450 -19.11863 -14.34761 -10.27685
 Alpha  occ. eigenvalues --  -10.27604 -10.26262 -10.24890 -10.22595 -10.20836
 Alpha  occ. eigenvalues --  -10.20737 -10.20371 -10.20311 -10.20231 -10.20041
 Alpha  occ. eigenvalues --  -10.19542 -10.19490 -10.19351 -10.19324 -10.18874
 Alpha  occ. eigenvalues --  -10.18336 -10.18226 -10.18066 -10.18031 -10.16828
 Alpha  occ. eigenvalues --   -1.08793  -1.05869  -1.05493  -0.96829  -0.88880
 Alpha  occ. eigenvalues --   -0.87777  -0.85978  -0.81190  -0.78817  -0.77493
 Alpha  occ. eigenvalues --   -0.77241  -0.75889  -0.75117  -0.69586  -0.68850
 Alpha  occ. eigenvalues --   -0.66760  -0.65370  -0.62832  -0.61823  -0.60002
 Alpha  occ. eigenvalues --   -0.59460  -0.58085  -0.56387  -0.54457  -0.53269
 Alpha  occ. eigenvalues --   -0.50999  -0.49734  -0.48687  -0.48480  -0.47890
 Alpha  occ. eigenvalues --   -0.47254  -0.46074  -0.45873  -0.44942  -0.44715
 Alpha  occ. eigenvalues --   -0.44210  -0.44099  -0.43041  -0.42727  -0.42490
 Alpha  occ. eigenvalues --   -0.41957  -0.41589  -0.40734  -0.39804  -0.38816
 Alpha  occ. eigenvalues --   -0.38413  -0.37691  -0.37401  -0.36607  -0.36434
 Alpha  occ. eigenvalues --   -0.36399  -0.35141  -0.31613  -0.28918  -0.28292
 Alpha  occ. eigenvalues --   -0.27601  -0.27527  -0.26700  -0.26575  -0.25588
 Alpha  occ. eigenvalues --   -0.20794
 Alpha virt. eigenvalues --   -0.11339  -0.06612  -0.03830  -0.02658  -0.02450
 Alpha virt. eigenvalues --   -0.00888  -0.00373  -0.00244  -0.00063   0.00897
 Alpha virt. eigenvalues --    0.01326   0.01753   0.01997   0.02664   0.03325

  Beta  occ. eigenvalues --  -19.17163 -19.12450 -19.11863 -14.34761 -10.27685
  Beta  occ. eigenvalues --  -10.27604 -10.26262 -10.24890 -10.22595 -10.20836
  Beta  occ. eigenvalues --  -10.20737 -10.20371 -10.20311 -10.20231 -10.20041
  Beta  occ. eigenvalues --  -10.19542 -10.19490 -10.19351 -10.19324 -10.18874
  Beta  occ. eigenvalues --  -10.18336 -10.18226 -10.18066 -10.18031 -10.16828
  Beta  occ. eigenvalues --   -1.08793  -1.05869  -1.05493  -0.96829  -0.88880
  Beta  occ. eigenvalues --   -0.87777  -0.85978  -0.81190  -0.78817  -0.77493
  Beta  occ. eigenvalues --   -0.77241  -0.75889  -0.75117  -0.69586  -0.68850
  Beta  occ. eigenvalues --   -0.66760  -0.65370  -0.62832  -0.61823  -0.60002
  Beta  occ. eigenvalues --   -0.59460  -0.58085  -0.56387  -0.54457  -0.53269
  Beta  occ. eigenvalues --   -0.50999  -0.49734  -0.48687  -0.48480  -0.47890
  Beta  occ. eigenvalues --   -0.47254  -0.46074  -0.45873  -0.44942  -0.44715
  Beta  occ. eigenvalues --   -0.44210  -0.44099  -0.43041  -0.42727  -0.42490
  Beta  occ. eigenvalues --   -0.41957  -0.41589  -0.40734  -0.39804  -0.38816
  Beta  occ. eigenvalues --   -0.38413  -0.37691  -0.37401  -0.36607  -0.36434
  Beta  occ. eigenvalues --   -0.36399  -0.35141  -0.31613  -0.28918  -0.28292
  Beta  occ. eigenvalues --   -0.27601  -0.27527  -0.26700  -0.26575  -0.25588
  Beta  occ. eigenvalues --   -0.20794
  Beta virt. eigenvalues --   -0.11339  -0.06612  -0.03830  -0.02658  -0.02450
  Beta virt. eigenvalues --   -0.00888  -0.00373  -0.00244  -0.00063   0.00897
  Beta virt. eigenvalues --    0.01326   0.01753   0.01997   0.02664   0.03325

 Mulliken charges and spin densities:
               1          2
     1  C   -0.581435  -0.000000
     2  C    0.337475   0.000000
     3  C   -0.376507   0.000000
     4  C   -0.173642   0.000000
     5  C   -0.009564  -0.000000
     6  N    0.034049  -0.000000
     7  C   -0.146377   0.000000
     8  C    0.048033  -0.000000
     9  C   -0.305181  -0.000000
    10  C   -0.338871  -0.000000
    11  O   -0.210466   0.000000
    12  C    0.292589   0.000000
    13  C   -0.368869   0.000000
    14  O   -0.297908   0.000000
    15  C    0.254639  -0.000000
    16  C    0.151464  -0.000000
    17  C   -0.436636  -0.000000
    18  C   -0.422736   0.000000
    19  C   -0.007520   0.000000
    20  C    0.300100   0.000000
    21  C   -0.324456  -0.000000
    22  O   -0.307374   0.000000
    23  C    0.177214   0.000000
    24  C    0.005899   0.000000
    25  C   -0.433972   0.000000
    26  H    0.153808  -0.000000
    27  H    0.177333   0.000000
    28  H    0.152308  -0.000000
    29  H    0.191234  -0.000000
    30  H    0.185428   0.000000
    31  H    0.386491  -0.000000
    32  H    0.225461   0.000000
    33  H    0.204690  -0.000000
    34  H    0.304879  -0.000000
    35  H    0.187984   0.000000
    36  H    0.201065  -0.000000
    37  H    0.204667   0.000000
    38  H    0.177929  -0.000000
    39  H    0.188299   0.000000
    40  H    0.198479   0.000000
 Sum of Mulliken charges =  -0.00000  -0.00000

 Dipole moment (field-independent basis, Debye):
    X=             -5.1789    Y=              1.0639    Z=              0.1223  Tot=              5.2885
 Quadrupole moment (field-independent basis, Debye-Ang):
   XX=           -129.1854   YY=           -128.7347   ZZ=           -146.1709
   XY=            -22.8960   XZ=              1.1218   YZ=              1.3255

 Normal termination of Gaussian 16 at Sun Jan 14 01:11:41 2024.
