 Gaussian 16, Revision A.03,
 Gaussian 16:  ES64L-G16RevA.03 25-Dec-2016

 ----------------------------------------------------------------
 #P UB3LYP/6-311++G(d,p) SCRF=(PCM,Solvent=n,n-DiMethylFormamide)
 ----------------------------------------------------------------

 -------
 Reduced
 -------
 Symbolic Z-matrix:
 Charge = -2 Multiplicity = 1

                         Standard orientation:
 ---------------------------------------------------------------------
 Center     Atomic      Atomic             Coordinates (Angstroms)
 Number     Number       Type             X           Y           Z
 ---------------------------------------------------------------------
      1          8           0        1.817959    2.865610   -0.000124
      2          6           0        1.407545    1.649184   -0.000121
      3          6           0        2.340863    0.533310   -0.000058
      4          6           0        3.733057    0.787863    0.000058
      5          6           0        4.663396   -0.233628    0.000177
      6          6           0        4.218422   -1.580393    0.000227
      7          6           0        2.863748   -1.854074    0.000088
      8          6           0        1.887095   -0.828233   -0.000098
      9          6           0        0.473168   -1.206265   -0.000234
     10          8           0        0.159810   -2.455696   -0.000167
     11          6           0       -0.462368   -0.112879   -0.000150
     12          6           0       -1.905891   -0.330684   -0.000077
     13          6           0       -2.498857   -1.624831   -0.000086
     14          6           0       -3.880550   -1.807321   -0.000001
     15          6           0       -4.751534   -0.711770    0.000150
     16          6           0       -4.206771    0.570416    0.000190
     17          6           0       -2.814175    0.790049    0.000055
     18          6           0       -2.280108    2.123068    0.000074
     19          6           0       -0.928008    2.326864    0.000013
     20          6           0        0.017812    1.270954   -0.000071
     21          1           0        4.032015    1.831569    0.000056
     22          1           0        5.728784   -0.008627    0.000275
     23          1           0        4.941745   -2.394395    0.000387
     24          1           0        2.488688   -2.872391    0.000161
     25          1           0       -1.816189   -2.464261   -0.000149
     26          1           0       -4.281820   -2.819385   -0.000008
     27          1           0       -5.830386   -0.854573    0.000258
     28          1           0       -4.861834    1.440677    0.000351
     29          1           0       -2.973616    2.962816    0.000195
     30          1           0       -0.510605    3.329474   -0.000017
 ---------------------------------------------------------------------

 SCF Done:  E(UB3LYP) =  -842.871135276     A.U. after   16 cycles

 The electronic state is 1-A.
 Alpha  occ. eigenvalues --  -19.02271 -19.02043 -10.17783 -10.17776 -10.16304
 Alpha  occ. eigenvalues --  -10.16198 -10.15568 -10.15455 -10.15345 -10.15341
 Alpha  occ. eigenvalues --  -10.15299 -10.14863 -10.14733 -10.14524 -10.14336
 Alpha  occ. eigenvalues --  -10.14144 -10.14058 -10.14002 -10.13834 -10.13203
 Alpha  occ. eigenvalues --   -0.94299  -0.93938  -0.84530  -0.82836  -0.79547
 Alpha  occ. eigenvalues --   -0.75551  -0.73492  -0.72487  -0.71775  -0.69046
 Alpha  occ. eigenvalues --   -0.64077  -0.61006  -0.59890  -0.58040  -0.56453
 Alpha  occ. eigenvalues --   -0.52836  -0.52208  -0.48819  -0.47424  -0.46771
 Alpha  occ. eigenvalues --   -0.44168  -0.43515  -0.42709  -0.40795  -0.40275
 Alpha  occ. eigenvalues --   -0.40082  -0.38847  -0.38572  -0.37434  -0.36800
 Alpha  occ. eigenvalues --   -0.36336  -0.36089  -0.34997  -0.33002  -0.32988
 Alpha  occ. eigenvalues --   -0.32151  -0.31554  -0.31334  -0.29991  -0.29253
 Alpha  occ. eigenvalues --   -0.25413  -0.23257  -0.22627  -0.22406  -0.20248
 Alpha  occ. eigenvalues --   -0.19500  -0.19199  -0.11116
 Alpha virt. eigenvalues --   -0.02838  -0.01727  -0.00003   0.00573   0.00897
 Alpha virt. eigenvalues --    0.01233   0.02040   0.02209   0.02292   0.03724
 Alpha virt. eigenvalues --    0.03850   0.04754   0.04976   0.05637   0.05933

  Beta  occ. eigenvalues --  -19.02271 -19.02043 -10.17783 -10.17776 -10.16304
  Beta  occ. eigenvalues --  -10.16198 -10.15568 -10.15455 -10.15345 -10.15341
  Beta  occ. eigenvalues --  -10.15299 -10.14863 -10.14733 -10.14524 -10.14336
  Beta  occ. eigenvalues --  -10.14144 -10.14058 -10.14002 -10.13834 -10.13203
  Beta  occ. eigenvalues --   -0.94299  -0.93938  -0.84530  -0.82836  -0.79547
  Beta  occ. eigenvalues --   -0.75551  -0.73492  -0.72487  -0.71775  -0.69046
  Beta  occ. eigenvalues --   -0.64077  -0.61006  -0.59890  -0.58040  -0.56453
  Beta  occ. eigenvalues --   -0.52836  -0.52208  -0.48819  -0.47424  -0.46771
  Beta  occ. eigenvalues --   -0.44168  -0.43515  -0.42709  -0.40795  -0.40275
  Beta  occ. eigenvalues --   -0.40082  -0.38847  -0.38572  -0.37434  -0.36800
  Beta  occ. eigenvalues --   -0.36336  -0.36089  -0.34997  -0.33002  -0.32988
  Beta  occ. eigenvalues --   -0.32151  -0.31554  -0.31334  -0.29991  -0.29253
  Beta  occ. eigenvalues --   -0.25413  -0.23257  -0.22627  -0.22406  -0.20248
  Beta  occ. eigenvalues --   -0.19500  -0.19199  -0.11116
  Beta virt. eigenvalues --   -0.02838  -0.01727  -0.00003   0.00573   0.00897
  Beta virt. eigenvalues --    0.01233   0.02040   0.02209   0.02292   0.03724
  Beta virt. eigenvalues --    0.03850   0.04754   0.04976   0.05637   0.05933

 Mulliken charges and spin densities:
               1          2
     1  O   -0.630403  -0.000000
     2  C   -0.708301   0.000000
     3  C    0.226904  -0.000000
     4  C   -0.104276   0.000000
     5  C   -0.510466  -0.000000
     6  C   -0.514804  -0.000000
     7  C   -0.034853  -0.000000
     8  C    0.248014  -0.000000
     9  C   -0.516899   0.000000
    10  O   -0.593401  -0.000000
    11  C    0.512554   0.000000
    12  C    0.841627  -0.000000
    13  C   -0.603430   0.000000
    14  C   -0.579725   0.000000
    15  C   -0.354953  -0.000000
    16  C   -0.456115   0.000000
    17  C    0.422050  -0.000000
    18  C   -0.538003   0.000000
    19  C   -0.259312   0.000000
    20  C    0.633562  -0.000000
    21  H    0.146807  -0.000000
    22  H    0.161116   0.000000
    23  H    0.161928  -0.000000
    24  H    0.144257   0.000000
    25  H    0.155219  -0.000000
    26  H    0.170437  -0.000000
    27  H    0.161797  -0.000000
    28  H    0.133455  -0.000000
    29  H    0.142276   0.000000
    30  H    0.142937   0.000000
 Sum of Mulliken charges =  -2.00000   0.00000

 Dipole moment (field-independent basis, Debye):
    X=             -5.0018    Y=             -1.7000    Z=              0.0012  Tot=              5.2828
 Quadrupole moment (field-independent basis, Debye-Ang):
   XX=           -159.0853   YY=           -170.8912   ZZ=           -130.6571
   XY=            -15.0223   XZ=              0.0004   YZ=             -0.0002

 Normal termination of Gaussian 16 at Sun Jan 14 01:27:00 2024.
