 Gaussian 16, Revision A.03,
 Gaussian 16:  ES64L-G16RevA.03 25-Dec-2016

 ----------------------------------------------------------------
 #P UB3LYP/6-311++G(d,p) SCRF=(PCM,Solvent=n,n-DiMethylFormamide)
 ----------------------------------------------------------------

 ------------------
 Quinone PCM in DMF
 ------------------
 Symbolic Z-matrix:
 Charge =  0 Multiplicity = 1

                         Standard orientation:
 ---------------------------------------------------------------------
 Center     Atomic      Atomic             Coordinates (Angstroms)
 Number     Number       Type             X           Y           Z
 ---------------------------------------------------------------------
      1          6           0       -1.493282   -1.210416    0.535676
      2          6           0       -1.109371    0.171842    0.075142
      3          6           0       -2.087583    0.984965   -0.397252
      4          6           0       -3.504665    0.599898   -0.458065
      5          6           0       -3.859948   -0.774004   -0.022379
      6          6           0       -2.919631   -1.611193    0.428775
      7          8           0       -0.678481   -1.985306    1.005040
      8          8           0       -4.364019    1.370858   -0.866243
      9          6           0        0.273836    0.623959    0.204069
     10          6           0        1.527471   -0.054580   -0.075879
     11          6           0        0.607989    1.904493    0.600709
     12          6           0        2.562411    0.884943    0.164037
     13          7           0        1.966663    2.063274    0.580477
     14          6           0        1.883131   -1.329178   -0.546917
     15          6           0        3.222609   -1.625605   -0.747169
     16          6           0        4.230669   -0.677749   -0.488866
     17          6           0        3.913451    0.592092   -0.030798
     18          1           0       -1.862013    1.976205   -0.774372
     19          1           0       -4.907208   -1.046653   -0.093191
     20          1           0       -3.139447   -2.621872    0.754866
     21          1           0       -0.038555    2.703092    0.929465
     22          1           0        2.456477    2.889173    0.882845
     23          1           0        1.126274   -2.079533   -0.728755
     24          1           0        3.501969   -2.610582   -1.103027
     25          1           0        5.268859   -0.943526   -0.651012
     26          1           0        4.684484    1.329558    0.162972
 ---------------------------------------------------------------------

 SCF Done:  E(UB3LYP) =  -744.294314034     A.U. after   16 cycles

 The electronic state is 1-A.
 Alpha  occ. eigenvalues --  -19.14467 -19.13709 -14.37390 -10.29087 -10.28225
 Alpha  occ. eigenvalues --  -10.22648 -10.22528 -10.21910 -10.21214 -10.21124
 Alpha  occ. eigenvalues --  -10.20123 -10.19291 -10.18881 -10.18409 -10.17996
 Alpha  occ. eigenvalues --  -10.17929 -10.17503  -1.07678  -1.06626  -1.00017
 Alpha  occ. eigenvalues --   -0.86869  -0.85603  -0.82225  -0.77988  -0.75121
 Alpha  occ. eigenvalues --   -0.73477  -0.70975  -0.65662  -0.63802  -0.61943
 Alpha  occ. eigenvalues --   -0.60482  -0.57425  -0.55361  -0.52478  -0.51025
 Alpha  occ. eigenvalues --   -0.49761  -0.49089  -0.48197  -0.46183  -0.45174
 Alpha  occ. eigenvalues --   -0.44967  -0.44317  -0.43965  -0.43861  -0.42959
 Alpha  occ. eigenvalues --   -0.42046  -0.41010  -0.40437  -0.37272  -0.35429
 Alpha  occ. eigenvalues --   -0.35298  -0.32395  -0.31078  -0.29207  -0.28273
 Alpha  occ. eigenvalues --   -0.27952  -0.24368  -0.22242
 Alpha virt. eigenvalues --   -0.13610  -0.04400  -0.02903  -0.00734  -0.00460
 Alpha virt. eigenvalues --    0.00137   0.00321   0.00515   0.01717   0.01833
 Alpha virt. eigenvalues --    0.02943   0.03246   0.03565   0.04019   0.04381

  Beta  occ. eigenvalues --  -19.14467 -19.13709 -14.37390 -10.29087 -10.28225
  Beta  occ. eigenvalues --  -10.22648 -10.22528 -10.21910 -10.21214 -10.21124
  Beta  occ. eigenvalues --  -10.20123 -10.19291 -10.18881 -10.18409 -10.17996
  Beta  occ. eigenvalues --  -10.17929 -10.17503  -1.07678  -1.06626  -1.00017
  Beta  occ. eigenvalues --   -0.86869  -0.85603  -0.82225  -0.77988  -0.75121
  Beta  occ. eigenvalues --   -0.73477  -0.70975  -0.65662  -0.63802  -0.61943
  Beta  occ. eigenvalues --   -0.60482  -0.57425  -0.55361  -0.52478  -0.51025
  Beta  occ. eigenvalues --   -0.49761  -0.49089  -0.48197  -0.46183  -0.45174
  Beta  occ. eigenvalues --   -0.44967  -0.44317  -0.43965  -0.43861  -0.42959
  Beta  occ. eigenvalues --   -0.42046  -0.41010  -0.40437  -0.37272  -0.35429
  Beta  occ. eigenvalues --   -0.35298  -0.32395  -0.31078  -0.29207  -0.28273
  Beta  occ. eigenvalues --   -0.27952  -0.24368  -0.22242
  Beta virt. eigenvalues --   -0.13610  -0.04400  -0.02903  -0.00734  -0.00460
  Beta virt. eigenvalues --    0.00137   0.00321   0.00515   0.01717   0.01833
  Beta virt. eigenvalues --    0.02943   0.03246   0.03565   0.04019   0.04381

 Mulliken charges and spin densities:
               1          2
     1  C   -1.200276   0.000000
     2  C    1.387873  -0.000000
     3  C   -0.648999   0.000000
     4  C   -0.329770  -0.000000
     5  C    0.032687   0.000000
     6  C    0.146483   0.000000
     7  O   -0.245194   0.000000
     8  O   -0.317016   0.000000
     9  C    0.592652  -0.000000
    10  C    1.253610  -0.000000
    11  C   -0.262834   0.000000
    12  C    0.049535   0.000000
    13  N   -0.091953  -0.000000
    14  C   -0.988254  -0.000000
    15  C   -0.539620   0.000000
    16  C   -0.278126  -0.000000
    17  C   -0.566141  -0.000000
    18  H    0.225394  -0.000000
    19  H    0.243177   0.000000
    20  H    0.243598   0.000000
    21  H    0.221245  -0.000000
    22  H    0.349380   0.000000
    23  H    0.154470  -0.000000
    24  H    0.191288   0.000000
    25  H    0.187363   0.000000
    26  H    0.189429  -0.000000
 Sum of Mulliken charges =  -0.00000   0.00000

 Dipole moment (field-independent basis, Debye):
    X=              3.0465    Y=              2.6764    Z=              1.2144  Tot=              4.2330
 Quadrupole moment (field-independent basis, Debye-Ang):
   XX=            -98.6305   YY=            -87.2743   ZZ=           -102.7680
   XY=             22.1059   XZ=             -4.6873   YZ=             10.7026

 Normal termination of Gaussian 16 at Wed Jan 24 22:50:38 2024.
