 Gaussian 16, Revision A.03,
 Gaussian 16:  ES64L-G16RevA.03 25-Dec-2016

 ----------------------------------------------------------------
 #P UB3LYP/6-311++G(d,p) SCRF=(PCM,Solvent=n,n-DiMethylFormamide)
 ----------------------------------------------------------------

 ------------------
 Radical PCM in DMF
 ------------------
 Symbolic Z-matrix:
 Charge = -1 Multiplicity = 2

                         Standard orientation:
 ---------------------------------------------------------------------
 Center     Atomic      Atomic             Coordinates (Angstroms)
 Number     Number       Type             X           Y           Z
 ---------------------------------------------------------------------
      1          6           0        4.263795   -1.602679    0.004025
      2          6           0        2.958683   -0.849671   -0.006225
      3          6           0        2.947589    0.547857   -0.043015
      4          6           0        1.770374    1.268250   -0.017885
      5         17           0        1.997571    3.030245   -0.072164
      6          6           0        0.503884    0.633156    0.027178
      7          6           0       -0.757220    1.394138    0.068905
      8          8           0       -0.803996    2.641354    0.136773
      9          6           0       -2.001187    0.618880    0.028419
     10          6           0       -3.234022    1.307230    0.032048
     11          6           0       -4.432353    0.623401   -0.011736
     12          6           0       -4.435094   -0.788130   -0.058143
     13          6           0       -3.240667   -1.478988   -0.059635
     14          6           0       -2.004010   -0.795023   -0.015892
     15          6           0       -0.763891   -1.558771   -0.010163
     16          8           0       -0.822216   -2.830059   -0.051623
     17          6           0        0.493638   -0.815926    0.030078
     18          6           0        1.738494   -1.537457    0.038578
     19          7           0        1.750424   -2.917255    0.135301
     20          1           0        4.352716   -2.246670    0.888272
     21          1           0        4.378436   -2.252967   -0.875490
     22          1           0        5.109646   -0.911457    0.005422
     23          1           0        3.887537    1.086372   -0.082877
     24          1           0       -3.198454    2.389532    0.068662
     25          1           0       -5.371732    1.168361   -0.010389
     26          1           0       -5.376835   -1.328160   -0.091288
     27          1           0       -3.211849   -2.561358   -0.092068
     28          1           0        0.825165   -3.333398   -0.009867
     29          1           0        2.555305   -3.391602   -0.241113
 ---------------------------------------------------------------------

 SCF Done:  E(UB3LYP) =  -1243.41489164     A.U. after   20 cycles

 The electronic state is 2-A.
 Alpha  occ. eigenvalues -- -101.54075 -19.07834 -19.07208 -14.30471 -10.22819
 Alpha  occ. eigenvalues --  -10.22682 -10.22328 -10.21634 -10.18600 -10.18042
 Alpha  occ. eigenvalues --  -10.17688 -10.17511 -10.17275 -10.17228 -10.17157
 Alpha  occ. eigenvalues --  -10.17088 -10.16939 -10.16894 -10.16788  -9.45557
 Alpha  occ. eigenvalues --   -7.22001  -7.21083  -7.20980  -1.00640  -1.00381
 Alpha  occ. eigenvalues --   -0.91683  -0.87401  -0.85718  -0.81894  -0.79364
 Alpha  occ. eigenvalues --   -0.75333  -0.74993  -0.72152  -0.70010  -0.65910
 Alpha  occ. eigenvalues --   -0.63315  -0.61598  -0.57886  -0.55845  -0.54762
 Alpha  occ. eigenvalues --   -0.51918  -0.50717  -0.47909  -0.47194  -0.45318
 Alpha  occ. eigenvalues --   -0.44646  -0.44248  -0.43356  -0.42336  -0.42039
 Alpha  occ. eigenvalues --   -0.41660  -0.41022  -0.40030  -0.39009  -0.38626
 Alpha  occ. eigenvalues --   -0.37605  -0.37310  -0.36599  -0.34997  -0.34729
 Alpha  occ. eigenvalues --   -0.33940  -0.33666  -0.31001  -0.29560  -0.26597
 Alpha  occ. eigenvalues --   -0.25604  -0.24825  -0.24650  -0.23068  -0.21136
 Alpha  occ. eigenvalues --   -0.13842
 Alpha virt. eigenvalues --   -0.04985  -0.02285  -0.00492   0.00087   0.00239
 Alpha virt. eigenvalues --    0.00988   0.01617   0.02095   0.02343   0.03468
 Alpha virt. eigenvalues --    0.03967   0.04083   0.04842   0.04917   0.05483

  Beta  occ. eigenvalues -- -101.54069 -19.07336 -19.06658 -14.30448 -10.22615
  Beta  occ. eigenvalues --  -10.22529 -10.22268 -10.21626 -10.18522 -10.18029
  Beta  occ. eigenvalues --  -10.17563 -10.17476 -10.17232 -10.17185 -10.17090
  Beta  occ. eigenvalues --  -10.17012 -10.16933 -10.16895 -10.16797  -9.45552
  Beta  occ. eigenvalues --   -7.22001  -7.21062  -7.20977  -0.99752  -0.99447
  Beta  occ. eigenvalues --   -0.91569  -0.87259  -0.85528  -0.81767  -0.79038
  Beta  occ. eigenvalues --   -0.75152  -0.74794  -0.71958  -0.69754  -0.65371
  Beta  occ. eigenvalues --   -0.63101  -0.61394  -0.57781  -0.55642  -0.54586
  Beta  occ. eigenvalues --   -0.51746  -0.50624  -0.47711  -0.46953  -0.45217
  Beta  occ. eigenvalues --   -0.44522  -0.44148  -0.42840  -0.42288  -0.41926
  Beta  occ. eigenvalues --   -0.40828  -0.40486  -0.39840  -0.38896  -0.37444
  Beta  occ. eigenvalues --   -0.37208  -0.36933  -0.36284  -0.34864  -0.33866
  Beta  occ. eigenvalues --   -0.33592  -0.32967  -0.30924  -0.29084  -0.24971
  Beta  occ. eigenvalues --   -0.24763  -0.24349  -0.24198  -0.22596  -0.20282
  Beta virt. eigenvalues --   -0.08242  -0.03969  -0.01280  -0.00478   0.00243
  Beta virt. eigenvalues --    0.00447   0.01012   0.01641   0.02103   0.02373
  Beta virt. eigenvalues --    0.03556   0.03976   0.04105   0.04902   0.05106

 Mulliken charges and spin densities:
               1          2
     1  C   -0.405457  -0.003952
     2  C    0.395465   0.086902
     3  C   -0.769051   0.014924
     4  C    0.989834   0.053670
     5  Cl   0.321221   0.003947
     6  C    0.348848   0.058061
     7  C   -1.443758   0.084423
     8  O   -0.347720   0.202027
     9  C   -0.012616   0.042566
    10  C    0.129314   0.025010
    11  C   -0.443198   0.037038
    12  C   -0.532209   0.029556
    13  C    0.124689   0.032573
    14  C   -0.170024   0.012527
    15  C   -0.523044   0.116507
    16  O   -0.445901   0.182061
    17  C    0.174040  -0.000090
    18  C    0.030536   0.015214
    19  N   -0.401639   0.012490
    20  H    0.175309   0.004258
    21  H    0.174632   0.004168
    22  H    0.172199   0.000143
    23  H    0.177760  -0.002466
    24  H    0.159880  -0.001556
    25  H    0.183045  -0.003015
    26  H    0.180493  -0.002632
    27  H    0.165955  -0.001183
    28  H    0.328885  -0.002317
    29  H    0.262510  -0.000859
 Sum of Mulliken charges =  -1.00000   1.00000

 Dipole moment (field-independent basis, Debye):
    X=              3.5986    Y=             -3.8587    Z=             -1.0555  Tot=              5.3809
 Quadrupole moment (field-independent basis, Debye-Ang):
   XX=           -115.1831   YY=           -153.8864   ZZ=           -125.2764
   XY=             -9.6313   XZ=             -1.7324   YZ=              2.1738

 Normal termination of Gaussian 16 at Sun Jan 14 01:17:17 2024.
