 Q-Chem 5.4, Q-Chem, Inc., Pleasanton, CA (2021)
 Q-Chem 5.4.0 for Intel X86 EM64T Linux

User input:
--------------------------------------------------------------
$molecule
-1 2
C                 -0.9084430000      3.8208760000     -0.6561560000
C                 -2.0018530000      3.0226350000     -0.1533810000
C                 -1.8514750000      1.7255380000      0.2846040000
C                  0.4520010000      3.1693380000     -0.6842630000
C                  0.5547820000      1.7975950000     -0.2001400000
C                 -0.5584770000      1.1242340000      0.2580900000
O                  1.4621130000      3.7837260000     -1.1021850000
O                 -1.0752490000      4.9991790000     -1.0493970000
C                  1.9424280000      1.1944910000     -0.2349560000
C                  2.0886740000     -0.2413200000      0.2750640000
C                  3.5308340000     -0.7576700000      0.2012330000
C                  3.6919380000     -2.1943790000      0.7096430000
C                 -3.0394660000      0.9151250000      0.7581400000
C                 -3.6025960000     -0.0473350000     -0.3056690000
C                 -4.8031150000     -0.8664610000      0.1818640000
C                 -5.3625990000     -1.8194240000     -0.8798430000
H                 -2.9767740000      3.5056670000     -0.1346580000
H                 -0.4657030000      0.1034250000      0.6207810000
H                  2.6170070000      1.8522220000      0.3294050000
H                  2.3175980000      1.2550410000     -1.2654370000
H                  1.4410470000     -0.9121390000     -0.3045800000
H                  1.7409310000     -0.3059400000      1.3144240000
H                  4.1823420000     -0.0911810000      0.7799880000
H                  3.8830060000     -0.6966470000     -0.8360210000
H                  3.3796770000     -2.2798700000      1.7561110000
H                  4.7311710000     -2.5338110000      0.6441840000
H                  3.0778270000     -2.8900190000      0.1275230000
H                 -3.8390940000      1.5956910000      1.0745450000
H                 -2.7607050000      0.3283910000      1.6450060000
H                 -2.8058760000     -0.7260730000     -0.6336610000
H                 -3.8883490000      0.5350240000     -1.1898520000
H                 -5.5964470000     -0.1831910000      0.5112820000
H                 -4.5119120000     -1.4419730000      1.0701980000
H                 -5.6928990000     -1.2693570000     -1.7671200000
H                 -6.2188020000     -2.3890300000     -0.5031110000
H                 -4.6020400000     -2.5372100000     -1.2047380000
$end

$rem
BASIS  =  6-311++G(d,p)
GUI  =  2
JOB_TYPE  =  SP
METHOD  =  B3LYP
SCF_CONVERGENCE  = 8
SOLVENT_METHOD = sm12
$end

$smx
solvent dimethylformamide
charges CM5
$end

--------------------------------------------------------------

             Standard Nuclear Orientation (Angstroms)
    I     Atom           X                Y                Z
 ----------------------------------------------------------------
    1      C      -0.9084430000     3.8208760000    -0.6561560000
    2      C      -2.0018530000     3.0226350000    -0.1533810000
    3      C      -1.8514750000     1.7255380000     0.2846040000
    4      C       0.4520010000     3.1693380000    -0.6842630000
    5      C       0.5547820000     1.7975950000    -0.2001400000
    6      C      -0.5584770000     1.1242340000     0.2580900000
    7      O       1.4621130000     3.7837260000    -1.1021850000
    8      O      -1.0752490000     4.9991790000    -1.0493970000
    9      C       1.9424280000     1.1944910000    -0.2349560000
   10      C       2.0886740000    -0.2413200000     0.2750640000
   11      C       3.5308340000    -0.7576700000     0.2012330000
   12      C       3.6919380000    -2.1943790000     0.7096430000
   13      C      -3.0394660000     0.9151250000     0.7581400000
   14      C      -3.6025960000    -0.0473350000    -0.3056690000
   15      C      -4.8031150000    -0.8664610000     0.1818640000
   16      C      -5.3625990000    -1.8194240000    -0.8798430000
   17      H      -2.9767740000     3.5056670000    -0.1346580000
   18      H      -0.4657030000     0.1034250000     0.6207810000
   19      H       2.6170070000     1.8522220000     0.3294050000
   20      H       2.3175980000     1.2550410000    -1.2654370000
   21      H       1.4410470000    -0.9121390000    -0.3045800000
   22      H       1.7409310000    -0.3059400000     1.3144240000
   23      H       4.1823420000    -0.0911810000     0.7799880000
   24      H       3.8830060000    -0.6966470000    -0.8360210000
   25      H       3.3796770000    -2.2798700000     1.7561110000
   26      H       4.7311710000    -2.5338110000     0.6441840000
   27      H       3.0778270000    -2.8900190000     0.1275230000
   28      H      -3.8390940000     1.5956910000     1.0745450000
   29      H      -2.7607050000     0.3283910000     1.6450060000
   30      H      -2.8058760000    -0.7260730000    -0.6336610000
   31      H      -3.8883490000     0.5350240000    -1.1898520000
   32      H      -5.5964470000    -0.1831910000     0.5112820000
   33      H      -4.5119120000    -1.4419730000     1.0701980000
   34      H      -5.6928990000    -1.2693570000    -1.7671200000
   35      H      -6.2188020000    -2.3890300000    -0.5031110000
   36      H      -4.6020400000    -2.5372100000    -1.2047380000
 ----------------------------------------------------------------

   17    -696.2245868870      5.89e-09  Convergence criterion met
 Total energy in the final basis set =     -696.3197008361

                    Orbital Energies (a.u.)
 --------------------------------------------------------------

 Alpha MOs
 -- Occupied --
-19.0707 -19.0672 -10.2095 -10.2082 -10.1763 -10.1745 -10.1701 -10.1698
-10.1688 -10.1685 -10.1678 -10.1675 -10.1652 -10.1613 -10.1613 -10.1522
 -1.0029  -0.9774  -0.8411  -0.8100  -0.7948  -0.7616  -0.7319  -0.7030
 -0.6836  -0.6451  -0.6253  -0.5903  -0.5850  -0.5585  -0.5483  -0.4871
 -0.4775  -0.4709  -0.4657  -0.4372  -0.4315  -0.4270  -0.4251  -0.4146
 -0.4113  -0.4007  -0.3998  -0.3865  -0.3800  -0.3726  -0.3640  -0.3613
 -0.3486  -0.3455  -0.3370  -0.3362  -0.3323  -0.3295  -0.3276  -0.3270
 -0.3039  -0.2481  -0.2233  -0.2127  -0.1594

 Beta MOs
 -- Occupied --
-19.0637 -19.0608 -10.2086 -10.2070 -10.1747 -10.1744 -10.1700 -10.1697
-10.1688 -10.1685 -10.1677 -10.1665 -10.1639 -10.1613 -10.1613 -10.1519
 -0.9914  -0.9649  -0.8369  -0.8094  -0.7937  -0.7600  -0.7302  -0.7009
 -0.6773  -0.6443  -0.6220  -0.5896  -0.5845  -0.5556  -0.5441  -0.4859
 -0.4771  -0.4683  -0.4648  -0.4353  -0.4292  -0.4243  -0.4242  -0.4134
 -0.4109  -0.3951  -0.3870  -0.3826  -0.3769  -0.3708  -0.3620  -0.3561
 -0.3475  -0.3438  -0.3367  -0.3318  -0.3311  -0.3287  -0.3258  -0.3046
 -0.2878  -0.2414  -0.2080  -0.2067

          Ground-State Mulliken Net Atomic Charges

     Atom                 Charge (a.u.)    Spin (a.u.)
  --------------------------------------------------------
      1 C                    -1.970484       0.109015
      2 C                    -1.445467       0.015426
      3 C                     0.069436       0.074827
      4 C                    -2.501908       0.045972
      5 C                    -0.238996       0.114190
      6 C                    -1.168026       0.080195
      7 O                    -0.360811       0.268444
      8 O                    -0.411069       0.237642
      9 C                    -0.740678       0.024407
     10 C                     1.570105      -0.003675
     11 C                     0.569964       0.000497
     12 C                     0.409857      -0.000010
     13 C                     2.300506       0.040553
     14 C                    -0.567910      -0.024511
     15 C                     0.516904       0.019277
     16 C                     0.003899      -0.001944
     17 H                     0.053084      -0.004035
     18 H                     0.167710      -0.009162
     19 H                     0.131443       0.005356
     20 H                     0.125156       0.005380
     21 H                     0.073116      -0.000170
     22 H                     0.079478      -0.000264
     23 H                     0.121777      -0.000356
     24 H                     0.118618      -0.000357
     25 H                     0.142567       0.000017
     26 H                     0.284695      -0.000012
     27 H                     0.142529       0.000033
     28 H                     0.270885       0.001905
     29 H                     0.269098       0.003091
     30 H                     0.089090      -0.001861
     31 H                     0.103575      -0.000282
     32 H                     0.121944      -0.000374
     33 H                     0.141549      -0.000115
     34 H                     0.134552       0.000029
     35 H                     0.254726       0.000639
     36 H                     0.139084       0.000232
  --------------------------------------------------------
  Sum of atomic charges =    -1.000000

                    Cartesian Multipole Moments
 -----------------------------------------------------------------
    Charge (ESU x 10^10)
                -4.8032
    Dipole Moment (Debye)
         X       0.0174      Y     -20.0350      Z       4.5126
       Tot      20.5369
    Quadrupole Moments (Debye-Ang)
        XX    -113.2633     XY       1.8706     YY    -197.0244
        XZ       1.0572     YZ      21.3300     ZZ    -110.4336

 Total job time:  1081.19s(wall), 8175.79s(cpu)
        *  Thank you very much for using Q-Chem.  Have a nice day.  *
