 Gaussian 16, Revision A.03,
 Gaussian 16:  ES64L-G16RevA.03 25-Dec-2016

 --------------------------------------
 #P UB3LYP/6-311++G(d,p) nosym opt freq
 --------------------------------------

 -------
 Radical
 -------
 Symbolic Z-matrix:
 Charge = -1 Multiplicity = 2

 SCF Done:  E(UB3LYP) =  -696.226576942     A.U. after   21 cycles
 SCF Done:  E(UB3LYP) =  -696.226577312     A.U. after   12 cycles
 SCF Done:  E(UB3LYP) =  -696.226578394     A.U. after   13 cycles
 SCF Done:  E(UB3LYP) =  -696.226584837     A.U. after   15 cycles
 SCF Done:  E(UB3LYP) =  -696.181381658     A.U. after   19 cycles
 SCF Done:  E(UB3LYP) =  -696.227114633     A.U. after   18 cycles
 SCF Done:  E(UB3LYP) =  -696.227000831     A.U. after   20 cycles
 SCF Done:  E(UB3LYP) =  -696.223950165     A.U. after   20 cycles
 SCF Done:  E(UB3LYP) =  -696.222841726     A.U. after   19 cycles
 SCF Done:  E(UB3LYP) =  -696.227161749     A.U. after   13 cycles
 SCF Done:  E(UB3LYP) =  -696.230195240     A.U. after   19 cycles
 SCF Done:  E(UB3LYP) =  -696.230492798     A.U. after   17 cycles
 SCF Done:  E(UB3LYP) =  -696.230524874     A.U. after   16 cycles
 SCF Done:  E(UB3LYP) =  -696.230530672     A.U. after   14 cycles
 SCF Done:  E(UB3LYP) =  -696.230531850     A.U. after   14 cycles
 SCF Done:  E(UB3LYP) =  -696.230531892     A.U. after   11 cycles
 SCF Done:  E(UB3LYP) =  -696.230531915     A.U. after   11 cycles
 SCF Done:  E(UB3LYP) =  -696.230531925     A.U. after   10 cycles
 SCF Done:  E(UB3LYP) =  -696.230531932     A.U. after   11 cycles
 Optimization completed.
    -- Stationary point found.
 Normal termination of Gaussian 16 at Fri Jan 12 21:12:34 2024.

 ----------------------------------------------------------------------
 #P Geom=AllCheck Guess=TCheck SCRF=Check GenChk UB3LYP/6-311++G(d,p) F
 req
 ----------------------------------------------------------------------

 Structure from the checkpoint file:  "319-rad.chk"
 -------
 Radical
 -------
 Charge = -1 Multiplicity = 2

                          Input orientation:
 ---------------------------------------------------------------------
 Center     Atomic      Atomic             Coordinates (Angstroms)
 Number     Number       Type             X           Y           Z
 ---------------------------------------------------------------------
      1          6           0       -0.908443    3.820876   -0.656156
      2          6           0       -2.001853    3.022635   -0.153381
      3          6           0       -1.851475    1.725538    0.284604
      4          6           0        0.452001    3.169338   -0.684263
      5          6           0        0.554782    1.797595   -0.200140
      6          6           0       -0.558477    1.124234    0.258090
      7          8           0        1.462113    3.783726   -1.102185
      8          8           0       -1.075249    4.999179   -1.049397
      9          6           0        1.942428    1.194491   -0.234956
     10          6           0        2.088674   -0.241320    0.275064
     11          6           0        3.530834   -0.757670    0.201233
     12          6           0        3.691938   -2.194379    0.709643
     13          6           0       -3.039466    0.915125    0.758140
     14          6           0       -3.602596   -0.047335   -0.305669
     15          6           0       -4.803115   -0.866461    0.181864
     16          6           0       -5.362599   -1.819424   -0.879843
     17          1           0       -2.976774    3.505667   -0.134658
     18          1           0       -0.465703    0.103425    0.620781
     19          1           0        2.617007    1.852222    0.329405
     20          1           0        2.317598    1.255041   -1.265437
     21          1           0        1.441047   -0.912139   -0.304580
     22          1           0        1.740931   -0.305940    1.314424
     23          1           0        4.182342   -0.091181    0.779988
     24          1           0        3.883006   -0.696647   -0.836021
     25          1           0        3.379677   -2.279870    1.756111
     26          1           0        4.731171   -2.533811    0.644184
     27          1           0        3.077827   -2.890019    0.127523
     28          1           0       -3.839094    1.595691    1.074545
     29          1           0       -2.760705    0.328391    1.645006
     30          1           0       -2.805876   -0.726073   -0.633661
     31          1           0       -3.888349    0.535024   -1.189852
     32          1           0       -5.596447   -0.183191    0.511282
     33          1           0       -4.511912   -1.441973    1.070198
     34          1           0       -5.692899   -1.269357   -1.767120
     35          1           0       -6.218802   -2.389030   -0.503111
     36          1           0       -4.602040   -2.537210   -1.204738
 ---------------------------------------------------------------------

 SCF Done:  E(UB3LYP) =  -696.230531932     A.U. after    1 cycles

 Alpha  occ. eigenvalues --  -18.92569 -18.92226 -10.08478 -10.08306 -10.07991
 Alpha  occ. eigenvalues --  -10.07534 -10.06761 -10.06567 -10.06527 -10.06050
 Alpha  occ. eigenvalues --  -10.06026 -10.04286 -10.04037 -10.02990 -10.02916
 Alpha  occ. eigenvalues --  -10.01361  -0.85819  -0.83165  -0.71741  -0.70536
 Alpha  occ. eigenvalues --   -0.69086  -0.65178  -0.62532  -0.58594  -0.56117
 Alpha  occ. eigenvalues --   -0.53607  -0.51299  -0.49120  -0.48094  -0.42554
 Alpha  occ. eigenvalues --   -0.41554  -0.38376  -0.37770  -0.35019  -0.34771
 Alpha  occ. eigenvalues --   -0.34328  -0.33121  -0.32058  -0.31103  -0.30853
 Alpha  occ. eigenvalues --   -0.30563  -0.28587  -0.27211  -0.26841  -0.26225
 Alpha  occ. eigenvalues --   -0.26015  -0.25328  -0.24801  -0.24482  -0.23984
 Alpha  occ. eigenvalues --   -0.23382  -0.23084  -0.22571  -0.20964  -0.20477
 Alpha  occ. eigenvalues --   -0.18877  -0.17064  -0.10229  -0.08459  -0.06741
 Alpha  occ. eigenvalues --   -0.01602
 Alpha virt. eigenvalues --    0.05976   0.06370   0.08153   0.08435   0.09180
 Alpha virt. eigenvalues --    0.09286   0.09426   0.10304   0.11303   0.11590
 Alpha virt. eigenvalues --    0.12468   0.12549   0.12688   0.13028   0.13694

  Beta  occ. eigenvalues --  -18.91894 -18.91549 -10.08478 -10.08303 -10.07991
  Beta  occ. eigenvalues --  -10.07534 -10.06741 -10.06484 -10.06459 -10.06060
  Beta  occ. eigenvalues --  -10.06027 -10.04297 -10.03884 -10.02854 -10.02785
  Beta  occ. eigenvalues --  -10.01275  -0.84688  -0.81909  -0.71573  -0.70490
  Beta  occ. eigenvalues --   -0.68820  -0.65045  -0.62401  -0.58394  -0.55615
  Beta  occ. eigenvalues --   -0.53451  -0.50962  -0.49071  -0.47913  -0.42236
  Beta  occ. eigenvalues --   -0.41124  -0.38344  -0.37760  -0.34934  -0.34724
  Beta  occ. eigenvalues --   -0.34168  -0.33060  -0.31966  -0.30998  -0.30814
  Beta  occ. eigenvalues --   -0.30344  -0.28385  -0.27002  -0.26426  -0.26188
  Beta  occ. eigenvalues --   -0.25587  -0.25013  -0.24466  -0.23763  -0.23614
  Beta  occ. eigenvalues --   -0.23296  -0.23017  -0.21959  -0.20712  -0.20294
  Beta  occ. eigenvalues --   -0.16064  -0.15223  -0.09552  -0.06723  -0.06119
  Beta virt. eigenvalues --    0.05402   0.05996   0.06369   0.08158   0.08433
  Beta virt. eigenvalues --    0.09181   0.09293   0.09431   0.10303   0.11324
  Beta virt. eigenvalues --    0.11595   0.12486   0.12555   0.12705   0.13038

 Mulliken charges and spin densities:
               1          2
     1  C   -0.547516   0.087872
     2  C   -0.177925   0.063277
     3  C    0.922713   0.049418
     4  C   -0.241770   0.039139
     5  C    1.536893   0.124064
     6  C   -1.157048   0.077037
     7  O   -0.358058   0.258816
     8  O   -0.384059   0.250501
     9  C   -0.110481   0.019366
    10  C   -0.127465  -0.004543
    11  C   -0.266841  -0.000442
    12  C   -0.621490  -0.000118
    13  C   -0.869439   0.045097
    14  C   -0.265083  -0.029536
    15  C   -0.196588   0.024840
    16  C   -0.631468  -0.003229
    17  H    0.127390  -0.006667
    18  H    0.094355  -0.009533
    19  H    0.173290   0.005766
    20  H    0.168795   0.005738
    21  H    0.096028  -0.000276
    22  H    0.094905  -0.000544
    23  H    0.124961  -0.000133
    24  H    0.122038  -0.000108
    25  H    0.129127   0.000023
    26  H    0.128940  -0.000021
    27  H    0.128745   0.000076
    28  H    0.150958   0.002839
    29  H    0.118222   0.002121
    30  H    0.093076  -0.001774
    31  H    0.129497  -0.001098
    32  H    0.112777  -0.000871
    33  H    0.114365   0.001035
    34  H    0.135040   0.000277
    35  H    0.120659   0.001229
    36  H    0.132457   0.000362
 Sum of Mulliken charges =  -1.00000   1.00000

 Dipole moment (field-independent basis, Debye):
    X=              0.4239    Y=            -17.5613    Z=              3.9362  Tot=             18.0020
 Quadrupole moment (field-independent basis, Debye-Ang):
   XX=           -121.7232   YY=           -190.8747   ZZ=           -110.4265
   XY=              0.8427   XZ=              0.7670   YZ=             19.8063

  Exact polarizability: 235.837   1.921 220.601  -8.603 -22.554 142.069
 Approx polarizability: 312.793   6.202 315.696 -21.993 -39.933 223.974

                      1                      2                      3
                      A                      A                      A
 Frequencies --     18.2721                29.5324                53.6712
 Red. masses --      3.0853                 3.2571                 3.8388
 Frc consts  --      0.0006                 0.0017                 0.0065
 IR Inten    --      0.5537                 1.3130                 1.3488

                      4                      5                      6
                      A                      A                      A
 Frequencies --     64.2818                73.8048                87.3767
 Red. masses --      1.7067                 2.1221                 3.2144
 Frc consts  --      0.0042                 0.0068                 0.0145
 IR Inten    --      0.2843                 0.2921                 0.9420

                      7                      8                      9
                      A                      A                      A
 Frequencies --    101.3679               116.1193               121.0246
 Red. masses --      3.8954                 2.2941                 2.0991
 Frc consts  --      0.0236                 0.0182                 0.0181
 IR Inten    --      0.0833                 0.1060                 0.0209

                     10                     11                     12
                      A                      A                      A
 Frequencies --    192.0601               206.6032               222.7889
 Red. masses --      3.5011                 2.9846                 2.8308
 Frc consts  --      0.0761                 0.0751                 0.0828
 IR Inten    --      0.0398                 2.0490                 2.7389

                     13                     14                     15
                      A                      A                      A
 Frequencies --    238.2628               246.6021               252.8606
 Red. masses --      1.4107                 1.2233                 2.6487
 Frc consts  --      0.0472                 0.0438                 0.0998
 IR Inten    --      1.8792                 0.3929                 2.2921

                     16                     17                     18
                      A                      A                      A
 Frequencies --    261.7156               314.2064               340.2465
 Red. masses --      3.8287                 3.4673                 4.2845
 Frc consts  --      0.1545                 0.2017                 0.2922
 IR Inten    --      1.7212                 0.2057                 0.9148

                     19                     20                     21
                      A                      A                      A
 Frequencies --    368.1318               415.9880               428.6430
 Red. masses --     10.1869                 3.1965                 3.1207
 Frc consts  --      0.8134                 0.3259                 0.3378
 IR Inten    --      0.2533                 0.7766                 2.3149

                     22                     23                     24
                      A                      A                      A
 Frequencies --    477.3394               541.4465               543.9952
 Red. masses --      6.4759                 4.8420                 4.5071
 Frc consts  --      0.8694                 0.8363                 0.7858
 IR Inten    --     17.4282                 1.9837                 3.7761

                     25                     26                     27
                      A                      A                      A
 Frequencies --    597.7410               644.6388               674.9656
 Red. masses --      3.8990                 4.0988                 4.4447
 Frc consts  --      0.8208                 1.0036                 1.1930
 IR Inten    --      2.9742                 6.2304                 2.4684

                     28                     29                     30
                      A                      A                      A
 Frequencies --    730.8039               733.6463               763.3893
 Red. masses --      1.1687                 1.0845                 1.7367
 Frc consts  --      0.3678                 0.3439                 0.5963
 IR Inten    --      2.6258                 1.5604                 0.0103

                     31                     32                     33
                      A                      A                      A
 Frequencies --    790.5734               795.2661               798.8676
 Red. masses --      3.7560                 1.3259                 1.7657
 Frc consts  --      1.3831                 0.4941                 0.6639
 IR Inten    --      1.9586                 3.5882                 5.4867

                     34                     35                     36
                      A                      A                      A
 Frequencies --    828.5863               847.2395               900.4624
 Red. masses --      1.3962                 1.7001                 1.8813
 Frc consts  --      0.5648                 0.7190                 0.8988
 IR Inten    --     16.0783                10.0045                 2.0144

                     37                     38                     39
                      A                      A                      A
 Frequencies --    901.8804               928.2284               939.8887
 Red. masses --      1.8087                 1.4231                 1.2538
 Frc consts  --      0.8668                 0.7224                 0.6526
 IR Inten    --      5.8946                 1.5682                 0.7091

                     40                     41                     42
                      A                      A                      A
 Frequencies --    956.7237               988.9596              1012.4296
 Red. masses --      3.4333                 4.3324                 3.4096
 Frc consts  --      1.8516                 2.4965                 2.0591
 IR Inten    --     11.0546                 2.2224                 3.2553

                     43                     44                     45
                      A                      A                      A
 Frequencies --   1036.0586              1052.6483              1067.3772
 Red. masses --      2.9965                 2.5145                 2.2575
 Frc consts  --      1.8951                 1.6416                 1.5153
 IR Inten    --      1.7778                 0.0797                 0.0989

                     46                     47                     48
                      A                      A                      A
 Frequencies --   1103.6284              1116.3143              1118.9582
 Red. masses --      1.3623                 2.1808                 2.3157
 Frc consts  --      0.9776                 1.6011                 1.7083
 IR Inten    --      3.2050                 3.9080                 0.8369

                     49                     50                     51
                      A                      A                      A
 Frequencies --   1119.3841              1163.7099              1205.0113
 Red. masses --      1.4415                 2.2354                 2.0175
 Frc consts  --      1.0642                 1.7836                 1.7261
 IR Inten    --      0.0276                 3.0475                12.6347

                     52                     53                     54
                      A                      A                      A
 Frequencies --   1230.4934              1236.5643              1239.3077
 Red. masses --      1.7130                 1.4109                 2.5534
 Frc consts  --      1.5281                 1.2711                 2.3106
 IR Inten    --      1.8503                 0.1273                 0.9394

                     55                     56                     57
                      A                      A                      A
 Frequencies --   1271.6906              1275.0656              1300.6940
 Red. masses --      1.3618                 1.4667                 1.1639
 Frc consts  --      1.2975                 1.4049                 1.1602
 IR Inten    --      4.5911                 1.8420                 0.6879

                     58                     59                     60
                      A                      A                      A
 Frequencies --   1303.1902              1322.5173              1324.2799
 Red. masses --      1.2776                 1.0940                 1.0708
 Frc consts  --      1.2784                 1.1274                 1.1064
 IR Inten    --      1.2905                 0.0300                 0.0206

                     61                     62                     63
                      A                      A                      A
 Frequencies --   1331.9752              1349.5558              1370.4428
 Red. masses --      1.4681                 1.4086                 1.7312
 Frc consts  --      1.5347                 1.5116                 1.9157
 IR Inten    --      5.1824                 0.9268                 0.3055

                     64                     65                     66
                      A                      A                      A
 Frequencies --   1380.9796              1391.6198              1403.7862
 Red. masses --      1.5467                 1.8838                 1.2772
 Frc consts  --      1.7379                 2.1494                 1.4829
 IR Inten    --      4.6410                12.6471                 0.5134

                     67                     68                     69
                      A                      A                      A
 Frequencies --   1405.2728              1421.1751              1470.5688
 Red. masses --      1.2388                 2.7103                 1.1175
 Frc consts  --      1.4414                 3.2253                 1.4239
 IR Inten    --      2.6679                13.6860                 6.1883

                     70                     71                     72
                      A                      A                      A
 Frequencies --   1478.3042              1486.2664              1486.9462
 Red. masses --      1.0869                 1.0702                 1.0651
 Frc consts  --      1.3995                 1.3929                 1.3875
 IR Inten    --      2.2704                 0.3845                 0.1146

                     73                     74                     75
                      A                      A                      A
 Frequencies --   1496.4110              1496.6576              1497.5971
 Red. masses --      1.0406                 1.0404                 1.0713
 Frc consts  --      1.3730                 1.3730                 1.4156
 IR Inten    --      6.5844                 6.5452                 0.2130

                     76                     77                     78
                      A                      A                      A
 Frequencies --   1498.1666              1509.7774              1510.3710
 Red. masses --      1.0721                 1.0889                 1.0959
 Frc consts  --      1.4178                 1.4624                 1.4729
 IR Inten    --      0.7587                 3.6745                13.0961

                     79                     80                     81
                      A                      A                      A
 Frequencies --   1514.5282              1538.0922              1567.0353
 Red. masses --      7.4635                10.8082                 8.1907
 Frc consts  --     10.0866                15.0650                11.8502
 IR Inten    --    360.2681               128.4399               211.4274

                     82                     83                     84
                      A                      A                      A
 Frequencies --   1606.1951              2977.4420              2987.4491
 Red. masses --      4.8257                 1.0638                 1.0574
 Frc consts  --      7.3351                 5.5564                 5.5604
 IR Inten    --     30.7406                46.7409                 3.4859

                     85                     86                     87
                      A                      A                      A
 Frequencies --   2992.4522              2992.8672              2997.6231
 Red. masses --      1.0581                 1.0590                 1.0984
 Frc consts  --      5.5827                 5.5887                 5.8153
 IR Inten    --     34.2822                16.6235                 3.6748

                     88                     89                     90
                      A                      A                      A
 Frequencies --   3003.4099              3005.7310              3006.0388
 Red. masses --      1.0600                 1.0357                 1.0527
 Frc consts  --      5.6338                 5.5131                 5.6044
 IR Inten    --     81.7124                50.3831                44.7216

                     91                     92                     93
                      A                      A                      A
 Frequencies --   3009.1111              3012.1819              3014.0063
 Red. masses --      1.0502                 1.0911                 1.1014
 Frc consts  --      5.6026                 5.8330                 5.8952
 IR Inten    --     55.2808                23.4474                 4.9477

                     94                     95                     96
                      A                      A                      A
 Frequencies --   3020.5012              3037.3693              3048.9335
 Red. masses --      1.0949                 1.1043                 1.1052
 Frc consts  --      5.8857                 6.0026                 6.0531
 IR Inten    --     16.5441                48.1138                40.0845

                     97                     98                     99
                      A                      A                      A
 Frequencies --   3063.0621              3064.7192              3067.4850
 Red. masses --      1.1005                 1.1007                 1.1024
 Frc consts  --      6.0837                 6.0912                 6.1116
 IR Inten    --     74.0080                69.0728                90.5624

                    100                    101                    102
                      A                      A                      A
 Frequencies --   3071.6159              3122.5298              3127.2436
 Red. masses --      1.1022                 1.0882                 1.0873
 Frc consts  --      6.1272                 6.2512                 6.2648
 IR Inten    --     74.7031                57.6404                22.2260

 - Thermochemistry -
 -------------------
 Temperature   298.150 Kelvin.  Pressure   1.00000 Atm.
 Atom     1 has atomic number  6 and mass  12.00000

 Molecular mass:   220.14633 amu.
 Principal axes and moments of inertia in atomic units:
                           1         2         3
     Eigenvalues --  3922.560456233.556159724.98876
           X            0.99729  -0.06085  -0.04128
           Y            0.06699   0.98334   0.16897
           Z            0.03032  -0.17127   0.98476
 This molecule is an asymmetric top.
 Rotational symmetry number  1.
 Warning -- assumption of classical behavior for rotation
           may cause significant error
 Rotational temperatures (Kelvin)      0.02208     0.01389     0.00891
 Rotational constants (GHZ):           0.46009     0.28952     0.18558
 Zero-point vibrational energy     806707.9 (Joules/Mol)
                                  192.80780 (Kcal/Mol)
 Warning -- explicit consideration of  25 degrees of freedom as
           vibrations may cause significant error
 Vibrational temperatures:     26.29    42.49    77.22    92.49   106.19
          (Kelvin)            125.72   145.85   167.07   174.13   276.33
                              297.26   320.54   342.81   354.81   363.81
                              376.55   452.07   489.54   529.66   598.51
                              616.72   686.78   779.02   782.69   860.02
                              927.49   971.12  1051.46  1055.55  1098.35
                             1137.46  1144.21  1149.39  1192.15  1218.99
                             1295.56  1297.60  1335.51  1352.29  1376.51
                             1422.89  1456.66  1490.66  1514.53  1535.72
                             1587.88  1606.13  1609.93  1610.54  1674.32
                             1733.74  1770.41  1779.14  1783.09  1829.68
                             1834.53  1871.41  1875.00  1902.81  1905.34
                             1916.42  1941.71  1971.76  1986.92  2002.23
                             2019.74  2021.87  2044.75  2115.82  2126.95
                             2138.41  2139.38  2153.00  2153.36  2154.71
                             2155.53  2172.23  2173.09  2179.07  2212.97
                             2254.61  2310.96  4283.87  4298.27  4305.47
                             4306.07  4312.91  4321.24  4324.58  4325.02
                             4329.44  4333.86  4336.48  4345.83  4370.10
                             4386.74  4407.06  4409.45  4413.43  4419.37
                             4492.62  4499.41

 Zero-point correction=                           0.307259 (Hartree/Particle)
 Thermal correction to Energy=                    0.324972
 Thermal correction to Enthalpy=                  0.325916
 Thermal correction to Gibbs Free Energy=         0.258597
 Sum of electronic and zero-point Energies=           -695.923273
 Sum of electronic and thermal Energies=              -695.905560
 Sum of electronic and thermal Enthalpies=            -695.904616
 Sum of electronic and thermal Free Energies=         -695.971935

                     E (Thermal)             CV                S
                      KCal/Mol        Cal/Mol-Kelvin    Cal/Mol-Kelvin
 Total                  203.923             64.579            141.685
 Electronic               0.000              0.000              1.377
 Translational            0.889              2.981             42.070
 Rotational               0.889              2.981             33.830
 Vibrational            202.145             58.618             64.408
 Vibration     1          0.593              1.986              6.814
 Vibration     2          0.593              1.984              5.861
 Vibration     3          0.596              1.976              4.677
 Vibration     4          0.597              1.971              4.321
 Vibration     5          0.599              1.966              4.049
 Vibration     6          0.601              1.958              3.718
 Vibration     7          0.604              1.948              3.428
 Vibration     8          0.608              1.936              3.164
 Vibration     9          0.609              1.932              3.084
 Vibration    10          0.634              1.851              2.208
 Vibration    11          0.641              1.830              2.073
 Vibration    12          0.648              1.806              1.936
 Vibration    13          0.656              1.782              1.816
 Vibration    14          0.661              1.768              1.755
 Vibration    15          0.664              1.758              1.711
 Vibration    16          0.669              1.743              1.650
 Vibration    17          0.702              1.647              1.340
 Vibration    18          0.720              1.595              1.211
 Vibration    19          0.741              1.538              1.088
 Vibration    20          0.779              1.436              0.906
 Vibration    21          0.790              1.408              0.863
 Vibration    22          0.834              1.300              0.717
 Vibration    23          0.897              1.158              0.562
 Vibration    24          0.899              1.153              0.557
 Vibration    25          0.956              1.037              0.454

 Optimization completed.
    -- Stationary point found.
 Normal termination of Gaussian 16 at Fri Jan 12 21:50:57 2024.
