 Gaussian 16, Revision A.03,
 Gaussian 16:  ES64L-G16RevA.03 25-Dec-2016

 ----------------------------------------------------------------------
 #P UB3LYP/6-311++G(d,p) nosym opt freq SCRF=(PCM,Solvent=n,n-DiMethylF
 ormamide)
 ----------------------------------------------------------------------

 --------
 Oxidized
 --------
 Symbolic Z-matrix:
 Charge =  0 Multiplicity = 1

 SCF Done:  E(UB3LYP) =  -992.927041351     A.U. after   15 cycles
 SCF Done:  E(UB3LYP) =  -992.927305839     A.U. after   12 cycles
 SCF Done:  E(UB3LYP) =  -992.927401799     A.U. after   12 cycles
 SCF Done:  E(UB3LYP) =  -992.927421931     A.U. after   10 cycles
 SCF Done:  E(UB3LYP) =  -992.927424629     A.U. after   11 cycles
 SCF Done:  E(UB3LYP) =  -992.927436104     A.U. after   10 cycles
 SCF Done:  E(UB3LYP) =  -992.927436938     A.U. after    9 cycles
 SCF Done:  E(UB3LYP) =  -992.927439200     A.U. after    9 cycles
 SCF Done:  E(UB3LYP) =  -992.927442715     A.U. after   10 cycles
 SCF Done:  E(UB3LYP) =  -992.927443912     A.U. after   10 cycles
 SCF Done:  E(UB3LYP) =  -992.927444546     A.U. after   10 cycles
 SCF Done:  E(UB3LYP) =  -992.927445260     A.U. after    9 cycles
 Optimization completed.
    -- Stationary point found.
 Normal termination of Gaussian 16 at Sat Feb 10 18:17:44 2024.

 ----------------------------------------------------------------------
 #P Geom=AllCheck Guess=TCheck SCRF=Check GenChk UB3LYP/6-311++G(d,p) F
 req
 ----------------------------------------------------------------------

 Structure from the checkpoint file:  "171.chk"
 --------
 Oxidized
 --------
 Charge =  0 Multiplicity = 1

                          Input orientation:
 ---------------------------------------------------------------------
 Center     Atomic      Atomic             Coordinates (Angstroms)
 Number     Number       Type             X           Y           Z
 ---------------------------------------------------------------------
      1          6           0       -1.381962    1.886747   -4.269276
      2          6           0       -1.352291    0.501074   -4.341797
      3          6           0       -1.077388   -0.254551   -3.195181
      4          6           0       -1.138254    2.539598   -3.052161
      5          6           0       -0.863054    1.782134   -1.902868
      6          6           0       -0.834833    0.382361   -1.986236
      7          6           0       -1.174825    4.020023   -2.996836
      8          6           0       -0.602762    2.441906   -0.602405
      9          6           0       -0.923454    4.676068   -1.722336
     10          6           0       -0.640894    3.895833   -0.537809
     11          6           0       -0.958040    6.099151   -1.647270
     12          6           0       -0.707905    6.710402   -0.380681
     13          6           0       -0.442147    5.975396    0.734282
     14          6           0       -0.397403    4.548332    0.704934
     15          8           0       -1.421233    4.653635   -4.047761
     16          8           0       -0.359852    1.726573    0.395712
     17          1           0       -1.592893    2.485234   -5.146018
     18          1           0       -1.542024    0.003927   -5.286189
     19          1           0       -1.054170   -1.336804   -3.251585
     20          1           0       -0.620993   -0.186758   -1.090888
     21          1           0       -0.259605    6.491522    1.667070
     22          1           0       -0.728671    7.788829   -0.301314
     23          7           0       -1.216483    6.882230   -2.721065
     24          6           0       -1.268234    8.333724   -2.707053
     25          1           0       -1.382314    6.375067   -3.585533
     26          1           0       -0.311137    8.775451   -2.411097
     27          1           0       -2.046627    8.709575   -2.035132
     28          1           0       -1.499796    8.670779   -3.716247
     29          7           0       -0.128130    3.867963    1.846564
     30          6           0        0.126150    4.472038    3.144826
     31          6           0        0.363394    3.376102    4.185336
     32          8           0        0.570353    3.926201    5.484869
     33          1           0       -0.112026    2.855442    1.736178
     34          1           0       -0.724451    5.083577    3.466406
     35          1           0        1.006730    5.125771    3.102652
     36          1           0        1.211642    2.749040    3.887696
     37          1           0       -0.519352    2.738231    4.263467
     38          1           0        1.432266    4.357144    5.505477
 ---------------------------------------------------------------------

 SCF Done:  E(UB3LYP) =  -992.927445260     A.U. after    1 cycles

 Alpha  occ. eigenvalues --  -19.13877 -19.11197 -19.11101 -14.34135 -14.34029
 Alpha  occ. eigenvalues --  -10.26464 -10.26390 -10.24262 -10.24139 -10.22996
 Alpha  occ. eigenvalues --  -10.21516 -10.20644 -10.19858 -10.19813 -10.19785
 Alpha  occ. eigenvalues --  -10.19762 -10.19647 -10.19580 -10.19134 -10.19083
 Alpha  occ. eigenvalues --  -10.18908 -10.18897  -1.04268  -1.04013  -1.03848
 Alpha  occ. eigenvalues --   -0.96004  -0.95335  -0.88159  -0.85836  -0.80706
 Alpha  occ. eigenvalues --   -0.78031  -0.76974  -0.76739  -0.73678  -0.69839
 Alpha  occ. eigenvalues --   -0.68420  -0.66304  -0.64900  -0.63275  -0.60981
 Alpha  occ. eigenvalues --   -0.59086  -0.55585  -0.55185  -0.53729  -0.52584
 Alpha  occ. eigenvalues --   -0.51644  -0.50088  -0.48511  -0.48450  -0.48006
 Alpha  occ. eigenvalues --   -0.47167  -0.45871  -0.45629  -0.44370  -0.44294
 Alpha  occ. eigenvalues --   -0.44101  -0.43818  -0.42863  -0.42198  -0.41563
 Alpha  occ. eigenvalues --   -0.40406  -0.40290  -0.40187  -0.39034  -0.38275
 Alpha  occ. eigenvalues --   -0.37092  -0.36305  -0.35949  -0.35147  -0.33655
 Alpha  occ. eigenvalues --   -0.29815  -0.28511  -0.27868  -0.27398  -0.27106
 Alpha  occ. eigenvalues --   -0.26445  -0.26387  -0.19603
 Alpha virt. eigenvalues --   -0.10923  -0.05874  -0.03279  -0.01051  -0.00414
 Alpha virt. eigenvalues --   -0.00363  -0.00074   0.00978   0.01240   0.01710
 Alpha virt. eigenvalues --    0.02075   0.02779   0.03466   0.03646   0.03692

  Beta  occ. eigenvalues --  -19.13877 -19.11197 -19.11101 -14.34135 -14.34029
  Beta  occ. eigenvalues --  -10.26464 -10.26390 -10.24262 -10.24139 -10.22996
  Beta  occ. eigenvalues --  -10.21516 -10.20644 -10.19858 -10.19813 -10.19785
  Beta  occ. eigenvalues --  -10.19762 -10.19647 -10.19580 -10.19134 -10.19083
  Beta  occ. eigenvalues --  -10.18908 -10.18897  -1.04268  -1.04013  -1.03848
  Beta  occ. eigenvalues --   -0.96004  -0.95335  -0.88159  -0.85836  -0.80706
  Beta  occ. eigenvalues --   -0.78031  -0.76974  -0.76739  -0.73678  -0.69839
  Beta  occ. eigenvalues --   -0.68420  -0.66304  -0.64900  -0.63275  -0.60981
  Beta  occ. eigenvalues --   -0.59086  -0.55585  -0.55185  -0.53729  -0.52584
  Beta  occ. eigenvalues --   -0.51644  -0.50088  -0.48511  -0.48450  -0.48006
  Beta  occ. eigenvalues --   -0.47167  -0.45871  -0.45629  -0.44370  -0.44294
  Beta  occ. eigenvalues --   -0.44101  -0.43818  -0.42863  -0.42198  -0.41563
  Beta  occ. eigenvalues --   -0.40406  -0.40290  -0.40187  -0.39034  -0.38275
  Beta  occ. eigenvalues --   -0.37092  -0.36305  -0.35949  -0.35147  -0.33655
  Beta  occ. eigenvalues --   -0.29815  -0.28511  -0.27868  -0.27398  -0.27106
  Beta  occ. eigenvalues --   -0.26445  -0.26387  -0.19603
  Beta virt. eigenvalues --   -0.10923  -0.05874  -0.03279  -0.01051  -0.00414
  Beta virt. eigenvalues --   -0.00363  -0.00074   0.00978   0.01240   0.01710
  Beta virt. eigenvalues --    0.02075   0.02779   0.03466   0.03646   0.03692

 Mulliken charges and spin densities:
               1          2
     1  C    0.066992   0.000000
     2  C   -0.540202  -0.000000
     3  C   -0.500398   0.000000
     4  C    0.223039   0.000000
     5  C    0.230720   0.000000
     6  C    0.016587   0.000000
     7  C   -0.218559  -0.000000
     8  C   -0.181017   0.000000
     9  C    0.240490  -0.000000
    10  C    0.210780  -0.000000
    11  C   -0.177150  -0.000000
    12  C   -0.054216   0.000000
    13  C   -0.049222   0.000000
    14  C   -0.577437  -0.000000
    15  O   -0.352908   0.000000
    16  O   -0.335090  -0.000000
    17  H    0.182187   0.000000
    18  H    0.198300   0.000000
    19  H    0.198565   0.000000
    20  H    0.172794  -0.000000
    21  H    0.227241  -0.000000
    22  H    0.231707   0.000000
    23  N   -0.283669   0.000000
    24  C   -0.361834   0.000000
    25  H    0.405685  -0.000000
    26  H    0.170428   0.000000
    27  H    0.170306   0.000000
    28  H    0.171403   0.000000
    29  N   -0.123088   0.000000
    30  C   -0.172293   0.000000
    31  C   -0.348737   0.000000
    32  O   -0.319649   0.000000
    33  H    0.476884  -0.000000
    34  H    0.178579   0.000000
    35  H    0.174543   0.000000
    36  H    0.172395  -0.000000
    37  H    0.196644  -0.000000
    38  H    0.279201  -0.000000
 Sum of Mulliken charges =  -0.00000  -0.00000

 Dipole moment (field-independent basis, Debye):
    X=              1.7937    Y=              4.9775    Z=              1.2661  Tot=              5.4402
 Quadrupole moment (field-independent basis, Debye-Ang):
   XX=           -129.7578   YY=            -62.5972   ZZ=           -139.5090
   XY=              5.9492   XZ=              7.6123   YZ=             12.3424

  Exact polarizability: 181.470   4.005 516.504  58.375  72.912 448.282
 Approx polarizability: 211.006   1.996 586.357  66.208  68.976 512.797

                      1                      2                      3
                      A                      A                      A
 Frequencies --     30.7652                39.9355                61.6702
 Red. masses --      6.2239                 4.1789                 3.1182
 Frc consts  --      0.0035                 0.0039                 0.0070
 IR Inten    --      1.2606                12.4372                 2.2502

                      4                      5                      6
                      A                      A                      A
 Frequencies --     69.8455                73.2491                96.9365
 Red. masses --      2.9911                 3.9945                 4.0036
 Frc consts  --      0.0086                 0.0126                 0.0222
 IR Inten    --      5.0087                 0.3558                 4.8290

                      7                      8                      9
                      A                      A                      A
 Frequencies --    121.6484               135.0487               158.9035
 Red. masses --      3.5151                 3.2665                 3.6143
 Frc consts  --      0.0306                 0.0351                 0.0538
 IR Inten    --      2.4590                 1.5757                 6.9839

                     10                     11                     12
                      A                      A                      A
 Frequencies --    175.2003               182.1672               194.6387
 Red. masses --      3.7623                 4.7929                 1.4153
 Frc consts  --      0.0680                 0.0937                 0.0316
 IR Inten    --      0.1796                 3.4393                 0.0853

                     13                     14                     15
                      A                      A                      A
 Frequencies --    232.1697               248.0268               262.0074
 Red. masses --      3.8417                 5.6657                 5.9435
 Frc consts  --      0.1220                 0.2054                 0.2404
 IR Inten    --      1.2099                10.4463                 6.2603

                     16                     17                     18
                      A                      A                      A
 Frequencies --    304.7554               319.2200               329.1656
 Red. masses --      1.2208                 3.8113                 4.6704
 Frc consts  --      0.0668                 0.2288                 0.2981
 IR Inten    --    168.2962                23.7876                 7.8973

                     19                     20                     21
                      A                      A                      A
 Frequencies --    351.1489               379.7433               397.7991
 Red. masses --      4.6494                 6.6623                 9.4564
 Frc consts  --      0.3378                 0.5661                 0.8817
 IR Inten    --      0.3654                19.3625                 2.5741

                     22                     23                     24
                      A                      A                      A
 Frequencies --    430.8406               435.5971               441.6332
 Red. masses --      3.3208                 6.2229                12.7355
 Frc consts  --      0.3632                 0.6957                 1.4635
 IR Inten    --      3.7453                 0.0204                50.7786

                     25                     26                     27
                      A                      A                      A
 Frequencies --    472.1586               482.8317               502.7182
 Red. masses --      9.0504                 6.8464                 4.7758
 Frc consts  --      1.1888                 0.9404                 0.7111
 IR Inten    --     55.9960                15.4006                 0.0058

                     28                     29                     30
                      A                      A                      A
 Frequencies --    537.4488               571.5433               595.6708
 Red. masses --      5.2232                 1.9705                 5.5597
 Frc consts  --      0.8889                 0.3792                 1.1623
 IR Inten    --     21.9259               112.0221                 8.3982

                     31                     32                     33
                      A                      A                      A
 Frequencies --    625.2077               640.1923               640.3953
 Red. masses --      1.1573                 3.4535                 1.4837
 Frc consts  --      0.2665                 0.8339                 0.3585
 IR Inten    --     14.3828                21.0829                93.9093

                     34                     35                     36
                      A                      A                      A
 Frequencies --    674.0018               674.2122               728.8752
 Red. masses --      4.2848                 6.1126                 6.2231
 Frc consts  --      1.1468                 1.6371                 1.9479
 IR Inten    --      0.6866                27.2007                 3.3609

                     37                     38                     39
                      A                      A                      A
 Frequencies --    738.4365               739.9174               773.8892
 Red. masses --      2.9033                 2.9629                 5.8678
 Frc consts  --      0.9327                 0.9557                 2.0705
 IR Inten    --     68.3424                66.0854                 3.7019

                     40                     41                     42
                      A                      A                      A
 Frequencies --    800.6683               813.1398               817.1858
 Red. masses --      5.9124                 1.9146                 1.2673
 Frc consts  --      2.2332                 0.7459                 0.4986
 IR Inten    --      0.0057                30.2493                 4.9465

                     43                     44                     45
                      A                      A                      A
 Frequencies --    839.2974               862.0269               900.9811
 Red. masses --      1.6681                 6.8644                 7.7416
 Frc consts  --      0.6923                 3.0053                 3.7026
 IR Inten    --     41.9679                 3.6418                18.4936

                     46                     47                     48
                      A                      A                      A
 Frequencies --    907.5674               951.4029               979.5883
 Red. masses --      1.4179                 5.1472                 1.3073
 Frc consts  --      0.6881                 2.7450                 0.7391
 IR Inten    --      0.0064                11.7818                 0.1395

                     49                     50                     51
                      A                      A                      A
 Frequencies --    998.7484              1017.8480              1025.7172
 Red. masses --      1.3804                 1.3161                 5.3379
 Frc consts  --      0.8113                 0.8034                 3.3088
 IR Inten    --      2.2867                 0.0009               498.0774

                     52                     53                     54
                      A                      A                      A
 Frequencies --   1041.2878              1058.4404              1063.9719
 Red. masses --      3.0748                 2.0517                 3.5969
 Frc consts  --      1.9643                 1.3543                 2.3991
 IR Inten    --     33.4760                 6.9658               132.7491

                     55                     56                     57
                      A                      A                      A
 Frequencies --   1093.8587              1105.2953              1114.2049
 Red. masses --      1.5924                 2.1122                 2.2809
 Frc consts  --      1.1226                 1.5204                 1.6684
 IR Inten    --     12.5585                23.7428                 9.4570

                     58                     59                     60
                      A                      A                      A
 Frequencies --   1139.5489              1140.7770              1167.2524
 Red. masses --      1.2794                 3.8023                 1.5304
 Frc consts  --      0.9789                 2.9154                 1.2285
 IR Inten    --      0.3120                19.7467                46.0020

                     61                     62                     63
                      A                      A                      A
 Frequencies --   1179.3982              1187.8308              1203.0331
 Red. masses --      1.6044                 2.1328                 1.5052
 Frc consts  --      1.3148                 1.7730                 1.2835
 IR Inten    --     35.9227               134.8380               577.2487

                     64                     65                     66
                      A                      A                      A
 Frequencies --   1204.1749              1254.8289              1266.1712
 Red. masses --      1.1807                 1.8390                 4.6675
 Frc consts  --      1.0087                 1.7061                 4.4088
 IR Inten    --     26.9240                14.5296              1431.2073

                     67                     68                     69
                      A                      A                      A
 Frequencies --   1286.3062              1310.6691              1321.2940
 Red. masses --      1.7370                 1.5794                 1.4054
 Frc consts  --      1.6933                 1.5986                 1.4456
 IR Inten    --    488.6006                11.4977                 5.3940

                     70                     71                     72
                      A                      A                      A
 Frequencies --   1329.7480              1353.8368              1356.1870
 Red. masses --      2.3826                 5.1715                 1.8996
 Frc consts  --      2.4822                 5.5847                 2.0585
 IR Inten    --    192.4468                 1.1271                56.1672

                     73                     74                     75
                      A                      A                      A
 Frequencies --   1378.6248              1396.6866              1414.3798
 Red. masses --      2.7676                 1.3483                 2.3355
 Frc consts  --      3.0991                 1.5496                 2.7528
 IR Inten    --    178.0954                25.5969               118.3024

                     76                     77                     78
                      A                      A                      A
 Frequencies --   1421.4677              1432.7110              1464.8272
 Red. masses --      4.7591                 1.4649                 1.3052
 Frc consts  --      5.6656                 1.7716                 1.6500
 IR Inten    --     69.0729                23.9038                84.9607

                     79                     80                     81
                      A                      A                      A
 Frequencies --   1482.6910              1483.1292              1501.1760
 Red. masses --      2.4857                 1.0472                 2.1814
 Frc consts  --      3.2196                 1.3571                 2.8963
 IR Inten    --     36.6499                13.8242                 5.6716

                     82                     83                     84
                      A                      A                      A
 Frequencies --   1501.4412              1502.1630              1518.0868
 Red. masses --      1.1114                 1.3044                 1.1028
 Frc consts  --      1.4762                 1.7342                 1.4974
 IR Inten    --     39.9481                44.0703                78.8210

                     85                     86                     87
                      A                      A                      A
 Frequencies --   1528.7636              1548.9322              1584.1334
 Red. masses --      3.1838                 3.3875                 2.7106
 Frc consts  --      4.3841                 4.7884                 4.0077
 IR Inten    --     11.0454               373.2416               466.4630

                     88                     89                     90
                      A                      A                      A
 Frequencies --   1589.8367              1592.8662              1619.8922
 Red. masses --      6.8166                 2.2562                 4.5865
 Frc consts  --     10.1514                 3.3728                 7.0910
 IR Inten    --   1256.9484               160.8033               377.9978

                     91                     92                     93
                      A                      A                      A
 Frequencies --   1639.8147              1675.2803              2994.7941
 Red. masses --      6.5828                 6.7884                 1.0598
 Frc consts  --     10.4291                11.2251                 5.6005
 IR Inten    --     96.1719               140.2896               148.9224

                     94                     95                     96
                      A                      A                      A
 Frequencies --   3010.4066              3017.4652              3034.3404
 Red. masses --      1.0379                 1.0708                 1.0956
 Frc consts  --      5.5420                 5.7444                 5.9435
 IR Inten    --    189.8255                35.8586                68.1452

                     97                     98                     99
                      A                      A                      A
 Frequencies --   3057.2513              3090.7416              3130.8890
 Red. masses --      1.1046                 1.1012                 1.0975
 Frc consts  --      6.0827                 6.1978                 6.3386
 IR Inten    --     44.7196                49.8149                22.5826

                    100                    101                    102
                      A                      A                      A
 Frequencies --   3172.8556              3186.3549              3201.8041
 Red. masses --      1.0873                 1.0922                 1.0869
 Frc consts  --      6.4488                 6.5332                 6.5650
 IR Inten    --      4.9341                24.5618                 4.5208

                    103                    104                    105
                      A                      A                      A
 Frequencies --   3203.9927              3206.8459              3216.4147
 Red. masses --      1.0922                 1.0938                 1.0947
 Frc consts  --      6.6061                 6.6275                 6.6723
 IR Inten    --      6.5547                24.5880                12.6256

                    106                    107                    108
                      A                      A                      A
 Frequencies --   3416.1115              3459.6291              3819.1988
 Red. masses --      1.0792                 1.0794                 1.0667
 Frc consts  --      7.4205                 7.6116                 9.1669
 IR Inten    --     62.0243                81.1022                71.3975

 - Thermochemistry -
 -------------------
 Temperature   298.150 Kelvin.  Pressure   1.00000 Atm.
 Atom     1 has atomic number  6 and mass  12.00000

 Molecular mass:   296.11609 amu.
 Principal axes and moments of inertia in atomic units:
                           1         2         3
     Eigenvalues --  5107.393798765.43169**********
           X            0.19552  -0.07951   0.97747
           Y            0.23008   0.97261   0.03309
           Z            0.95333  -0.21843  -0.20846
 This molecule is an asymmetric top.
 Rotational symmetry number  1.
 Warning -- assumption of classical behavior for rotation
           may cause significant error
 Rotational temperatures (Kelvin)      0.01696     0.00988     0.00626
 Rotational constants (GHZ):           0.35336     0.20589     0.13046
 Zero-point vibrational energy     792274.2 (Joules/Mol)
                                  189.35808 (Kcal/Mol)
 Warning -- explicit consideration of  30 degrees of freedom as
           vibrations may cause significant error
 Vibrational temperatures:     44.26    57.46    88.73   100.49   105.39
          (Kelvin)            139.47   175.02   194.30   228.63   252.07
                              262.10   280.04   334.04   356.86   376.97
                              438.48   459.29   473.60   505.22   546.37
                              572.34   619.88   626.73   635.41   679.33
                              694.69   723.30   773.27   822.32   857.04
                              899.53   921.09   921.39   969.74   970.04
                             1048.69  1062.45  1064.58  1113.45  1151.98
                             1169.93  1175.75  1207.56  1240.26  1296.31
                             1305.79  1368.86  1409.41  1436.98  1464.46
                             1475.78  1498.18  1522.86  1530.82  1573.82
                             1590.27  1603.09  1639.56  1641.32  1679.42
                             1696.89  1709.02  1730.90  1732.54  1805.42
                             1821.74  1850.71  1885.76  1901.05  1913.21
                             1947.87  1951.25  1983.53  2009.52  2034.98
                             2045.18  2061.35  2107.56  2133.26  2133.89
                             2159.86  2160.24  2161.28  2184.19  2199.55
                             2228.57  2279.21  2287.42  2291.78  2330.66
                             2359.33  2410.35  4308.84  4331.30  4341.46
                             4365.74  4398.70  4446.89  4504.65  4565.03
                             4584.45  4606.68  4609.83  4613.94  4627.70
                             4915.02  4977.63  5494.98

 Zero-point correction=                           0.301761 (Hartree/Particle)
 Thermal correction to Energy=                    0.321132
 Thermal correction to Enthalpy=                  0.322076
 Thermal correction to Gibbs Free Energy=         0.253382
 Sum of electronic and zero-point Energies=           -992.625684
 Sum of electronic and thermal Energies=              -992.606314
 Sum of electronic and thermal Enthalpies=            -992.605369
 Sum of electronic and thermal Free Energies=         -992.674064

                     E (Thermal)             CV                S
                      KCal/Mol        Cal/Mol-Kelvin    Cal/Mol-Kelvin
 Total                  201.513             74.768            144.579
 Electronic               0.000              0.000              0.000
 Translational            0.889              2.981             42.954
 Rotational               0.889              2.981             34.781
 Vibrational            199.736             68.806             66.844
 Vibration     1          0.594              1.984              5.779
 Vibration     2          0.594              1.981              5.262
 Vibration     3          0.597              1.973              4.403
 Vibration     4          0.598              1.968              4.158
 Vibration     5          0.599              1.967              4.064
 Vibration     6          0.603              1.951              3.515
 Vibration     7          0.609              1.931              3.074
 Vibration     8          0.613              1.918              2.873
 Vibration     9          0.621              1.893              2.563
 Vibration    10          0.627              1.873              2.379
 Vibration    11          0.630              1.864              2.306
 Vibration    12          0.635              1.847              2.183
 Vibration    13          0.653              1.792              1.862
 Vibration    14          0.662              1.766              1.745
 Vibration    15          0.669              1.742              1.648
 Vibration    16          0.696              1.665              1.391
 Vibration    17          0.705              1.637              1.314
 Vibration    18          0.712              1.617              1.264
 Vibration    19          0.728              1.573              1.161
 Vibration    20          0.750              1.513              1.040
 Vibration    21          0.764              1.475              0.971
 Vibration    22          0.792              1.403              0.856
 Vibration    23          0.796              1.393              0.841
 Vibration    24          0.801              1.379              0.821
 Vibration    25          0.829              1.312              0.732
 Vibration    26          0.839              1.288              0.702
 Vibration    27          0.858              1.244              0.651
 Vibration    28          0.892              1.167              0.571
 Vibration    29          0.928              1.093              0.501
 Vibration    30          0.953              1.041              0.457

                           ! Non-Optimized Parameters !
 Normal termination of Gaussian 16 at Sat Feb 10 21:39:00 2024.
