 Q-Chem 5.4, Q-Chem, Inc., Pleasanton, CA (2021)
 Q-Chem 5.4.0 for Intel X86 EM64T Linux

User input:
--------------------------------------------------------------
$molecule
-2 1
C                 -0.0511530000      3.8828000000      0.1922980000
C                 -0.5180940000      3.4691480000      1.4243550000
C                 -0.1215370000      2.2119470000      1.9472410000
C                  0.8267040000      3.0776640000     -0.5793270000
C                  1.2331600000      1.7971870000     -0.0463070000
C                  0.7372500000      1.4085060000      1.2122150000
C                  1.3002570000      3.5163410000     -1.8566290000
C                  2.1770350000      2.6168020000     -2.5366420000
C                  2.5897360000      1.3737130000     -2.0625580000
C                  2.1388080000      0.9041240000     -0.7784390000
O                  1.0042510000      4.6404160000     -2.4426960000
O                  2.4956010000     -0.2262490000     -0.3027440000
H                 -0.3421490000      4.8408920000     -0.2270950000
H                 -1.1903300000      4.1076830000      1.9947200000
H                 -0.4871350000      1.8829400000      2.9174210000
H                  1.0616370000      0.4417960000      1.5850000000
O                  2.5906440000      3.0971650000     -3.7594490000
C                  3.5007460000      0.4924010000     -2.8794140000
C                  5.0029330000      0.6748220000     -2.5730970000
C                  5.9039390000     -0.2521730000     -3.3994320000
C                  7.4064040000     -0.0873930000     -3.1293930000
C                  8.2949980000     -1.0167560000     -3.9672220000
C                  9.7957470000     -0.8546230000     -3.7024780000
H                  2.1130310000      3.9635860000     -3.7673520000
H                  3.3369710000      0.6830070000     -3.9470260000
H                  3.2366990000     -0.5502880000     -2.6678630000
H                  5.1604810000      0.4887240000     -1.5050190000
H                  5.2806310000      1.7189730000     -2.7622570000
H                  5.7138000000     -0.0796940000     -4.4686360000
H                  5.6177300000     -1.2952630000     -3.2057660000
H                  7.6034960000     -0.2647230000     -2.0638990000
H                  7.6960070000      0.9546350000     -3.3199570000
H                  8.0949410000     -0.8405360000     -5.0323590000
H                  8.0044730000     -2.0582080000     -3.7766770000
H                 10.1323120000      0.1650360000     -3.9230610000
H                 10.3998350000     -1.5328480000     -4.3156910000
H                 10.0417430000     -1.0616030000     -2.6545640000
$end

$rem
BASIS  =  6-311++G(d,p)
GUI  =  2
JOB_TYPE  =  SP
METHOD  =  B3LYP
SCF_CONVERGENCE  = 8
SOLVENT_METHOD = sm12
$end

$smx
solvent dimethylformamide
charges CM5
$end

--------------------------------------------------------------

             Standard Nuclear Orientation (Angstroms)
    I     Atom           X                Y                Z
 ----------------------------------------------------------------
    1      C      -0.0511530000     3.8828000000     0.1922980000
    2      C      -0.5180940000     3.4691480000     1.4243550000
    3      C      -0.1215370000     2.2119470000     1.9472410000
    4      C       0.8267040000     3.0776640000    -0.5793270000
    5      C       1.2331600000     1.7971870000    -0.0463070000
    6      C       0.7372500000     1.4085060000     1.2122150000
    7      C       1.3002570000     3.5163410000    -1.8566290000
    8      C       2.1770350000     2.6168020000    -2.5366420000
    9      C       2.5897360000     1.3737130000    -2.0625580000
   10      C       2.1388080000     0.9041240000    -0.7784390000
   11      O       1.0042510000     4.6404160000    -2.4426960000
   12      O       2.4956010000    -0.2262490000    -0.3027440000
   13      H      -0.3421490000     4.8408920000    -0.2270950000
   14      H      -1.1903300000     4.1076830000     1.9947200000
   15      H      -0.4871350000     1.8829400000     2.9174210000
   16      H       1.0616370000     0.4417960000     1.5850000000
   17      O       2.5906440000     3.0971650000    -3.7594490000
   18      C       3.5007460000     0.4924010000    -2.8794140000
   19      C       5.0029330000     0.6748220000    -2.5730970000
   20      C       5.9039390000    -0.2521730000    -3.3994320000
   21      C       7.4064040000    -0.0873930000    -3.1293930000
   22      C       8.2949980000    -1.0167560000    -3.9672220000
   23      C       9.7957470000    -0.8546230000    -3.7024780000
   24      H       2.1130310000     3.9635860000    -3.7673520000
   25      H       3.3369710000     0.6830070000    -3.9470260000
   26      H       3.2366990000    -0.5502880000    -2.6678630000
   27      H       5.1604810000     0.4887240000    -1.5050190000
   28      H       5.2806310000     1.7189730000    -2.7622570000
   29      H       5.7138000000    -0.0796940000    -4.4686360000
   30      H       5.6177300000    -1.2952630000    -3.2057660000
   31      H       7.6034960000    -0.2647230000    -2.0638990000
   32      H       7.6960070000     0.9546350000    -3.3199570000
   33      H       8.0949410000    -0.8405360000    -5.0323590000
   34      H       8.0044730000    -2.0582080000    -3.7766770000
   35      H      10.1323120000     0.1650360000    -3.9230610000
   36      H      10.3998350000    -1.5328480000    -4.3156910000
   37      H      10.0417430000    -1.0616030000    -2.6545640000
 ----------------------------------------------------------------

   17    -846.4400083288      9.68e-09  Convergence criterion met
 Total energy in the final basis set =     -846.7253619177

                    Orbital Energies (a.u.)
 --------------------------------------------------------------

 Alpha MOs
 -- Occupied --
-19.1188 -19.0295 -19.0237 -10.1877 -10.1836 -10.1715 -10.1708 -10.1679
-10.1663 -10.1663 -10.1658 -10.1658 -10.1657 -10.1617 -10.1604 -10.1581
-10.1486 -10.1457 -10.1355  -1.0317  -0.9449  -0.9336  -0.8402  -0.8110
 -0.7868  -0.7638  -0.7393  -0.7309  -0.6948  -0.6535  -0.6336  -0.6018
 -0.5908  -0.5792  -0.5694  -0.5483  -0.5170  -0.4852  -0.4821  -0.4596
 -0.4495  -0.4412  -0.4351  -0.4296  -0.4211  -0.4171  -0.3999  -0.3973
 -0.3850  -0.3784  -0.3715  -0.3679  -0.3604  -0.3585  -0.3490  -0.3463
 -0.3356  -0.3303  -0.3281  -0.3253  -0.3233  -0.3153  -0.3057  -0.3033
 -0.2459  -0.2334  -0.2156  -0.2018  -0.1991  -0.1145

          Ground-State Mulliken Net Atomic Charges

     Atom                 Charge (a.u.)
  ----------------------------------------
      1 C                    -0.211680
      2 C                     1.114018
      3 C                     1.079180
      4 C                    -1.975489
      5 C                    -1.859590
      6 C                    -0.450855
      7 C                    -1.950868
      8 C                    -0.136639
      9 C                     1.338266
     10 C                    -2.572518
     11 O                    -0.421114
     12 O                    -0.274524
     13 H                     0.106258
     14 H                     0.381622
     15 H                     0.356058
     16 H                     0.069027
     17 O                    -0.052175
     18 C                    -0.247745
     19 C                    -2.218108
     20 C                     0.531597
     21 C                     1.600023
     22 C                     1.160526
     23 C                     0.556793
     24 H                     0.314120
     25 H                     0.175744
     26 H                     0.071941
     27 H                     0.039179
     28 H                     0.019554
     29 H                     0.223532
     30 H                     0.215351
     31 H                     0.111837
     32 H                     0.129625
     33 H                     0.093949
     34 H                     0.092591
     35 H                     0.132208
     36 H                     0.324087
     37 H                     0.134220
  ----------------------------------------
  Sum of atomic charges =    -2.000000

                    Cartesian Multipole Moments
 -----------------------------------------------------------------
    Charge (ESU x 10^10)
                -9.6064
    Dipole Moment (Debye)
         X     -15.1911      Y     -21.4830      Z      10.2069
       Tot      28.2218
    Quadrupole Moments (Debye-Ang)
        XX    -170.5602     XY     -18.8283     YY    -214.9685
        XZ      25.5578     YZ      33.4577     ZZ    -165.9707

 Total job time:  1257.36s(wall), 9412.21s(cpu)
        *  Thank you very much for using Q-Chem.  Have a nice day.  *
