 Q-Chem 5.4, Q-Chem, Inc., Pleasanton, CA (2021)
 Q-Chem 5.4.0 for Intel X86 EM64T Linux

User input:
--------------------------------------------------------------
$molecule
-1 2
C                 -4.0695480000      3.5961490000      1.5374880000
C                 -4.5554290000      3.8204700000      0.2667510000
C                 -3.9605740000      3.1717900000     -0.8267210000
C                 -2.8876740000      2.3059830000     -0.6447760000
C                 -2.3588830000      2.0496770000      0.6510290000
C                 -2.9837840000      2.7237740000      1.7482520000
C                 -2.5166540000      2.5312250000      3.1338230000
C                 -1.4105600000      1.6357420000      3.3018050000
C                 -0.7935120000      0.9767720000      2.2640120000
C                 -1.2207940000      1.1369880000      0.8826410000
O                 -3.0647040000      3.1232540000      4.1052470000
O                 -0.6293420000      0.5159860000     -0.0364020000
H                 -4.4972840000      4.0747060000      2.4099360000
H                 -4.3359650000      3.3413030000     -1.8346070000
O                 -2.3355310000      1.6919930000     -1.7426570000
C                  0.3663670000      0.0474660000      2.5052400000
H                 -5.3923940000      4.4926940000      0.1025550000
H                 -1.0654030000      1.4930130000      4.3234050000
H                 -2.8300000000      1.9937310000     -2.5123160000
H                  0.6098640000     -0.0053610000      3.5702850000
H                  1.2536300000      0.3751880000      1.9526550000
H                  0.1441150000     -0.9610710000      2.1399780000
$end
$rem
MAX_SCF_CYCLES=200
BASIS  =  6-311++G(d,p)
GUI  =  2
JOB_TYPE  =  SP
METHOD  =  B3LYP
SOLVENT_METHOD = COSMO
$end
$solvent
dielectric 37.219
opticaldielectric 1.43
$end

--------------------------------------------------------------

             Standard Nuclear Orientation (Angstroms)
    I     Atom           X                Y                Z
 ----------------------------------------------------------------
    1      C       1.6938652267    -1.6875280059    -0.0001631762
    2      C       2.8729503796    -0.9727336425    -0.0001838399
    3      C       2.8322851229     0.4303577841    -0.0000660717
    4      C       1.6182299427     1.1085245475     0.0000543591
    5      C       0.3812285058     0.4054948718    -0.0000205417
    6      C       0.4511719810    -1.0241604166    -0.0000819668
    7      C      -0.7691987043    -1.8522835595    -0.0000504867
    8      C      -2.0104970172    -1.1362317855     0.0001683416
    9      C      -2.1036327338     0.2361128264     0.0000656297
   10      C      -0.9269129676     1.0915398995    -0.0001024305
   11      O      -0.7129076087    -3.1137719472     0.0002448907
   12      O      -1.0562976370     2.3418832891    -0.0001611892
   13      H       1.6774487248    -2.7705196479    -0.0002127381
   14      H       3.7570236673     1.0051150101     0.0000027461
   15      O       1.6243130094     2.4822607802     0.0003032157
   16      C      -3.4395056896     0.9307805873    -0.0001142611
   17      H       3.8317973088    -1.4826046131    -0.0002422642
   18      H      -2.9111278893    -1.7461789106     0.0003053098
   19      H       2.5467873486     2.7596799235     0.0006213632
   20      H      -4.2575621439     0.2047051554     0.0005472386
   21      H      -3.5427498908     1.5831591853    -0.8740309176
   22      H      -3.5423835122     1.5844282798     0.8728805890
 ----------------------------------------------------------------

   10    -649.8947945857      9.60e-06  Convergence criterion met
 Total energy in the final basis set =     -649.8947945857
    5    -649.9902597553      6.11e-06  Convergence criterion met
 Total energy in the final basis set =     -649.9902597553

                    Orbital Energies (a.u.)
 --------------------------------------------------------------

 Alpha MOs
 -- Occupied --
-19.1508 -19.0763 -19.0746 -10.2394 -10.2235 -10.2207 -10.1780 -10.1750
-10.1738 -10.1709 -10.1701 -10.1624 -10.1559 -10.1539  -1.0629  -1.0019
 -0.9992  -0.8553  -0.8095  -0.7557  -0.7437  -0.6999  -0.6588  -0.6277
 -0.5956  -0.5707  -0.5225  -0.5092  -0.4769  -0.4694  -0.4492  -0.4360
 -0.4326  -0.4163  -0.4079  -0.3941  -0.3896  -0.3892  -0.3759  -0.3667
 -0.3652  -0.3526  -0.3475  -0.3335  -0.2738  -0.2487  -0.2450  -0.2345
 -0.2341  -0.1505

 Beta MOs
 -- Occupied --
-19.1507 -19.0704 -19.0685 -10.2394 -10.2219 -10.2189 -10.1778 -10.1743
-10.1733 -10.1695 -10.1690 -10.1622 -10.1551 -10.1540  -1.0626  -0.9913
 -0.9886  -0.8531  -0.8046  -0.7538  -0.7415  -0.6962  -0.6525  -0.6257
 -0.5929  -0.5685  -0.5198  -0.5071  -0.4746  -0.4677  -0.4481  -0.4335
 -0.4242  -0.4109  -0.4052  -0.3916  -0.3885  -0.3747  -0.3744  -0.3651
 -0.3509  -0.3457  -0.3444  -0.3261  -0.2495  -0.2414  -0.2395  -0.2285
 -0.2273

          Ground-State Mulliken Net Atomic Charges

     Atom                 Charge (a.u.)    Spin (a.u.)
  --------------------------------------------------------
      1 C                    -0.071091       0.037856
      2 C                    -0.393405       0.034729
      3 C                    -0.211610       0.042407
      4 C                     0.118536       0.028235
      5 C                    -0.184527      -0.009264
      6 C                     0.733434       0.056771
      7 C                    -0.814457       0.095794
      8 C                    -0.378004       0.053291
      9 C                     0.608813       0.125970
     10 C                    -0.317770       0.098418
     11 O                    -0.536673       0.207849
     12 O                    -0.492031       0.227658
     13 H                     0.167251      -0.002997
     14 H                     0.181216      -0.004102
     15 O                    -0.258980       0.001719
     16 C                    -0.350413       0.001826
     17 H                     0.213247      -0.002297
     18 H                     0.162648      -0.006954
     19 H                     0.311951      -0.000447
     20 H                     0.164054      -0.000018
     21 H                     0.173909       0.006787
     22 H                     0.173902       0.006768
  --------------------------------------------------------
  Sum of atomic charges =    -1.000000

                    Cartesian Multipole Moments
 -----------------------------------------------------------------
    Charge (ESU x 10^10)
                -4.8032
    Dipole Moment (Debye)
         X       5.6574      Y       2.5660      Z      -0.0014
       Tot       6.2122
    Quadrupole Moments (Debye-Ang)
        XX     -72.9060     XY       4.8755     YY    -125.7928
        XZ       0.0008     YZ       0.0055     ZZ     -87.0181

 Total job time:  52.12s(wall), 385.27s(cpu)
        *  Thank you very much for using Q-Chem.  Have a nice day.  *
