 Q-Chem 5.4, Q-Chem, Inc., Pleasanton, CA (2021)
 Q-Chem 5.4.0 for Intel X86 EM64T Linux

User input:
--------------------------------------------------------------
$molecule
0 1
C                 -4.0780180000      3.6028670000      1.5359660000
C                 -4.5614710000      3.8228500000      0.2495100000
C                 -3.9749370000      3.1828330000     -0.8321990000
C                 -2.8933290000      2.3094360000     -0.6540420000
C                 -2.3876870000      2.0727190000      0.6439070000
C                 -3.0048840000      2.7384120000      1.7272160000
C                 -2.5138020000      2.5279110000      3.1266400000
C                 -1.3801780000      1.6136130000      3.3232200000
C                 -0.7753140000      0.9682850000      2.3110060000
C                 -1.2404850000      1.1547730000      0.8917140000
O                 -3.0334110000      3.0939570000      4.0770900000
O                 -0.6640980000      0.5504620000      0.0038510000
H                 -4.5151560000      4.0877550000      2.3988780000
H                 -4.3516200000      3.3538540000     -1.8367620000
O                 -2.3307970000      1.6916270000     -1.7190830000
C                  0.3805120000      0.0358830000      2.5076100000
H                 -5.3969860000      4.4938890000      0.0865880000
H                 -1.0573410000      1.4905200000      4.3521810000
H                 -2.7918270000      1.9610530000     -2.5217910000
H                  0.6477330000     -0.0383010000      3.5623120000
H                  1.2494600000      0.3768010000      1.9383380000
H                  0.1395760000     -0.9597340000      2.1254660000
$end
$rem
MAX_SCF_CYCLES=200
BASIS  =  6-311++G(d,p)
GUI  =  2
JOB_TYPE  =  SP
METHOD  =  B3LYP
SOLVENT_METHOD = COSMO
$end
$solvent
dielectric 37.219
opticaldielectric 1.43
$end

--------------------------------------------------------------

             Standard Nuclear Orientation (Angstroms)
    I     Atom           X                Y                Z
 ----------------------------------------------------------------
    1      C       1.6968270665    -1.6949174633     0.0000020597
    2      C       2.8843646005    -0.9690779713     0.0000269294
    3      C       2.8513305273     0.4175175011     0.0000314490
    4      C       1.6328578014     1.1101662701     0.0000020725
    5      C       0.4161833084     0.3917767185    -0.0000822309
    6      C       0.4802066468    -1.0201505843    -0.0000680814
    7      C      -0.7754975644    -1.8368920745     0.0000061901
    8      C      -2.0579518994    -1.1192579442     0.0001968435
    9      C      -2.1470010257     0.2219937530     0.0001206829
   10      C      -0.9074821098     1.0758932615    -0.0001973139
   11      O      -0.7419848360    -3.0586259531    -0.0001220849
   12      O      -1.0332865458     2.2882825156    -0.0001218393
   13      H       1.6911727810    -2.7769484909     0.0000898770
   14      H       3.7777538504     0.9849898860     0.0001010639
   15      O       1.6158379283     2.4637366828     0.0000723134
   16      C      -3.4523760822     0.9568109561     0.0000530172
   17      H       3.8390519667    -1.4823948912     0.0001002032
   18      H      -2.9415531838    -1.7496428345     0.0003194907
   19      H       2.5222683822     2.7921616458     0.0002712993
   20      H      -4.2923449520     0.2612836458     0.0008872357
   21      H      -3.5251324793     1.6093887305    -0.8741409398
   22      H      -3.5245163522     1.6108418098     0.8731949458
 ----------------------------------------------------------------

    9    -649.8298215675      6.12e-06  Convergence criterion met
 Total energy in the final basis set =     -649.8298215675
    5    -649.8520255554      3.86e-06  Convergence criterion met
 Total energy in the final basis set =     -649.8520255554

                    Orbital Energies (a.u.)
 --------------------------------------------------------------

 Alpha MOs
 -- Occupied --
-19.1725 -19.1326 -19.1310 -10.2832 -10.2814 -10.2682 -10.2182 -10.2088
-10.2081 -10.1992 -10.1980 -10.1963 -10.1907 -10.1731  -1.0900  -1.0664
 -1.0647  -0.8872  -0.8443  -0.7875  -0.7715  -0.7284  -0.6827  -0.6584
 -0.6244  -0.6030  -0.5546  -0.5429  -0.5073  -0.5056  -0.4777  -0.4705
 -0.4627  -0.4605  -0.4312  -0.4297  -0.4247  -0.4191  -0.4033  -0.3978
 -0.3953  -0.3825  -0.3783  -0.3588  -0.2976  -0.2863  -0.2792  -0.2714
 -0.2529

          Ground-State Mulliken Net Atomic Charges

     Atom                 Charge (a.u.)
  ----------------------------------------
      1 C                    -0.051638
      2 C                    -0.327221
      3 C                    -0.173520
      4 C                     0.244650
      5 C                    -0.164964
      6 C                     0.872619
      7 C                    -0.899407
      8 C                    -0.389904
      9 C                     0.648639
     10 C                    -0.356497
     11 O                    -0.323134
     12 O                    -0.289205
     13 H                     0.190391
     14 H                     0.206885
     15 O                    -0.230764
     16 C                    -0.323038
     17 H                     0.240754
     18 H                     0.214512
     19 H                     0.325466
     20 H                     0.186824
     21 H                     0.199305
     22 H                     0.199245
  ----------------------------------------
  Sum of atomic charges =     0.000000

                    Cartesian Multipole Moments
 -----------------------------------------------------------------
    Charge (ESU x 10^10)
                 0.0000
    Dipole Moment (Debye)
         X       3.7177      Y       1.2265      Z       0.0008
       Tot       3.9148
    Quadrupole Moments (Debye-Ang)
        XX     -51.4477     XY       4.7538     YY     -99.4700
        XZ       0.0029     YZ       0.0002     ZZ     -81.8192

 Total job time:  32.10s(wall), 238.38s(cpu)
        *  Thank you very much for using Q-Chem.  Have a nice day.  *
