 Gaussian 16, Revision A.03,
 Gaussian 16:  ES64L-G16RevA.03 25-Dec-2016

 ----------------------------------------------------------------
 #P UB3LYP/6-311++G(d,p) SCRF=(PCM,Solvent=n,n-DiMethylFormamide)
 ----------------------------------------------------------------

 -------
 Reduced
 -------
 Symbolic Z-matrix:
 Charge = -2 Multiplicity = 1

                         Standard orientation:
 ---------------------------------------------------------------------
 Center     Atomic      Atomic             Coordinates (Angstroms)
 Number     Number       Type             X           Y           Z
 ---------------------------------------------------------------------
      1          7           0        3.268821    1.913044   -0.178053
      2          6           0        2.812914    0.588825   -0.049021
      3          6           0        3.721897   -0.458662    0.031289
      4          6           0        3.270734   -1.804240    0.089007
      5          6           0        1.925816   -2.083834    0.056284
      6          6           0        0.951449   -1.045432   -0.009118
      7          6           0       -0.438139   -1.420855   -0.011606
      8          8           0       -0.787218   -2.681900    0.035376
      9          6           0       -1.389661   -0.338185   -0.043425
     10          6           0       -2.812905   -0.588838   -0.049026
     11          7           0       -3.268827   -1.913078   -0.178134
     12          6           0       -3.721899    0.458624    0.031305
     13          6           0       -3.270747    1.804225    0.089001
     14          6           0       -1.925838    2.083836    0.056345
     15          6           0       -0.951435    1.045464   -0.009050
     16          6           0        0.438147    1.420884   -0.011494
     17          8           0        0.787261    2.681937    0.035231
     18          6           0        1.389671    0.338198   -0.043472
     19          1           0        2.464328    2.556442   -0.026385
     20          1           0        4.092953    2.103315    0.376784
     21          1           0        4.787506   -0.233554    0.001616
     22          1           0        3.999949   -2.611897    0.144995
     23          1           0        1.550037   -3.100140    0.086125
     24          1           0       -4.093096   -2.103291    0.376541
     25          1           0       -2.464443   -2.556554   -0.026080
     26          1           0       -4.787504    0.233526    0.001548
     27          1           0       -3.999967    2.611876    0.145000
     28          1           0       -1.550094    3.100158    0.086190
 ---------------------------------------------------------------------

 SCF Done:  E(UB3LYP) =  -799.949107521     A.U. after   16 cycles

 The electronic state is 1-A.
 Alpha  occ. eigenvalues --  -19.02441 -19.02440 -14.27616 -14.27615 -10.18666
 Alpha  occ. eigenvalues --  -10.18666 -10.17647 -10.17646 -10.14580 -10.14580
 Alpha  occ. eigenvalues --  -10.14028 -10.14027 -10.13501 -10.13501 -10.13465
 Alpha  occ. eigenvalues --  -10.13464 -10.13245 -10.13244  -0.94318  -0.93946
 Alpha  occ. eigenvalues --   -0.87985  -0.87804  -0.81225  -0.79795  -0.74939
 Alpha  occ. eigenvalues --   -0.70496  -0.70238  -0.69432  -0.63478  -0.60226
 Alpha  occ. eigenvalues --   -0.59491  -0.54769  -0.52270  -0.52247  -0.49415
 Alpha  occ. eigenvalues --   -0.47332  -0.46297  -0.44613  -0.43890  -0.42388
 Alpha  occ. eigenvalues --   -0.42310  -0.40005  -0.39995  -0.38465  -0.37585
 Alpha  occ. eigenvalues --   -0.36257  -0.35734  -0.35393  -0.34652  -0.32774
 Alpha  occ. eigenvalues --   -0.32723  -0.32134  -0.31532  -0.30445  -0.28225
 Alpha  occ. eigenvalues --   -0.27328  -0.22650  -0.21416  -0.20804  -0.20096
 Alpha  occ. eigenvalues --   -0.19006  -0.18407  -0.10625
 Alpha virt. eigenvalues --   -0.01419   0.00078   0.00365   0.00741   0.01247
 Alpha virt. eigenvalues --    0.02262   0.02426   0.03105   0.04327   0.04383
 Alpha virt. eigenvalues --    0.04577   0.04880   0.05994   0.06802   0.06858

  Beta  occ. eigenvalues --  -19.02441 -19.02440 -14.27616 -14.27615 -10.18666
  Beta  occ. eigenvalues --  -10.18666 -10.17647 -10.17646 -10.14580 -10.14580
  Beta  occ. eigenvalues --  -10.14028 -10.14027 -10.13501 -10.13501 -10.13465
  Beta  occ. eigenvalues --  -10.13464 -10.13245 -10.13244  -0.94318  -0.93946
  Beta  occ. eigenvalues --   -0.87985  -0.87804  -0.81225  -0.79795  -0.74939
  Beta  occ. eigenvalues --   -0.70496  -0.70238  -0.69432  -0.63478  -0.60226
  Beta  occ. eigenvalues --   -0.59491  -0.54769  -0.52270  -0.52247  -0.49415
  Beta  occ. eigenvalues --   -0.47332  -0.46297  -0.44613  -0.43890  -0.42388
  Beta  occ. eigenvalues --   -0.42310  -0.40005  -0.39995  -0.38465  -0.37585
  Beta  occ. eigenvalues --   -0.36257  -0.35734  -0.35393  -0.34652  -0.32774
  Beta  occ. eigenvalues --   -0.32723  -0.32134  -0.31532  -0.30445  -0.28225
  Beta  occ. eigenvalues --   -0.27328  -0.22650  -0.21416  -0.20804  -0.20096
  Beta  occ. eigenvalues --   -0.19006  -0.18407  -0.10625
  Beta virt. eigenvalues --   -0.01419   0.00078   0.00365   0.00741   0.01247
  Beta virt. eigenvalues --    0.02262   0.02426   0.03105   0.04327   0.04383
  Beta virt. eigenvalues --    0.04577   0.04880   0.05994   0.06802   0.06858

 Mulliken charges and spin densities:
               1          2
     1  N   -0.471140  -0.000000
     2  C    0.022209  -0.000000
     3  C   -0.250810   0.000000
     4  C   -0.455785  -0.000000
     5  C   -0.337310   0.000000
     6  C    0.504610  -0.000000
     7  C   -0.667482   0.000000
     8  O   -0.630612  -0.000000
     9  C    0.292938  -0.000000
    10  C    0.022060  -0.000000
    11  N   -0.471085  -0.000000
    12  C   -0.250713  -0.000000
    13  C   -0.455841   0.000000
    14  C   -0.337232  -0.000000
    15  C    0.504435   0.000000
    16  C   -0.667727   0.000000
    17  O   -0.630611  -0.000000
    18  C    0.293157   0.000000
    19  H    0.314491  -0.000000
    20  H    0.242433   0.000000
    21  H    0.139359   0.000000
    22  H    0.156190  -0.000000
    23  H    0.141015   0.000000
    24  H    0.242434  -0.000000
    25  H    0.314457   0.000000
    26  H    0.139359  -0.000000
    27  H    0.156189   0.000000
    28  H    0.141013  -0.000000
 Sum of Mulliken charges =  -2.00000   0.00000

 Dipole moment (field-independent basis, Debye):
    X=             -0.0003    Y=              0.0000    Z=              2.3336  Tot=              2.3336
 Quadrupole moment (field-independent basis, Debye-Ang):
   XX=           -137.1736   YY=           -161.2960   ZZ=           -120.6740
   XY=             -5.0958   XZ=              0.0006   YZ=              0.0003

 Normal termination of Gaussian 16 at Sun Jan 14 01:30:47 2024.
