 Q-Chem 5.4, Q-Chem, Inc., Pleasanton, CA (2021)
 Q-Chem 5.4.0 for Intel X86 EM64T Linux

User input:
--------------------------------------------------------------
$molecule
-2 1
O                  0.1069160000      0.5411320000      2.6777500000
C                  0.0731640000      0.3467090000      1.3854450000
C                 -1.1829820000      0.1879050000      0.7009160000
C                 -2.4332270000      0.2080270000      1.3940780000
C                 -3.6235450000      0.0438950000      0.6956350000
C                 -3.6324410000     -0.1819180000     -0.6939120000
C                 -2.4149240000     -0.2345780000     -1.3812290000
C                 -1.2283970000     -0.0418740000     -0.6882300000
O                 -0.0708080000     -0.0260980000     -1.4524250000
C                  1.1664970000     -0.0537450000     -0.8104130000
C                  2.2755960000     -0.2509070000     -1.6072150000
C                  3.5717770000     -0.2125720000     -1.0380260000
C                  3.6921230000     -0.0276690000      0.3401330000
C                  2.5681460000      0.1337340000      1.1476450000
C                  1.2546730000      0.1679800000      0.5920670000
O                 -2.4262880000      0.4175820000      2.7422980000
H                 -4.5584830000      0.0991000000      1.2454860000
H                 -4.5610570000     -0.2983240000     -1.2415080000
O                 -2.3939940000     -0.4386290000     -2.7557500000
H                  2.1372370000     -0.3927040000     -2.6752810000
H                  4.4486390000     -0.3291100000     -1.6687240000
H                  4.6835690000     -0.0108370000      0.7909100000
H                  2.6549190000      0.2602930000      2.2203010000
H                 -1.4315200000      0.5048120000      2.9662340000
H                 -1.4627150000     -0.4193620000     -3.0143640000
$end
$rem
MAX_SCF_CYCLES=200
BASIS  =  6-311++G(d,p)
GUI  =  2
JOB_TYPE  =  SP
METHOD  =  B3LYP
SOLVENT_METHOD = COSMO
$end
$solvent
dielectric 37.219
opticaldielectric 1.43
$end

--------------------------------------------------------------

             Standard Nuclear Orientation (Angstroms)
    I     Atom           X                Y                Z
 ----------------------------------------------------------------
    1      O      -0.2747194227    -2.6704131912    -0.0919355716
    2      C      -0.3077866306    -1.3635951621    -0.1031119799
    3      C       0.9109639542    -0.5993516369    -0.0553596846
    4      C       2.1948135403    -1.2222830507     0.0322628414
    5      C       3.3470809425    -0.4468428609     0.0831669135
    6      C       3.2840503797     0.9595417981     0.0877335341
    7      C       2.0329583461     1.5834905116     0.0331248735
    8      C       0.8843977216     0.8091260683    -0.0468561752
    9      O      -0.3102670763     1.5012110191    -0.1812050290
   10      C      -1.5136358546     0.8091449874    -0.0515299775
   11      C      -2.6629888368     1.5693079513     0.0192292180
   12      C      -3.9283906919     0.9356947586     0.0723643452
   13      C      -3.9775223805    -0.4587272116     0.1065396989
   14      C      -2.8130143148    -1.2230771446     0.0727610091
   15      C      -1.5291549189    -0.6134033396    -0.0499334384
   16      O       2.2575941087    -2.5852549178     0.0372534348
   17      H       4.3090197809    -0.9500492836     0.1139848549
   18      H       4.1829242334     1.5653411753     0.1155241990
   19      O       1.9410512150     2.9701140641     0.0185970427
   20      H      -2.5798691452     2.6520454441    -0.0087925776
   21      H      -4.8368448665     1.5312372652     0.0893400686
   22      H      -4.9447312417    -0.9566090107     0.1619393713
   23      H      -2.8444877247    -2.3053130809     0.1164923612
   24      H       1.2760649055    -2.8706361206    -0.0125237807
   25      H       0.9980259244     3.1745738053    -0.0399905810
 ----------------------------------------------------------------

   17    -801.2653282324      6.84e-06  Convergence criterion met
 Total energy in the final basis set =     -801.2653282324
    6    -801.5197458893      5.76e-06  Convergence criterion met
 Total energy in the final basis set =     -801.5197458893

                    Orbital Energies (a.u.)
 --------------------------------------------------------------

 Alpha MOs
 -- Occupied --
-19.1476 -19.1364 -19.0996 -19.0288 -10.2067 -10.2021 -10.2007 -10.1920
-10.1572 -10.1473 -10.1432 -10.1432 -10.1414 -10.1386 -10.1372 -10.1294
-10.1248  -1.0677  -1.0357  -1.0160  -0.9382  -0.8257  -0.8155  -0.7428
 -0.7332  -0.7099  -0.6954  -0.6269  -0.6161  -0.5756  -0.5638  -0.5277
 -0.5254  -0.5118  -0.4960  -0.4529  -0.4485  -0.4370  -0.4351  -0.4052
 -0.3973  -0.3941  -0.3832  -0.3826  -0.3756  -0.3739  -0.3661  -0.3475
 -0.3355  -0.3342  -0.3237  -0.3142  -0.3049  -0.2831  -0.2339  -0.2228
 -0.2140  -0.2132  -0.1805  -0.0753

          Ground-State Mulliken Net Atomic Charges

     Atom                 Charge (a.u.)
  ----------------------------------------
      1 O                    -0.765833
      2 C                    -0.033507
      3 C                     1.146887
      4 C                    -0.172570
      5 C                    -0.168323
      6 C                    -0.159145
      7 C                    -0.808943
      8 C                    -0.402722
      9 O                    -0.236144
     10 C                    -0.964037
     11 C                    -0.415235
     12 C                    -0.525694
     13 C                    -0.312804
     14 C                    -0.106844
     15 C                     1.089816
     16 O                    -0.487741
     17 H                     0.179932
     18 H                     0.188630
     19 O                    -0.360034
     20 H                     0.162195
     21 H                     0.160352
     22 H                     0.157960
     23 H                     0.157512
     24 H                     0.363066
     25 H                     0.313227
  ----------------------------------------
  Sum of atomic charges =    -2.000000

                    Cartesian Multipole Moments
 -----------------------------------------------------------------
    Charge (ESU x 10^10)
                -9.6064
    Dipole Moment (Debye)
         X      -0.1894      Y       8.7648      Z       0.1199
       Tot       8.7677
    Quadrupole Moments (Debye-Ang)
        XX    -154.8949     XY      -2.2272     YY    -146.8539
        XZ      -0.3416     YZ      -0.9125     ZZ    -112.8329

 Total job time:  76.32s(wall), 591.91s(cpu)
        *  Thank you very much for using Q-Chem.  Have a nice day.  *
