 Q-Chem 5.4, Q-Chem, Inc., Pleasanton, CA (2021)
 Q-Chem 5.4.0 for Intel X86 EM64T Linux

User input:
--------------------------------------------------------------
$molecule
0 1
C                  0.6534080000      1.4177030000      0.4012650000
C                 -0.5233380000      0.6029540000      0.0390780000
C                 -0.4181840000     -0.6612420000     -0.3974290000
C                  0.9443000000     -1.2735740000     -0.5195150000
C                  2.1481280000     -0.4645060000     -0.1531080000
C                  2.0149480000      0.8109120000      0.2783680000
C                  3.1878940000      1.6711150000      0.6538330000
C                  3.4867950000     -1.1342140000     -0.2959570000
O                  0.5062600000      2.5663840000      0.7954280000
O                  1.0610790000     -2.4242910000     -0.9138830000
C                 -1.5877910000     -1.5427660000     -0.7701980000
C                 -2.9069080000     -0.8322430000     -0.8881250000
C                 -3.9827160000     -0.9544840000     -0.0996560000
C                 -4.0629390000     -1.8415100000      1.1166520000
C                 -5.2445630000     -0.1800880000     -0.3915580000
H                 -1.4842380000      1.0918910000      0.1539010000
H                  3.8839960000      1.7727010000     -0.1848000000
H                  3.7497970000      1.2271700000      1.4821550000
H                  2.8518860000      2.6624010000      0.9532010000
H                  3.3664340000     -2.1661370000     -0.6204360000
H                  4.0329770000     -1.1236750000      0.6523710000
H                  4.1094440000     -0.6095210000     -1.0281120000
H                 -1.6296830000     -2.3673520000     -0.0523240000
H                 -1.3410180000     -2.0265700000     -1.7226630000
H                 -2.9798900000     -0.1476970000     -1.7317830000
H                 -3.1374810000     -2.3773070000      1.3260660000
H                 -4.8631720000     -2.5813800000      0.9995750000
H                 -4.3149980000     -1.2484350000      2.0031260000
H                 -5.1406510000      0.4490000000     -1.2776090000
H                 -5.5149680000      0.4613620000      0.4552190000
H                 -6.0902620000     -0.8590660000     -0.5517360000
$end
$rem
MAX_SCF_CYCLES=200
BASIS  =  6-311++G(d,p)
GUI  =  2
JOB_TYPE  =  SP
METHOD  =  B3LYP
SOLVENT_METHOD = PCM
$end
$pcm
theory = CPCM
$end
$solvent
dielectric 37.219
opticaldielectric 1.43
$end

--------------------------------------------------------------

             Standard Nuclear Orientation (Angstroms)
    I     Atom           X                Y                Z
 ----------------------------------------------------------------
    1      C       0.6534080000     1.4177030000     0.4012650000
    2      C      -0.5233380000     0.6029540000     0.0390780000
    3      C      -0.4181840000    -0.6612420000    -0.3974290000
    4      C       0.9443000000    -1.2735740000    -0.5195150000
    5      C       2.1481280000    -0.4645060000    -0.1531080000
    6      C       2.0149480000     0.8109120000     0.2783680000
    7      C       3.1878940000     1.6711150000     0.6538330000
    8      C       3.4867950000    -1.1342140000    -0.2959570000
    9      O       0.5062600000     2.5663840000     0.7954280000
   10      O       1.0610790000    -2.4242910000    -0.9138830000
   11      C      -1.5877910000    -1.5427660000    -0.7701980000
   12      C      -2.9069080000    -0.8322430000    -0.8881250000
   13      C      -3.9827160000    -0.9544840000    -0.0996560000
   14      C      -4.0629390000    -1.8415100000     1.1166520000
   15      C      -5.2445630000    -0.1800880000    -0.3915580000
   16      H      -1.4842380000     1.0918910000     0.1539010000
   17      H       3.8839960000     1.7727010000    -0.1848000000
   18      H       3.7497970000     1.2271700000     1.4821550000
   19      H       2.8518860000     2.6624010000     0.9532010000
   20      H       3.3664340000    -2.1661370000    -0.6204360000
   21      H       4.0329770000    -1.1236750000     0.6523710000
   22      H       4.1094440000    -0.6095210000    -1.0281120000
   23      H      -1.6296830000    -2.3673520000    -0.0523240000
   24      H      -1.3410180000    -2.0265700000    -1.7226630000
   25      H      -2.9798900000    -0.1476970000    -1.7317830000
   26      H      -3.1374810000    -2.3773070000     1.3260660000
   27      H      -4.8631720000    -2.5813800000     0.9995750000
   28      H      -4.3149980000    -1.2484350000     2.0031260000
   29      H      -5.1406510000     0.4490000000    -1.2776090000
   30      H      -5.5149680000     0.4613620000     0.4552190000
   31      H      -6.0902620000    -0.8590660000    -0.5517360000
 ----------------------------------------------------------------

    9    -655.6341907502      2.15e-06  Convergence criterion met
 Total energy in the final basis set =     -655.6341907502

                    Orbital Energies (a.u.)
 --------------------------------------------------------------

 Alpha MOs
 -- Occupied --
-19.1385 -19.1358 -10.2821 -10.2796 -10.2144 -10.2083 -10.2075 -10.1959
-10.1829 -10.1812 -10.1692 -10.1690 -10.1640 -10.1606 -10.1596  -1.0704
 -1.0663  -0.8655  -0.8314  -0.8062  -0.7475  -0.7445  -0.6921  -0.6888
 -0.6842  -0.6410  -0.5925  -0.5762  -0.5378  -0.5144  -0.4937  -0.4743
 -0.4686  -0.4579  -0.4481  -0.4352  -0.4314  -0.4260  -0.4216  -0.4180
 -0.4126  -0.4087  -0.3983  -0.3890  -0.3836  -0.3802  -0.3762  -0.3696
 -0.3609  -0.3342  -0.2979  -0.2909  -0.2747  -0.2704  -0.2439

          Ground-State Mulliken Net Atomic Charges

     Atom                 Charge (a.u.)
  ----------------------------------------
      1 C                    -0.913345
      2 C                    -1.085154
      3 C                     1.412424
      4 C                    -1.032333
      5 C                     0.299127
      6 C                     1.164123
      7 C                    -0.438949
      8 C                    -0.514594
      9 O                    -0.298666
     10 O                    -0.269893
     11 C                    -0.538387
     12 C                     0.323393
     13 C                     0.239328
     14 C                    -0.664390
     15 C                    -0.625152
     16 H                     0.231551
     17 H                     0.181422
     18 H                     0.185596
     19 H                     0.193268
     20 H                     0.199165
     21 H                     0.180214
     22 H                     0.186653
     23 H                     0.227238
     24 H                     0.220960
     25 H                     0.197414
     26 H                     0.138042
     27 H                     0.160184
     28 H                     0.164430
     29 H                     0.160721
     30 H                     0.160965
     31 H                     0.154645
  ----------------------------------------
  Sum of atomic charges =     0.000000

                    Cartesian Multipole Moments
 -----------------------------------------------------------------
    Charge (ESU x 10^10)
                 0.0000
    Dipole Moment (Debye)
         X       0.1761      Y      -0.9099      Z       0.2362
       Tot       0.9564
    Quadrupole Moments (Debye-Ang)
        XX     -71.7215     XY       4.5319     YY    -108.4749
        XZ       0.0105     YZ      -7.7076     ZZ     -91.2918

 Total job time:  75.70s(wall), 333.80s(cpu)
        *  Thank you very much for using Q-Chem.  Have a nice day.  *
